/*--------------------------------*- C++ -*----------------------------------*\
| =========                 |                                                 |
| \\      /  F ield         | OpenFOAM: The Open Source CFD Toolbox           |
|  \\    /   O peration     | Version:  2.3.0                                 |
|   \\  /    A nd           | Web:      www.OpenFOAM.org                      |
|    \\/     M anipulation  |                                                 |
\*---------------------------------------------------------------------------*/
FoamFile
{
    version     2.0;
    format      ascii;
    class       volScalarField;
    location    "22000";
    object      p;
}
// * * * * * * * * * * * * * * * * * * * * * * * * * * * * * * * * * * * * * //

dimensions      [0 2 -2 0 0 0 0];

internalField   nonuniform List<scalar> 
191
(
-1740.12
-1722.55
-1707.61
-1695.51
-1685.49
-1676.57
-1667.89
-1658.86
-1649.1
-1638.42
-1626.66
-1613.6
-1598.91
-1566.29
-1553.39
-1541.27
-1530.24
-1520.3
-1511.18
-1502.52
-1494.02
-1485.37
-1476.33
-1466.73
-1456.4
-1445.15
-1414.2
-1405.28
-1396.21
-1387.44
-1379.14
-1371.34
-1364
-1357.05
-1350.4
-1343.89
-1337.41
-1330.88
-1324.26
-1272.82
-1267.82
-1262.17
-1256.47
-1250.86
-1245.42
-1240.22
-1235.35
-1230.83
-1226.66
-1222.81
-1219.22
-1215.83
-1136.51
-1134.38
-1131.62
-1128.71
-1125.77
-1122.83
-1119.94
-1117.19
-1114.64
-1112.36
-1110.3
-1108.4
-1106.5
-1001.66
-1001.6
-1001.03
-1000.27
-999.442
-998.542
-997.58
-996.594
-995.635
-994.74
-993.897
-993.023
-991.95
-866.147
-867.622
-868.647
-869.422
-870.07
-870.638
-871.114
-871.482
-871.747
-871.923
-872.001
-871.931
-871.607
-728.597
-731.333
-733.591
-735.519
-737.226
-738.805
-740.28
-741.638
-742.862
-743.945
-744.875
-745.622
-746.14
-588.229
-592.087
-595.462
-598.403
-601.014
-603.402
-605.638
-607.755
-609.77
-611.694
-613.533
-615.271
-444.862
-449.781
-454.261
-458.229
-461.76
-464.971
-467.969
-470.844
-473.67
-476.523
-479.462
-482.5
-298.85
-304.93
-310.65
-315.828
-320.489
-324.752
-328.757
-332.645
-336.555
-340.647
-345.086
-349.916
-152.754
-160.323
-167.598
-174.315
-180.475
-186.207
-191.695
-197.137
-202.731
-208.73
-215.376
-222.693
1.20484
-8.13004
-18.1457
-28.0409
-37.4464
-46.2888
-54.6495
-62.6728
-70.5299
-78.4363
-86.9208
-96.6484
-107.241
108.909
96.4216
83.6463
71.5266
60.3125
49.8672
39.9231
30.2217
20.6107
11.2043
2.27533
-5.6063
-11.7169
9.89738
21.6562
32.9405
42.9704
51.6344
59.0745
65.4747
70.93
75.3964
78.9398
82.4691
85.9921
86.3277
)
;

boundaryField
{
    top
    {
        type            calculated;
        value           nonuniform List<scalar> 
13
(
-9.81
-9.81
-9.81
-9.81
-9.81
-9.81
-9.81
-9.81
-9.81
-9.81
-9.81
-9.81
-9.81
)
;
    }
    bottom
    {
        type            calculated;
        value           nonuniform List<scalar> 
13
(
-1831.82
-1813.6
-1798.23
-1786.14
-1776.35
-1767.64
-1759.01
-1749.74
-1739.55
-1728.3
-1715.85
-1701.94
-1686.21
)
;
    }
    frontAndBack
    {
        type            empty;
    }
    left_cyc
    {
        type            cyclic;
    }
    right_cyc
    {
        type            cyclic;
    }
    procBoundary1to0
    {
        type            processor;
        value           nonuniform List<scalar> 
16
(
-1758.78
-1578.77
-1421.85
-1276.31
-1137.32
-1000.76
-863.994
-725.371
-584.071
-439.863
-292.924
-145.543
-145.543
8.4617
119.062
-0.547776
)
;
    }
    procBoundary1to2
    {
        type            processor;
        value           nonuniform List<scalar> 
16
(
-1582.06
-1432.74
-1317.59
-1212.56
-1104.35
-990.447
-870.885
-746.394
-616.908
-616.908
-485.67
-355.203
-230.741
-117.807
-15.1776
81.8535
)
;
    }
}


// ************************************************************************* //
