/*--------------------------------*- C++ -*----------------------------------*\
| =========                 |                                                 |
| \\      /  F ield         | OpenFOAM: The Open Source CFD Toolbox           |
|  \\    /   O peration     | Version:  2.3.0                                 |
|   \\  /    A nd           | Web:      www.OpenFOAM.org                      |
|    \\/     M anipulation  |                                                 |
\*---------------------------------------------------------------------------*/
FoamFile
{
    version     2.0;
    format      ascii;
    class       volScalarField;
    location    "22000";
    object      p_rgh;
}
// * * * * * * * * * * * * * * * * * * * * * * * * * * * * * * * * * * * * * //

dimensions      [0 2 -2 0 0 0 0];

internalField   nonuniform List<scalar> 
191
(
-1831.82
-1813.6
-1798.23
-1786.14
-1776.35
-1767.64
-1759.01
-1749.74
-1739.55
-1728.3
-1715.85
-1701.94
-1686.21
-1801.03
-1783.68
-1769.06
-1757.27
-1747.27
-1738
-1728.6
-1718.53
-1707.16
-1694.56
-1680.73
-1665.54
-1648.73
-1762.66
-1742.87
-1728.84
-1717.08
-1706.46
-1696.19
-1685.73
-1674.76
-1663.16
-1650.3
-1636.23
-1621.07
-1604.81
-1732.84
-1712.46
-1699.83
-1689.32
-1678.95
-1668.33
-1657.46
-1646.39
-1635.15
-1623.77
-1612.16
-1600.33
-1588.34
-1718.33
-1700.29
-1690.7
-1683.19
-1674.78
-1665.38
-1655.61
-1645.98
-1636.82
-1628.25
-1620.2
-1612.39
-1604.17
-1716.84
-1702.48
-1697.81
-1694.36
-1689.33
-1682.4
-1674.53
-1666.73
-1659.63
-1653.48
-1648.13
-1643.02
-1637.02
-1727.65
-1714.14
-1713.32
-1713.83
-1712.9
-1709.32
-1703.92
-1697.88
-1692.16
-1687.27
-1683.2
-1679.33
-1674.24
-1750.36
-1736.79
-1735.23
-1737.07
-1738.32
-1737.92
-1735.46
-1731.51
-1726.93
-1722.4
-1718.2
-1713.89
-1708
-1779.73
-1766.86
-1763.79
-1764.64
-1765.61
-1765.53
-1764.25
-1761.65
-1757.95
-1753.42
-1748.15
-1741.7
-1810.43
-1799.21
-1794.9
-1793.5
-1792.6
-1791.02
-1788.26
-1784.29
-1779.12
-1772.73
-1764.81
-1754.6
-1834.76
-1824.57
-1818.13
-1812.87
-1807.36
-1800.95
-1793.4
-1784.64
-1774.62
-1763.3
-1749.79
-1733.23
-1830.97
-1817.76
-1805.19
-1792.08
-1777.9
-1762.48
-1745.72
-1727.5
-1707.71
-1686.49
-1664.29
-1639.08
-1739.47
-1718.61
-1696.96
-1674.22
-1650.29
-1625.13
-1598.62
-1570.47
-1540.32
-1508.05
-1474.46
-1441.3
-1409.04
-1372.2
-1350.75
-1326.42
-1299.6
-1270.77
-1240.34
-1208.57
-1175.43
-1140.69
-1104.03
-1065.72
-1026.26
-985.565
-678.486
-646.899
-612.913
-578.545
-544.723
-511.773
-479.7
-448.392
-417.784
-387.846
-358.143
-329.172
-304.075
)
;

boundaryField
{
    top
    {
        type            fixedValue;
        value           uniform 0;
    }
    bottom
    {
        type            fixedFluxPressure;
        gradient        uniform 0;
        value           nonuniform List<scalar> 
13
(
-1831.82
-1813.6
-1798.23
-1786.14
-1776.35
-1767.64
-1759.01
-1749.74
-1739.55
-1728.3
-1715.85
-1701.94
-1686.21
)
;
    }
    frontAndBack
    {
        type            empty;
    }
    left_cyc
    {
        type            cyclic;
    }
    right_cyc
    {
        type            cyclic;
    }
    procBoundary1to0
    {
        type            processor;
        value           nonuniform List<scalar> 
16
(
-1851.28
-1821.45
-1789.85
-1765.5
-1753.72
-1753.69
-1765.49
-1785.45
-1809.45
-1833.57
-1852.08
-1846.72
-1846.72
-1759.47
-1390.17
-704.11
)
;
    }
    procBoundary1to2
    {
        type            processor;
        value           nonuniform List<scalar> 
16
(
-1668.05
-1629.88
-1587.51
-1575.76
-1594.35
-1628.29
-1665.53
-1697.79
-1732.67
-1732.67
-1740.49
-1711.83
-1609.2
-1372.78
-944.944
-284.635
)
;
    }
}


// ************************************************************************* //
