/*--------------------------------*- C++ -*----------------------------------*\
| =========                 |                                                 |
| \\      /  F ield         | OpenFOAM: The Open Source CFD Toolbox           |
|  \\    /   O peration     | Version:  2.3.0                                 |
|   \\  /    A nd           | Web:      www.OpenFOAM.org                      |
|    \\/     M anipulation  |                                                 |
\*---------------------------------------------------------------------------*/
FoamFile
{
    version     2.0;
    format      ascii;
    class       surfaceScalarField;
    location    "22000";
    object      phi;
}
// * * * * * * * * * * * * * * * * * * * * * * * * * * * * * * * * * * * * * //

dimensions      [0 3 -1 0 0 0 0];

internalField   nonuniform List<scalar> 
353
(
-0.40647
0.0259136
-0.395796
-0.0106737
-0.369257
-0.0265398
-0.341932
-0.0273248
-0.321641
-0.0202912
-0.310754
-0.0108863
-0.308545
-0.00220979
-0.31302
0.00447579
-0.322088
0.00906806
-0.334374
0.0122855
-0.349253
0.0148788
-0.366745
0.0174924
0.0207208
-0.640835
0.0849207
-0.648208
-0.00330065
-0.629501
-0.0452464
-0.602137
-0.0546893
-0.57627
-0.0461577
-0.55652
-0.0306367
-0.543948
-0.0147814
-0.537705
-0.00176751
-0.536046
0.00740941
-0.536844
0.0130831
-0.537996
0.0160311
-0.537423
0.016919
0.0161714
-0.624815
0.154071
-0.647718
0.0196029
-0.644533
-0.0484311
-0.628826
-0.0703972
-0.609039
-0.065944
-0.5898
-0.0498757
-0.573145
-0.0314364
-0.559468
-0.0154446
-0.548165
-0.00389399
-0.537766
0.00268409
-0.526161
0.00442619
-0.510684
0.00144271
-0.00636546
-0.500762
0.222349
-0.534978
0.0538192
-0.547176
-0.0362333
-0.546154
-0.0714194
-0.537831
-0.0742666
-0.525995
-0.0617118
-0.512916
-0.0445153
-0.499768
-0.0285933
-0.486856
-0.0168054
-0.473713
-0.010459
-0.459018
-0.0102695
-0.440611
-0.0169638
-0.0313885
-0.333417
0.282061
-0.373012
0.0934149
-0.397028
-0.0122182
-0.409545
-0.0589021
-0.413877
-0.0699347
-0.412541
-0.0630471
-0.407442
-0.0496147
-0.399958
-0.0360773
-0.390946
-0.025817
-0.380679
-0.0207269
-0.368699
-0.0222495
-0.353707
-0.0319552
-0.0515537
-0.151657
0.326253
-0.189336
0.131094
-0.219059
0.017505
-0.240828
-0.0371334
-0.255513
-0.0552497
-0.264198
-0.0543625
-0.268004
-0.0458081
-0.268021
-0.036061
-0.265215
-0.0286227
-0.260305
-0.0256367
-0.25356
-0.028995
-0.244582
-0.0409325
-0.0639727
0.0273584
0.349766
-0.00214689
0.1606
-0.0312831
0.0466412
-0.056872
-0.0115444
-0.0776598
-0.0344619
-0.0934518
-0.0385704
-0.104523
-0.0347365
-0.111427
-0.0291575
-0.114916
-0.0251336
-0.115835
-0.0247181
-0.1149
-0.0299295
-0.112427
-0.043406
-0.0682969
0.191339
0.349339
0.174112
0.177826
0.149829
0.0709247
0.12457
0.0137141
0.101567
-0.011459
0.082194
-0.0191971
0.066856
-0.0193985
0.0554423
-0.0177437
0.0474543
-0.0171456
0.0420757
-0.0193395
0.0383605
-0.0262143
0.0355155
-0.040561
0.329407
0.324076
0.326763
0.18047
0.309729
0.087959
0.287235
0.0362085
0.264538
0.0112376
0.244317
0.00102391
0.227652
-0.00273325
0.214719
-0.0048106
0.205103
-0.00752947
0.197892
-0.0121287
0.191864
-0.0201865
-0.0344867
0.429905
0.276738
0.441855
0.16852
0.43326
0.0965539
0.415196
0.054273
0.39471
0.0317236
0.37569
0.0200436
0.359905
0.0130519
0.347815
0.00727938
0.339022
0.00126307
0.332369
-0.00547535
0.32615
-0.0139671
-0.0269083
0.478659
0.214591
0.502337
0.144842
0.502187
0.0967035
0.490052
0.0664083
0.473854
0.0479219
0.458101
0.0357964
0.444909
0.026244
0.434931
0.0172572
0.427867
0.00832671
0.42244
-4.8352e-05
0.416495
-0.00802215
-0.0181681
0.457005
0.149379
0.487056
0.114791
0.494719
0.0890407
0.490571
0.0705564
0.481688
0.0568042
0.471999
0.0454862
0.463241
0.0350019
0.455926
0.0245722
0.449908
0.0143444
0.444291
0.00556923
0.437317
-0.00104902
-0.00766687
0.293287
0.104921
0.348936
0.0937305
0.381128
0.0825985
0.398048
0.0721214
0.406189
0.0624147
0.409632
0.053362
0.410373
0.0447451
0.409059
0.0363158
0.405779
0.0278524
0.400756
0.0193671
0.394663
0.0116621
0.388123
0.00549118
-6.67283e-06
0.155281
0.0517757
0.201056
0.0479559
0.240137
0.0435174
0.273372
0.0388861
0.30147
0.0343162
0.324919
0.0299133
0.343984
0.0256802
0.35874
0.0215597
0.369109
0.0174838
0.374969
0.0135069
0.376648
0.00998306
0.375069
0.00706975
0.00430153
0.136789
0.181617
0.221412
0.256057
0.285697
0.310572
0.330915
0.346898
0.358632
0.366291
0.370371
0.371528
)
;

boundaryField
{
    top
    {
        type            calculated;
        value           nonuniform List<scalar> 
13
(
0.00249667
0.0031278
0.00372319
0.00424085
0.00467627
0.00503839
0.00533737
0.00557671
0.00574929
0.00584824
0.00590239
0.00591282
0.0057874
)
;
    }
    bottom
    {
        type            calculated;
        value           uniform 0;
    }
    frontAndBack
    {
        type            empty;
        value           nonuniform 0();
    }
    left_cyc
    {
        type            cyclic;
        value           nonuniform 0();
    }
    right_cyc
    {
        type            cyclic;
        value           nonuniform 0();
    }
    procBoundary1to0
    {
        type            processor;
        value           nonuniform List<scalar> 
16
(
0.380556
0.581828
0.555665
0.432484
0.273705
0.107465
-0.050871
-0.190912
-0.304145
-0.382567
-0.416512
-0.391793
-0.191209
-0.207
-0.102135
-0.0875103
)
;
    }
    procBoundary1to2
    {
        type            processor;
        value           nonuniform List<scalar> 
16
(
-0.387466
-0.532873
-0.488147
-0.415588
-0.333542
-0.232163
-0.108102
0.0330712
-0.0658526
0.18579
0.318571
0.407755
0.426816
0.380463
0.370761
0.370042
)
;
    }
}


// ************************************************************************* //
