/*--------------------------------*- C++ -*----------------------------------*\
| =========                 |                                                 |
| \\      /  F ield         | OpenFOAM: The Open Source CFD Toolbox           |
|  \\    /   O peration     | Version:  2.3.0                                 |
|   \\  /    A nd           | Web:      www.OpenFOAM.org                      |
|    \\/     M anipulation  |                                                 |
\*---------------------------------------------------------------------------*/
FoamFile
{
    version     2.0;
    format      ascii;
    class       volVectorField;
    location    "22000";
    object      U;
}
// * * * * * * * * * * * * * * * * * * * * * * * * * * * * * * * * * * * * * //

dimensions      [0 1 -1 0 0 0 0];

internalField   nonuniform List<vector> 
191
(
(-60.6949 0 0.826778)
(-61.0601 0 -1.56517)
(-57.652 0 -2.42377)
(-53.2199 0 -2.15703)
(-49.4792 0 -1.3762)
(-47.1171 0 -0.516334)
(-46.1839 0 0.201178)
(-46.4248 0 0.719935)
(-47.5036 0 1.07402)
(-49.1418 0 1.35575)
(-51.1937 0 1.65057)
(-53.618 0 2.03881)
(-56.4634 0 2.61174)
(-94.0826 0 7.40137)
(-98.0336 0 -1.74523)
(-96.3954 0 -5.87182)
(-92.4572 0 -6.41164)
(-88.2138 0 -5.023)
(-84.704 0 -2.96739)
(-82.2864 0 -0.990427)
(-80.9288 0 0.573747)
(-80.4082 0 1.65651)
(-80.4214 0 2.36916)
(-80.6441 0 2.85509)
(-80.7681 0 3.23194)
(-80.4757 0 3.58479)
(-90.6405 0 17.9357)
(-96.7 0 0.804583)
(-97.577 0 -7.5956)
(-95.7692 0 -9.91702)
(-92.8772 0 -8.80658)
(-89.8379 0 -6.26548)
(-87.1088 0 -3.53124)
(-84.8424 0 -1.22521)
(-83.0098 0 0.422578)
(-81.4486 0 1.39689)
(-79.886 0 1.77772)
(-77.9632 0 1.63735)
(-75.2408 0 1.00806)
(-71.4866 0 28.4568)
(-78.6663 0 5.25648)
(-81.7828 0 -6.79948)
(-82.3594 0 -11.1153)
(-81.4821 0 -10.9332)
(-79.8618 0 -8.68588)
(-77.9329 0 -5.90688)
(-75.9409 0 -3.42116)
(-73.9901 0 -1.60288)
(-72.0703 0 -0.594664)
(-70.0478 0 -0.439945)
(-67.6611 0 -1.18073)
(-64.5263 0 -2.87796)
(-46.3474 0 38.3062)
(-53.6208 0 10.9968)
(-58.2466 0 -3.94842)
(-60.8533 0 -10.1921)
(-62.0086 0 -11.2382)
(-62.1505 0 -9.73469)
(-61.6067 0 -7.37101)
(-60.6217 0 -5.09363)
(-59.3638 0 -3.38439)
(-57.9216 0 -2.49331)
(-56.2869 0 -2.58877)
(-54.3316 0 -3.84447)
(-51.7923 0 -6.44963)
(-19.6128 0 46.3288)
(-25.8455 0 17.0451)
(-30.9324 0 0.305189)
(-34.776 0 -7.45113)
(-37.472 0 -9.70647)
(-39.1814 0 -9.13941)
(-40.0752 0 -7.47456)
(-40.3226 0 -5.6959)
(-40.0813 0 -4.33365)
(-39.4841 0 -3.7037)
(-38.6128 0 -4.06822)
(-37.4653 0 -5.72212)
(-35.923 0 -8.98843)
(6.25955 0 51.5588)
(1.96837 0 22.2831)
(-2.5964 0 4.9282)
(-6.77873 0 -3.70826)
(-10.2793 0 -6.88276)
(-13.0195 0 -7.17351)
(-15.0171 0 -6.2649)
(-16.3394 0 -5.11709)
(-17.0876 0 -4.24922)
(-17.3876 0 -3.9865)
(-17.3663 0 -4.63321)
(-17.1109 0 -6.56503)
(-16.6265 0 -10.2174)
(29.5769 0 53.3707)
(27.8274 0 25.9049)
(24.4191 0 9.06112)
(20.5387 0 0.232662)
(16.8401 0 -3.47326)
(13.6323 0 -4.41371)
(11.0248 0 -4.1657)
(9.03075 0 -3.63341)
(7.60151 0 -3.29068)
(6.63405 0 -3.4289)
(5.98637 0 -4.34873)
(5.51846 0 -6.4652)
(5.13387 0 -10.2867)
(48.846 0 51.4137)
(49.9604 0 27.4399)
(48.0735 0 12.2229)
(44.8548 0 3.88517)
(41.3251 0 0.0335073)
(38.0425 0 -1.35468)
(35.2558 0 -1.66688)
(33.0412 0 -1.70211)
(31.3756 0 -1.86272)
(30.1557 0 -2.38033)
(29.2107 0 -3.52256)
(28.3485 0 -5.71308)
(62.5447 0 45.7786)
(66.3927 0 26.6852)
(66.1577 0 14.1626)
(63.828 0 6.98032)
(60.7418 0 3.34045)
(57.6812 0 1.66147)
(55.0343 0 0.840971)
(52.944 0 0.247654)
(51.4072 0 -0.411149)
(50.3047 0 -1.27476)
(49.407 0 -2.54962)
(48.4405 0 -4.64832)
(68.8349 0 37.3054)
(74.7115 0 23.9296)
(75.9724 0 14.8587)
(74.6872 0 9.34952)
(72.3401 0 6.21342)
(69.8297 0 4.37693)
(67.6138 0 3.09107)
(65.8713 0 1.9469)
(64.6221 0 0.798477)
(63.7517 0 -0.358291)
(62.9829 0 -1.62615)
(61.9701 0 -3.408)
(65.1832 0 26.6467)
(71.8541 0 19.1269)
(74.2387 0 13.8059)
(74.1783 0 10.2871)
(73.006 0 7.93854)
(71.5174 0 6.18987)
(70.0993 0 4.64538)
(68.889 0 3.10549)
(67.9074 0 1.56267)
(67.0812 0 0.189149)
(66.2049 0 -0.927459)
(64.9911 0 -2.17241)
(38.7008 0 23.449)
(49.1657 0 20.1489)
(55.4513 0 17.1434)
(58.8611 0 14.5425)
(60.5504 0 12.2918)
(61.3142 0 10.2878)
(61.5861 0 8.43186)
(61.5365 0 6.65274)
(61.1919 0 4.91884)
(60.5609 0 3.26653)
(59.6795 0 1.86067)
(58.7024 0 0.810829)
(57.7159 0 -0.0931274)
(19.5702 0 8.83189)
(26.9825 0 8.33002)
(33.3202 0 7.65166)
(38.7176 0 6.877)
(43.2964 0 6.06883)
(47.1487 0 5.26218)
(50.3306 0 4.46616)
(52.8666 0 3.66907)
(54.7545 0 2.84737)
(55.9764 0 2.00149)
(56.5119 0 1.23014)
(56.4809 0 0.609219)
(56.0381 0 0.0381929)
(16.9755 0 4.02916)
(24.0651 0 3.94674)
(30.4218 0 3.83455)
(36.002 0 3.70165)
(40.8148 0 3.55574)
(44.8939 0 3.40086)
(48.2774 0 3.2373)
(50.997 0 3.06211)
(53.0721 0 2.87071)
(54.5156 0 2.66231)
(55.3716 0 2.44423)
(55.7462 0 2.20994)
(55.7154 0 1.93145)
)
;

boundaryField
{
    top
    {
        type            directionMixed;
        refValue        uniform (0 0 0);
        refGradient     uniform (0 0 0);
        valueFraction   uniform (0 0 0 0 0 1);
        value           nonuniform List<vector> 
13
(
(16.9755 0 0)
(24.0651 0 0)
(30.4218 0 0)
(36.002 0 0)
(40.8148 0 0)
(44.8939 0 0)
(48.2774 0 0)
(50.997 0 0)
(53.0721 0 0)
(54.5156 0 0)
(55.3716 0 0)
(55.7462 0 0)
(55.7154 0 0)
)
;
    }
    bottom
    {
        type            fixedValue;
        value           uniform (0 0 0);
    }
    frontAndBack
    {
        type            empty;
    }
    left_cyc
    {
        type            cyclic;
    }
    right_cyc
    {
        type            cyclic;
    }
    procBoundary1to0
    {
        type            processor;
        value           nonuniform List<vector> 
16
(
(-53.0486 0 4.84869)
(-80.1943 0 22.0097)
(-75.9113 0 44.8568)
(-58.1884 0 64.3887)
(-35.7306 0 79.7151)
(-12.6121 0 89.6416)
(8.99899 0 93.6474)
(27.6648 0 91.5692)
(42.3329 0 83.6315)
(52.1349 0 70.6609)
(56.0093 0 54.2984)
(52.23 0 35.9935)
(52.23 0 35.9935)
(23.2612 0 26.5766)
(11.0302 0 9.09965)
(9.28583 0 4.07553)
)
;
    }
    procBoundary1to2
    {
        type            processor;
        value           nonuniform List<vector> 
16
(
(-59.8704 0 3.48174)
(-79.4095 0 3.96283)
(-71.2016 0 -0.105276)
(-60.1562 0 -5.56822)
(-48.2838 0 -10.5217)
(-33.74 0 -14.0903)
(-15.8129 0 -15.9281)
(4.7875 0 -16.2307)
(27.3932 0 -9.48556)
(27.3932 0 -9.48556)
(47.1409 0 -8.09019)
(60.3721 0 -6.20359)
(63.0613 0 -4.05686)
(56.4142 0 -1.04037)
(55.1909 0 -0.551654)
(55.2991 0 1.60448)
)
;
    }
}


// ************************************************************************* //
