/*--------------------------------*- C++ -*----------------------------------*\
| =========                 |                                                 |
| \\      /  F ield         | OpenFOAM: The Open Source CFD Toolbox           |
|  \\    /   O peration     | Version:  2.3.0                                 |
|   \\  /    A nd           | Web:      www.OpenFOAM.org                      |
|    \\/     M anipulation  |                                                 |
\*---------------------------------------------------------------------------*/
FoamFile
{
    version     2.0;
    format      ascii;
    class       volScalarField;
    location    "2000";
    object      NUEff;
}
// * * * * * * * * * * * * * * * * * * * * * * * * * * * * * * * * * * * * * //

dimensions      [0 2 -1 0 0 0 0];

internalField   nonuniform List<scalar> 
3060
(
0.154158
0.154155
0.154149
0.154141
0.154131
0.154118
0.154103
0.154087
0.154069
0.15405
0.15403
0.15401
0.15399
0.153971
0.153952
0.153934
0.153917
0.153901
0.153887
0.153874
0.153863
0.153853
0.153845
0.153839
0.153836
0.153834
0.153834
0.153836
0.15384
0.153846
0.153853
0.153862
0.153872
0.153883
0.153895
0.153909
0.153922
0.153937
0.153952
0.153967
0.153982
0.153996
0.15401
0.154023
0.154035
0.154046
0.154055
0.154062
0.154068
0.154071
0.154073
0.154073
0.154071
0.154067
0.154061
0.154053
0.154043
0.154032
0.15402
0.154007
0.153993
0.153978
0.153963
0.153948
0.153933
0.153919
0.153905
0.153892
0.15388
0.153869
0.153859
0.153851
0.153844
0.153839
0.153835
0.153834
0.153834
0.153837
0.153841
0.153847
0.153855
0.153865
0.153877
0.15389
0.153905
0.153921
0.153938
0.153956
0.153975
0.153995
0.154015
0.154035
0.154055
0.154074
0.154091
0.154107
0.154121
0.154133
0.154143
0.154151
0.154156
0.154158
0.168673
0.168658
0.168632
0.168593
0.168543
0.168483
0.168413
0.168335
0.168251
0.168161
0.168068
0.167973
0.167878
0.167786
0.167697
0.167613
0.167533
0.167459
0.167391
0.16733
0.167278
0.167233
0.167197
0.16717
0.167152
0.167144
0.167144
0.167154
0.167172
0.167199
0.167233
0.167274
0.167322
0.167375
0.167433
0.167495
0.16756
0.167628
0.167697
0.167768
0.167839
0.167908
0.167974
0.168036
0.168092
0.168142
0.168184
0.168219
0.168245
0.168263
0.168271
0.168269
0.168259
0.168239
0.168211
0.168174
0.168129
0.168078
0.16802
0.167957
0.16789
0.16782
0.167749
0.167679
0.16761
0.167543
0.167478
0.167417
0.16736
0.167309
0.167263
0.167223
0.167191
0.167167
0.167151
0.167143
0.167145
0.167156
0.167176
0.167206
0.167244
0.167291
0.167346
0.167408
0.167477
0.167553
0.167634
0.16772
0.167809
0.167902
0.167997
0.168092
0.168184
0.168273
0.168356
0.168431
0.168499
0.168557
0.168604
0.16864
0.168663
0.168674
0.193394
0.193351
0.193271
0.193154
0.193004
0.192824
0.192615
0.192384
0.192133
0.191867
0.191591
0.191311
0.191032
0.190759
0.190497
0.190248
0.190014
0.189796
0.189598
0.189421
0.189266
0.189136
0.189032
0.188954
0.188902
0.188877
0.188879
0.188908
0.188961
0.189038
0.189138
0.189258
0.189397
0.189553
0.189723
0.189905
0.190097
0.190296
0.190501
0.190709
0.190917
0.19112
0.191314
0.191496
0.191662
0.191809
0.191935
0.192038
0.192116
0.192167
0.192191
0.192187
0.192156
0.192097
0.192013
0.191904
0.191772
0.191619
0.191449
0.191264
0.191067
0.190862
0.190654
0.190447
0.190243
0.190046
0.189857
0.189678
0.189511
0.18936
0.189225
0.18911
0.189016
0.188945
0.188898
0.188877
0.188882
0.188914
0.188972
0.189057
0.189168
0.189305
0.189465
0.189647
0.189851
0.190073
0.190311
0.190564
0.190828
0.191103
0.191383
0.191662
0.191936
0.192198
0.192445
0.192671
0.192872
0.193046
0.193187
0.193295
0.193366
0.193399
0.243504
0.24337
0.24312
0.24276
0.242297
0.241741
0.241102
0.240393
0.239629
0.238824
0.237992
0.23715
0.236314
0.235499
0.234718
0.233977
0.233282
0.232641
0.232057
0.231538
0.231088
0.230709
0.230406
0.230179
0.23003
0.22996
0.229966
0.230048
0.230203
0.230428
0.230719
0.23107
0.231477
0.231934
0.232435
0.232972
0.233539
0.23413
0.234737
0.235356
0.235974
0.236578
0.237158
0.237702
0.238201
0.238644
0.239025
0.239336
0.239571
0.239727
0.2398
0.239788
0.239693
0.239516
0.23926
0.238929
0.238531
0.238072
0.237561
0.237006
0.236419
0.23581
0.235191
0.234575
0.233972
0.233387
0.232827
0.2323
0.23181
0.231366
0.230974
0.230638
0.230364
0.230158
0.230021
0.229959
0.229973
0.230064
0.230233
0.230479
0.230802
0.231199
0.231668
0.232203
0.232802
0.233457
0.234164
0.234915
0.235705
0.236527
0.237366
0.238206
0.239032
0.239829
0.24058
0.241272
0.241891
0.242425
0.242862
0.243195
0.243415
0.243519
0.375913
0.375417
0.374495
0.373167
0.371462
0.369418
0.367081
0.364498
0.361723
0.358813
0.355822
0.352809
0.349827
0.346932
0.344164
0.34155
0.339111
0.336868
0.334841
0.333044
0.33149
0.330191
0.329152
0.328378
0.327871
0.327631
0.327653
0.327934
0.328465
0.329235
0.330232
0.331441
0.332847
0.334429
0.336168
0.338043
0.34003
0.342105
0.344245
0.346427
0.348611
0.350755
0.352817
0.35476
0.356545
0.358138
0.359509
0.360631
0.361482
0.362045
0.362309
0.362268
0.361923
0.361281
0.360356
0.359165
0.357732
0.356084
0.354254
0.352277
0.350189
0.348032
0.345846
0.343674
0.341549
0.339496
0.337538
0.335698
0.334
0.332463
0.331109
0.329955
0.329017
0.328309
0.327843
0.32763
0.327675
0.327985
0.328561
0.329403
0.330509
0.331875
0.333491
0.335347
0.33743
0.339724
0.342208
0.344862
0.347662
0.350585
0.353579
0.356591
0.359566
0.362447
0.365177
0.367702
0.369969
0.37193
0.373543
0.37477
0.375585
0.37597
0.671478
0.670722
0.669307
0.667246
0.664562
0.661287
0.657462
0.653136
0.648367
0.643226
0.637792
0.632152
0.626404
0.620653
0.614997
0.609511
0.604269
0.599343
0.594803
0.590711
0.587121
0.58408
0.581625
0.579783
0.57857
0.577993
0.578049
0.578723
0.579994
0.581827
0.584184
0.587015
0.590268
0.593883
0.597798
0.601949
0.60627
0.610696
0.615165
0.619619
0.623978
0.628168
0.632117
0.635765
0.639057
0.64195
0.644403
0.646387
0.647878
0.648857
0.649314
0.649243
0.648645
0.647527
0.645902
0.643789
0.641215
0.638212
0.634821
0.631088
0.627071
0.622831
0.618441
0.61398
0.609519
0.605117
0.600838
0.596746
0.592906
0.589384
0.586239
0.58353
0.581309
0.579621
0.578505
0.577992
0.5781
0.578843
0.580219
0.582221
0.584829
0.588014
0.591736
0.595946
0.600588
0.605598
0.610906
0.616439
0.622122
0.627881
0.63361
0.639205
0.644571
0.649623
0.654284
0.658488
0.662176
0.665304
0.667832
0.66973
0.670979
0.671565
0.845082
0.844784
0.844224
0.843406
0.842338
0.841028
0.83949
0.837738
0.835791
0.833672
0.831408
0.829029
0.826571
0.824074
0.821578
0.819118
0.816731
0.814454
0.812325
0.810379
0.808652
0.807172
0.805966
0.805054
0.804451
0.804163
0.80419
0.804526
0.805157
0.806063
0.807219
0.808596
0.810163
0.811885
0.813728
0.815658
0.817641
0.819646
0.821643
0.823605
0.825502
0.827305
0.828987
0.830528
0.831908
0.833112
0.834128
0.834946
0.835558
0.83596
0.836147
0.836117
0.835873
0.835414
0.834746
0.833874
0.832807
0.831554
0.83013
0.828551
0.826834
0.825005
0.823088
0.821116
0.819115
0.817115
0.815144
0.813235
0.811422
0.809739
0.80822
0.806899
0.805807
0.804972
0.804417
0.804162
0.804216
0.804587
0.805271
0.80626
0.807538
0.809083
0.810869
0.812864
0.815033
0.81734
0.819748
0.822218
0.824716
0.827207
0.829648
0.832
0.834229
0.836306
0.838205
0.839903
0.841385
0.842634
0.843639
0.844391
0.844885
0.845117
0.907311
0.907172
0.906913
0.906534
0.906041
0.905438
0.904731
0.903929
0.90304
0.902076
0.90105
0.899975
0.898868
0.897746
0.896628
0.895529
0.894465
0.893453
0.892509
0.891648
0.890886
0.890234
0.889703
0.889303
0.889037
0.888911
0.888922
0.889069
0.889345
0.889743
0.890251
0.890857
0.891548
0.892309
0.893125
0.893982
0.894864
0.895758
0.896649
0.897527
0.898377
0.899186
0.899943
0.900638
0.901261
0.901807
0.902268
0.90264
0.902918
0.903101
0.903186
0.903173
0.903062
0.902853
0.902549
0.902153
0.901668
0.901102
0.900458
0.899746
0.898974
0.898154
0.897295
0.896414
0.895521
0.894629
0.893753
0.892906
0.892104
0.89136
0.890691
0.89011
0.88963
0.889264
0.889021
0.88891
0.888934
0.889097
0.889398
0.889833
0.890395
0.891076
0.891865
0.892748
0.89371
0.894736
0.89581
0.896915
0.898035
0.899154
0.900255
0.901318
0.90233
0.903275
0.904143
0.904921
0.905602
0.906178
0.906642
0.90699
0.907219
0.907326
0.936259
0.936179
0.93603
0.935813
0.93553
0.935185
0.934781
0.934323
0.933818
0.933271
0.932691
0.932084
0.931461
0.930831
0.930204
0.929589
0.928996
0.928433
0.927908
0.927432
0.92701
0.92665
0.926358
0.926137
0.925991
0.925921
0.925927
0.926007
0.926158
0.926377
0.926656
0.92699
0.927372
0.927793
0.928246
0.928722
0.929214
0.929712
0.930211
0.930701
0.931178
0.931632
0.932058
0.932449
0.932801
0.93311
0.933371
0.933581
0.93374
0.933843
0.933892
0.933884
0.933821
0.933702
0.93353
0.933305
0.933031
0.932711
0.932348
0.931947
0.931513
0.931053
0.930572
0.930079
0.92958
0.929083
0.928595
0.928125
0.92768
0.927269
0.926899
0.926579
0.926315
0.926114
0.925981
0.92592
0.925934
0.926024
0.926189
0.926429
0.926739
0.927115
0.927552
0.928041
0.928576
0.929147
0.929747
0.930365
0.930993
0.931622
0.932242
0.932842
0.933415
0.933951
0.934445
0.934889
0.935278
0.935608
0.935875
0.936075
0.936206
0.936268
0.952666
0.952614
0.952516
0.952374
0.95219
0.951965
0.951702
0.951404
0.951076
0.950722
0.950346
0.949955
0.949553
0.949147
0.948743
0.948348
0.947967
0.947606
0.947271
0.946966
0.946697
0.946468
0.946281
0.946141
0.946048
0.946003
0.946007
0.946057
0.946153
0.946292
0.94647
0.946682
0.946925
0.947194
0.947484
0.947788
0.948103
0.948423
0.948743
0.949059
0.949365
0.949658
0.949932
0.950185
0.950412
0.950612
0.95078
0.950917
0.951019
0.951087
0.951118
0.951113
0.951072
0.950995
0.950884
0.950738
0.950561
0.950354
0.950119
0.949861
0.949581
0.949285
0.948976
0.948659
0.948338
0.948019
0.947707
0.947406
0.947122
0.946859
0.946624
0.94642
0.946253
0.946125
0.946041
0.946002
0.946011
0.946069
0.946174
0.946327
0.946525
0.946764
0.947043
0.947356
0.947698
0.948065
0.948449
0.948847
0.949251
0.949657
0.950056
0.950444
0.950815
0.951163
0.951483
0.951772
0.952026
0.952241
0.952415
0.952545
0.952631
0.952672
0.963166
0.96313
0.963061
0.96296
0.96283
0.962671
0.962486
0.962276
0.962045
0.961796
0.961532
0.961257
0.960976
0.960691
0.960409
0.960133
0.959866
0.959614
0.95938
0.959168
0.958981
0.958821
0.958691
0.958594
0.958529
0.958497
0.9585
0.958535
0.958601
0.958697
0.95882
0.958968
0.959137
0.959324
0.959526
0.959739
0.959959
0.960182
0.960406
0.960627
0.960841
0.961046
0.961238
0.961415
0.961574
0.961714
0.961833
0.961929
0.962001
0.962048
0.96207
0.962067
0.962038
0.961984
0.961906
0.961803
0.961679
0.961533
0.961369
0.961188
0.960992
0.960784
0.960568
0.960347
0.960123
0.9599
0.959682
0.959472
0.959274
0.959091
0.958928
0.958786
0.95867
0.958582
0.958523
0.958497
0.958503
0.958543
0.958617
0.958723
0.95886
0.959027
0.959221
0.95944
0.959678
0.959934
0.960203
0.960481
0.960765
0.961048
0.961329
0.961601
0.961861
0.962106
0.962332
0.962535
0.962714
0.962866
0.962989
0.963081
0.963142
0.963171
0.970445
0.970418
0.970367
0.970292
0.970195
0.970077
0.969939
0.969784
0.969612
0.969428
0.969232
0.969029
0.968821
0.96861
0.968402
0.968198
0.968001
0.967815
0.967643
0.967486
0.967348
0.967231
0.967135
0.967063
0.967015
0.966992
0.966994
0.967019
0.967068
0.967138
0.967229
0.967337
0.967462
0.9676
0.967748
0.967905
0.968067
0.968232
0.968397
0.96856
0.968718
0.96887
0.969012
0.969143
0.969261
0.969364
0.969452
0.969523
0.969577
0.969612
0.969628
0.969626
0.969604
0.969564
0.969506
0.96943
0.969338
0.96923
0.969109
0.968975
0.96883
0.968677
0.968517
0.968353
0.968188
0.968024
0.967863
0.967708
0.967562
0.967428
0.967308
0.967204
0.967118
0.967054
0.967011
0.966992
0.966997
0.967026
0.96708
0.967158
0.96726
0.967383
0.967526
0.967686
0.967862
0.968051
0.96825
0.968455
0.968665
0.968875
0.969082
0.969283
0.969476
0.969658
0.969825
0.969976
0.970109
0.970222
0.970313
0.970382
0.970427
0.970448
0.975782
0.97576
0.975721
0.975663
0.975589
0.975498
0.975392
0.975272
0.975141
0.974999
0.974849
0.974693
0.974533
0.974372
0.974212
0.974056
0.973905
0.973763
0.973631
0.973511
0.973406
0.973316
0.973243
0.973188
0.973151
0.973133
0.973134
0.973154
0.973191
0.973245
0.973314
0.973396
0.973491
0.973597
0.97371
0.97383
0.973954
0.974081
0.974207
0.974332
0.974453
0.974569
0.974678
0.974778
0.974869
0.974948
0.975016
0.97507
0.975111
0.975138
0.975151
0.975149
0.975132
0.975102
0.975057
0.974999
0.974928
0.974846
0.974752
0.97465
0.974539
0.974421
0.974299
0.974174
0.974047
0.973921
0.973798
0.97368
0.973568
0.973466
0.973374
0.973294
0.973229
0.97318
0.973148
0.973133
0.973137
0.973159
0.973201
0.973261
0.973338
0.973432
0.973541
0.973664
0.973799
0.973944
0.974096
0.974253
0.974414
0.974575
0.974734
0.974888
0.975036
0.975175
0.975304
0.97542
0.975523
0.975609
0.97568
0.975733
0.975768
0.975784
0.979859
0.979842
0.979811
0.979765
0.979707
0.979635
0.979551
0.979457
0.979354
0.979242
0.979124
0.979001
0.978876
0.978749
0.978624
0.978501
0.978382
0.97827
0.978167
0.978073
0.97799
0.977919
0.977862
0.977819
0.97779
0.977776
0.977777
0.977792
0.977821
0.977863
0.977917
0.977982
0.978056
0.978139
0.978228
0.978322
0.97842
0.978519
0.978618
0.978716
0.978811
0.978903
0.978988
0.979067
0.979138
0.979201
0.979254
0.979297
0.979329
0.97935
0.97936
0.979358
0.979345
0.979321
0.979286
0.97924
0.979185
0.97912
0.979047
0.978966
0.978879
0.978786
0.97869
0.978592
0.978492
0.978394
0.978297
0.978204
0.978117
0.978036
0.977964
0.977902
0.977851
0.977812
0.977787
0.977776
0.977779
0.977797
0.977829
0.977876
0.977937
0.978011
0.978097
0.978193
0.978299
0.978413
0.978532
0.978656
0.978782
0.978908
0.979033
0.979155
0.979271
0.979381
0.979482
0.979574
0.979654
0.979723
0.979778
0.97982
0.979848
0.979861
0.983074
0.983061
0.983036
0.982999
0.982952
0.982895
0.982828
0.982752
0.982669
0.98258
0.982486
0.982388
0.982287
0.982186
0.982085
0.981987
0.981892
0.981803
0.98172
0.981645
0.981579
0.981522
0.981476
0.981442
0.981419
0.981408
0.981408
0.98142
0.981443
0.981477
0.98152
0.981571
0.981631
0.981697
0.981768
0.981843
0.981921
0.982001
0.98208
0.982158
0.982235
0.982307
0.982376
0.982439
0.982496
0.982546
0.982588
0.982623
0.982648
0.982665
0.982673
0.982672
0.982662
0.982642
0.982614
0.982578
0.982533
0.982481
0.982423
0.982358
0.982288
0.982215
0.982138
0.982059
0.981979
0.9819
0.981823
0.981749
0.981679
0.981615
0.981557
0.981508
0.981467
0.981436
0.981416
0.981407
0.98141
0.981424
0.98145
0.981488
0.981536
0.981595
0.981664
0.981741
0.981826
0.981916
0.982012
0.982111
0.982212
0.982313
0.982413
0.98251
0.982604
0.982691
0.982772
0.982846
0.98291
0.982965
0.98301
0.983043
0.983065
0.983076
0.985675
0.985664
0.985644
0.985614
0.985576
0.985529
0.985475
0.985414
0.985347
0.985274
0.985198
0.985118
0.985037
0.984955
0.984873
0.984794
0.984717
0.984645
0.984578
0.984517
0.984463
0.984418
0.984381
0.984353
0.984334
0.984325
0.984325
0.984335
0.984353
0.98438
0.984415
0.984457
0.984505
0.984558
0.984616
0.984677
0.98474
0.984804
0.984868
0.984932
0.984994
0.985053
0.985108
0.985159
0.985205
0.985246
0.98528
0.985308
0.985329
0.985342
0.985349
0.985348
0.985339
0.985324
0.985301
0.985271
0.985235
0.985193
0.985146
0.985093
0.985037
0.984977
0.984915
0.984851
0.984787
0.984723
0.984661
0.9846
0.984544
0.984492
0.984446
0.984406
0.984373
0.984348
0.984332
0.984324
0.984327
0.984338
0.984359
0.98439
0.984429
0.984477
0.984532
0.984595
0.984663
0.984737
0.984814
0.984894
0.984976
0.985058
0.985139
0.985218
0.985293
0.985364
0.98543
0.98549
0.985542
0.985586
0.985623
0.98565
0.985668
0.985676
0.987821
0.987813
0.987796
0.987772
0.98774
0.987702
0.987658
0.987608
0.987553
0.987494
0.987432
0.987367
0.9873
0.987233
0.987167
0.987102
0.987039
0.98698
0.986925
0.986876
0.986832
0.986795
0.986765
0.986742
0.986727
0.986719
0.986719
0.986727
0.986742
0.986764
0.986793
0.986827
0.986866
0.986909
0.986956
0.987006
0.987057
0.98711
0.987162
0.987214
0.987264
0.987313
0.987358
0.987399
0.987437
0.98747
0.987498
0.987521
0.987538
0.987549
0.987554
0.987554
0.987547
0.987534
0.987515
0.987491
0.987462
0.987427
0.987389
0.987346
0.9873
0.987251
0.9872
0.987148
0.987096
0.987044
0.986993
0.986944
0.986897
0.986855
0.986817
0.986785
0.986758
0.986738
0.986725
0.986719
0.98672
0.98673
0.986747
0.986772
0.986804
0.986843
0.986888
0.986939
0.986995
0.987055
0.987119
0.987184
0.987251
0.987318
0.987384
0.987448
0.98751
0.987568
0.987621
0.98767
0.987713
0.987749
0.987779
0.987801
0.987816
0.987822
0.989623
0.989616
0.989602
0.989583
0.989557
0.989526
0.989489
0.989448
0.989403
0.989355
0.989303
0.98925
0.989196
0.989141
0.989086
0.989033
0.988982
0.988933
0.988888
0.988848
0.988812
0.988781
0.988756
0.988738
0.988725
0.988719
0.988719
0.988726
0.988738
0.988756
0.988779
0.988807
0.988839
0.988875
0.988913
0.988954
0.988996
0.989039
0.989082
0.989125
0.989166
0.989205
0.989242
0.989277
0.989307
0.989335
0.989358
0.989376
0.98939
0.989399
0.989404
0.989403
0.989397
0.989387
0.989372
0.989352
0.989328
0.9893
0.989268
0.989233
0.989195
0.989155
0.989114
0.989071
0.989028
0.988985
0.988943
0.988903
0.988865
0.98883
0.988799
0.988773
0.988751
0.988734
0.988723
0.988719
0.98872
0.988728
0.988742
0.988762
0.988789
0.988821
0.988858
0.9889
0.988946
0.988995
0.989047
0.9891
0.989155
0.98921
0.989264
0.989317
0.989367
0.989415
0.989459
0.989499
0.989534
0.989564
0.989588
0.989607
0.989619
0.989624
0.991158
0.991152
0.99114
0.991124
0.991103
0.991077
0.991047
0.991014
0.990977
0.990937
0.990895
0.990851
0.990806
0.990761
0.990716
0.990673
0.99063
0.990591
0.990554
0.99052
0.990491
0.990466
0.990445
0.99043
0.990419
0.990414
0.990414
0.99042
0.99043
0.990445
0.990464
0.990487
0.990513
0.990542
0.990574
0.990607
0.990642
0.990677
0.990713
0.990748
0.990782
0.990814
0.990844
0.990872
0.990898
0.99092
0.990939
0.990954
0.990966
0.990973
0.990977
0.990976
0.990972
0.990963
0.99095
0.990934
0.990914
0.990891
0.990865
0.990836
0.990805
0.990773
0.990738
0.990703
0.990668
0.990633
0.990598
0.990565
0.990534
0.990506
0.99048
0.990458
0.99044
0.990427
0.990418
0.990414
0.990415
0.990422
0.990433
0.99045
0.990472
0.990498
0.990529
0.990563
0.990601
0.990641
0.990684
0.990728
0.990773
0.990818
0.990862
0.990906
0.990947
0.990986
0.991023
0.991055
0.991084
0.991109
0.991129
0.991144
0.991154
0.991158
0.99248
0.992475
0.992466
0.992452
0.992435
0.992414
0.992389
0.992362
0.992331
0.992299
0.992264
0.992228
0.992192
0.992155
0.992118
0.992082
0.992047
0.992014
0.991984
0.991957
0.991932
0.991912
0.991895
0.991882
0.991874
0.99187
0.99187
0.991874
0.991882
0.991894
0.99191
0.991929
0.991951
0.991975
0.992001
0.992028
0.992057
0.992086
0.992115
0.992143
0.992171
0.992198
0.992223
0.992246
0.992266
0.992285
0.9923
0.992313
0.992322
0.992328
0.992331
0.992331
0.992327
0.99232
0.99231
0.992296
0.99228
0.992261
0.99224
0.992216
0.992191
0.992164
0.992136
0.992107
0.992078
0.992049
0.992021
0.991994
0.991968
0.991945
0.991924
0.991906
0.991891
0.99188
0.991873
0.991869
0.99187
0.991876
0.991885
0.991899
0.991917
0.991938
0.991964
0.991992
0.992023
0.992056
0.992091
0.992127
0.992164
0.992201
0.992238
0.992273
0.992307
0.992339
0.992369
0.992396
0.99242
0.99244
0.992456
0.992469
0.992477
0.992481
0.993632
0.993628
0.99362
0.993609
0.993595
0.993578
0.993557
0.993535
0.99351
0.993483
0.993455
0.993426
0.993396
0.993366
0.993335
0.993306
0.993278
0.993251
0.993226
0.993204
0.993184
0.993167
0.993153
0.993143
0.993136
0.993132
0.993132
0.993136
0.993143
0.993153
0.993165
0.993181
0.993198
0.993218
0.993239
0.993262
0.993285
0.993309
0.993333
0.993356
0.993379
0.993401
0.993421
0.99344
0.993457
0.993472
0.993484
0.993495
0.993502
0.993507
0.99351
0.993509
0.993506
0.9935
0.993492
0.993481
0.993468
0.993452
0.993435
0.993416
0.993395
0.993373
0.99335
0.993327
0.993303
0.993279
0.993256
0.993234
0.993213
0.993194
0.993177
0.993162
0.99315
0.993141
0.993135
0.993132
0.993133
0.993137
0.993145
0.993156
0.993171
0.993189
0.993209
0.993232
0.993258
0.993285
0.993314
0.993343
0.993373
0.993404
0.993433
0.993463
0.99349
0.993517
0.993541
0.993563
0.993582
0.993599
0.993612
0.993622
0.993629
0.993632
0.994644
0.994641
0.994634
0.994626
0.994614
0.9946
0.994584
0.994565
0.994545
0.994523
0.994501
0.994477
0.994452
0.994428
0.994403
0.994379
0.994356
0.994335
0.994314
0.994296
0.99428
0.994266
0.994255
0.994247
0.994241
0.994238
0.994238
0.994241
0.994247
0.994255
0.994265
0.994278
0.994292
0.994308
0.994325
0.994344
0.994362
0.994382
0.994401
0.99442
0.994439
0.994456
0.994473
0.994488
0.994502
0.994514
0.994524
0.994532
0.994539
0.994543
0.994545
0.994544
0.994542
0.994537
0.99453
0.994522
0.994511
0.994498
0.994484
0.994468
0.994452
0.994434
0.994415
0.994396
0.994377
0.994357
0.994339
0.994321
0.994304
0.994288
0.994274
0.994262
0.994252
0.994245
0.99424
0.994238
0.994239
0.994242
0.994249
0.994258
0.99427
0.994284
0.994301
0.99432
0.99434
0.994362
0.994386
0.99441
0.994434
0.994459
0.994483
0.994507
0.994529
0.99455
0.99457
0.994588
0.994604
0.994617
0.994628
0.994636
0.994642
0.994644
0.995541
0.995538
0.995533
0.995526
0.995517
0.995506
0.995492
0.995478
0.995461
0.995444
0.995426
0.995407
0.995387
0.995367
0.995348
0.995328
0.99531
0.995292
0.995276
0.995261
0.995248
0.995237
0.995228
0.995221
0.995217
0.995215
0.995215
0.995217
0.995221
0.995228
0.995236
0.995246
0.995258
0.995271
0.995285
0.995299
0.995315
0.99533
0.995346
0.995361
0.995376
0.99539
0.995403
0.995416
0.995427
0.995436
0.995444
0.995451
0.995456
0.99546
0.995461
0.995461
0.995459
0.995455
0.99545
0.995442
0.995434
0.995424
0.995412
0.9954
0.995386
0.995372
0.995357
0.995342
0.995326
0.995311
0.995295
0.995281
0.995267
0.995255
0.995243
0.995234
0.995226
0.99522
0.995216
0.995214
0.995215
0.995218
0.995223
0.99523
0.99524
0.995251
0.995265
0.99528
0.995297
0.995315
0.995333
0.995353
0.995372
0.995392
0.995412
0.995431
0.995449
0.995466
0.995482
0.995496
0.995509
0.995519
0.995528
0.995535
0.995539
0.995541
0.996341
0.996339
0.996335
0.99633
0.996322
0.996313
0.996303
0.996291
0.996279
0.996265
0.99625
0.996235
0.99622
0.996204
0.996188
0.996173
0.996158
0.996144
0.996132
0.99612
0.99611
0.996101
0.996094
0.996088
0.996085
0.996083
0.996083
0.996085
0.996088
0.996093
0.9961
0.996108
0.996117
0.996127
0.996138
0.99615
0.996162
0.996175
0.996187
0.996199
0.996211
0.996222
0.996232
0.996242
0.996251
0.996259
0.996265
0.99627
0.996274
0.996277
0.996278
0.996278
0.996276
0.996273
0.996269
0.996263
0.996257
0.996249
0.99624
0.99623
0.996219
0.996208
0.996196
0.996184
0.996171
0.996159
0.996147
0.996135
0.996125
0.996115
0.996106
0.996098
0.996092
0.996087
0.996084
0.996083
0.996083
0.996085
0.996089
0.996095
0.996103
0.996112
0.996123
0.996135
0.996148
0.996162
0.996177
0.996192
0.996208
0.996224
0.996239
0.996254
0.996268
0.996282
0.996294
0.996306
0.996316
0.996324
0.996331
0.996337
0.99634
0.996342
0.99706
0.997059
0.997056
0.997051
0.997046
0.997039
0.997031
0.997022
0.997012
0.997001
0.99699
0.996978
0.996966
0.996954
0.996942
0.99693
0.996919
0.996908
0.996898
0.996889
0.996881
0.996874
0.996868
0.996864
0.996861
0.99686
0.99686
0.996861
0.996864
0.996868
0.996873
0.996879
0.996887
0.996895
0.996903
0.996912
0.996922
0.996931
0.996941
0.99695
0.996959
0.996968
0.996976
0.996984
0.99699
0.996996
0.997001
0.997005
0.997008
0.99701
0.997011
0.997011
0.99701
0.997008
0.997004
0.997
0.996995
0.996989
0.996982
0.996974
0.996966
0.996957
0.996948
0.996938
0.996929
0.996919
0.99691
0.996901
0.996892
0.996885
0.996878
0.996872
0.996867
0.996863
0.996861
0.99686
0.99686
0.996862
0.996865
0.99687
0.996876
0.996883
0.996891
0.9969
0.996911
0.996922
0.996933
0.996945
0.996957
0.996969
0.996981
0.996993
0.997004
0.997014
0.997024
0.997033
0.997041
0.997047
0.997053
0.997057
0.997059
0.997061
0.99771
0.997709
0.997707
0.997703
0.997699
0.997694
0.997688
0.997681
0.997674
0.997666
0.997657
0.997648
0.997639
0.99763
0.997621
0.997612
0.997604
0.997596
0.997588
0.997581
0.997575
0.99757
0.997566
0.997563
0.99756
0.997559
0.997559
0.99756
0.997563
0.997566
0.997569
0.997574
0.99758
0.997585
0.997592
0.997599
0.997606
0.997613
0.99762
0.997627
0.997634
0.997641
0.997647
0.997652
0.997657
0.997662
0.997666
0.997669
0.997671
0.997673
0.997673
0.997673
0.997672
0.99767
0.997668
0.997665
0.997661
0.997656
0.997651
0.997645
0.997639
0.997632
0.997626
0.997618
0.997611
0.997604
0.997597
0.99759
0.997584
0.997578
0.997573
0.997568
0.997565
0.997562
0.99756
0.997559
0.99756
0.997561
0.997563
0.997567
0.997571
0.997577
0.997583
0.99759
0.997598
0.997606
0.997615
0.997624
0.997633
0.997642
0.997651
0.997659
0.997668
0.997676
0.997683
0.997689
0.997695
0.9977
0.997704
0.997707
0.997709
0.99771
0.9983
0.998299
0.998298
0.998295
0.998292
0.998288
0.998284
0.998279
0.998274
0.998268
0.998262
0.998256
0.99825
0.998243
0.998237
0.99823
0.998224
0.998218
0.998213
0.998208
0.998204
0.9982
0.998197
0.998195
0.998193
0.998192
0.998192
0.998193
0.998195
0.998197
0.9982
0.998203
0.998207
0.998211
0.998216
0.998221
0.998226
0.998231
0.998236
0.998241
0.998246
0.998251
0.998255
0.998259
0.998263
0.998266
0.998268
0.998271
0.998272
0.998273
0.998274
0.998274
0.998273
0.998272
0.99827
0.998268
0.998265
0.998262
0.998258
0.998254
0.998249
0.998245
0.99824
0.998235
0.99823
0.998224
0.998219
0.998214
0.99821
0.998206
0.998202
0.998199
0.998196
0.998194
0.998193
0.998192
0.998192
0.998193
0.998195
0.998198
0.998201
0.998205
0.998209
0.998214
0.99822
0.998226
0.998232
0.998238
0.998245
0.998251
0.998258
0.998264
0.99827
0.998275
0.998281
0.998285
0.998289
0.998293
0.998296
0.998298
0.998299
0.9983
0.998838
0.998838
0.998837
0.998835
0.998833
0.998831
0.998828
0.998825
0.998821
0.998818
0.998814
0.99881
0.998805
0.998801
0.998797
0.998793
0.998789
0.998785
0.998781
0.998778
0.998775
0.998773
0.998771
0.998769
0.998768
0.998768
0.998768
0.998768
0.998769
0.998771
0.998772
0.998775
0.998777
0.99878
0.998783
0.998786
0.99879
0.998793
0.998797
0.9988
0.998803
0.998806
0.998809
0.998812
0.998814
0.998816
0.998818
0.998819
0.99882
0.998821
0.998821
0.998821
0.998821
0.99882
0.998819
0.998817
0.998815
0.998813
0.998811
0.998808
0.998805
0.998802
0.998799
0.998796
0.998792
0.998789
0.998785
0.998782
0.998779
0.998776
0.998774
0.998772
0.99877
0.998769
0.998768
0.998768
0.998768
0.998768
0.998769
0.998771
0.998773
0.998776
0.998779
0.998782
0.998786
0.99879
0.998794
0.998798
0.998802
0.998807
0.998811
0.998815
0.998819
0.998822
0.998826
0.998829
0.998832
0.998834
0.998836
0.998837
0.998838
0.998839
0.999332
0.999332
0.999331
0.99933
0.999329
0.999328
0.999326
0.999325
0.999323
0.999321
0.999318
0.999316
0.999314
0.999311
0.999309
0.999307
0.999304
0.999302
0.9993
0.999299
0.999297
0.999296
0.999294
0.999294
0.999293
0.999293
0.999293
0.999293
0.999294
0.999294
0.999295
0.999297
0.999298
0.9993
0.999301
0.999303
0.999305
0.999307
0.999309
0.999311
0.999312
0.999314
0.999316
0.999317
0.999318
0.99932
0.999321
0.999321
0.999322
0.999322
0.999322
0.999322
0.999322
0.999322
0.999321
0.99932
0.999319
0.999318
0.999317
0.999315
0.999314
0.999312
0.99931
0.999308
0.999307
0.999305
0.999303
0.999301
0.999299
0.999298
0.999296
0.999295
0.999294
0.999293
0.999293
0.999293
0.999293
0.999293
0.999294
0.999295
0.999296
0.999297
0.999299
0.999301
0.999303
0.999305
0.999307
0.99931
0.999312
0.999314
0.999317
0.999319
0.999321
0.999323
0.999325
0.999327
0.999328
0.999329
0.99933
0.999331
0.999332
0.999332
0.999786
0.999786
0.999786
0.999786
0.999785
0.999785
0.999784
0.999784
0.999783
0.999783
0.999782
0.999781
0.999781
0.99978
0.999779
0.999778
0.999778
0.999777
0.999776
0.999776
0.999775
0.999775
0.999775
0.999774
0.999774
0.999774
0.999774
0.999774
0.999774
0.999775
0.999775
0.999775
0.999776
0.999776
0.999777
0.999777
0.999778
0.999779
0.999779
0.99978
0.99978
0.999781
0.999781
0.999782
0.999782
0.999782
0.999783
0.999783
0.999783
0.999783
0.999783
0.999783
0.999783
0.999783
0.999783
0.999783
0.999782
0.999782
0.999782
0.999781
0.999781
0.99978
0.99978
0.999779
0.999778
0.999778
0.999777
0.999777
0.999776
0.999776
0.999775
0.999775
0.999775
0.999774
0.999774
0.999774
0.999774
0.999774
0.999774
0.999775
0.999775
0.999776
0.999776
0.999777
0.999777
0.999778
0.999779
0.999779
0.99978
0.999781
0.999782
0.999782
0.999783
0.999783
0.999784
0.999785
0.999785
0.999785
0.999786
0.999786
0.999786
0.999786
)
;

boundaryField
{
    top
    {
        type            calculated;
        value           uniform 1;
    }
    bottom
    {
        type            calculated;
        value           uniform 0.148957;
    }
    frontAndBack
    {
        type            empty;
    }
    left_cyc
    {
        type            cyclic;
    }
    right_cyc
    {
        type            cyclic;
    }
}


// ************************************************************************* //
