/*--------------------------------*- C++ -*----------------------------------*\
| =========                 |                                                 |
| \\      /  F ield         | OpenFOAM: The Open Source CFD Toolbox           |
|  \\    /   O peration     | Version:  2.3.0                                 |
|   \\  /    A nd           | Web:      www.OpenFOAM.org                      |
|    \\/     M anipulation  |                                                 |
\*---------------------------------------------------------------------------*/
FoamFile
{
    version     2.0;
    format      ascii;
    class       volScalarField;
    location    "2000";
    object      NUEff;
}
// * * * * * * * * * * * * * * * * * * * * * * * * * * * * * * * * * * * * * //

dimensions      [0 2 -1 0 0 0 0];

internalField   nonuniform List<scalar> 
765
(
0.288588
0.277715
0.261009
0.242166
0.223788
0.207269
0.193331
0.183069
0.175035
0.168576
0.163553
0.160055
0.158322
0.158733
0.161151
0.165243
0.170839
0.177934
0.186876
0.199018
0.214359
0.231926
0.250541
0.267977
0.280786
0.285033
0.278534
0.264337
0.246375
0.227852
0.210716
0.195993
0.184744
0.176246
0.169484
0.164207
0.16046
0.158447
0.158533
0.160679
0.164523
0.169859
0.176638
0.185089
0.196146
0.210663
0.227647
0.246277
0.264925
0.280713
0.289816
0.964644
0.96271
0.958897
0.952564
0.942207
0.924233
0.888687
0.800921
0.562739
0.321912
0.234221
0.200626
0.188186
0.190959
0.209656
0.256741
0.388767
0.677409
0.845971
0.906696
0.933165
0.947235
0.955489
0.960431
0.963107
0.963873
0.96268
0.959544
0.953985
0.94473
0.92873
0.897706
0.823125
0.613586
0.345981
0.242261
0.203813
0.189017
0.189615
0.205657
0.246508
0.357168
0.629886
0.827864
0.898884
0.929107
0.944923
0.954206
0.959906
0.963278
0.964842
0.985777
0.985016
0.98357
0.981315
0.977957
0.972882
0.964759
0.950333
0.92047
0.838468
0.554227
0.305096
0.246245
0.257664
0.361216
0.693403
0.881005
0.934924
0.957102
0.968531
0.975222
0.97948
0.982288
0.984104
0.985135
0.985436
0.984968
0.983769
0.981755
0.978676
0.973989
0.966523
0.953457
0.927108
0.858284
0.61186
0.323386
0.249539
0.252061
0.33499
0.639425
0.865632
0.929268
0.954289
0.966892
0.974178
0.978802
0.981883
0.983946
0.985238
0.985856
0.991376
0.990835
0.989825
0.988294
0.986104
0.982958
0.978216
0.97041
0.956034
0.925002
0.837396
0.565558
0.370633
0.408972
0.689033
0.882227
0.939888
0.962706
0.974
0.980358
0.984374
0.987081
0.98895
0.990202
0.990927
0.991139
0.990808
0.989968
0.988589
0.986557
0.983609
0.979186
0.97202
0.959
0.931627
0.857631
0.613736
0.381392
0.389966
0.640566
0.866477
0.934301
0.960055
0.972504
0.979434
0.983745
0.986646
0.988674
0.990085
0.990992
0.991432
0.993635
0.993146
0.992237
0.990888
0.989017
0.986428
0.982675
0.97672
0.966332
0.945998
0.898862
0.771709
0.586543
0.640406
0.832776
0.921528
0.955435
0.971072
0.979437
0.984367
0.987606
0.989877
0.991498
0.992611
0.993263
0.993454
0.993156
0.992401
0.99118
0.989429
0.986977
0.983439
0.977929
0.968412
0.950115
0.908769
0.7975
0.602823
0.615116
0.810587
0.913282
0.951829
0.969169
0.978293
0.983625
0.987066
0.989473
0.991219
0.992469
0.993287
0.993686
0.994743
0.994239
0.993304
0.991931
0.990069
0.987572
0.984082
0.97874
0.969834
0.9535
0.92
0.847818
0.751873
0.781484
0.880388
0.935511
0.96096
0.973879
0.981186
0.985691
0.988757
0.990979
0.992608
0.993742
0.994409
0.994602
0.994299
0.993526
0.992285
0.990534
0.988151
0.98483
0.979843
0.971616
0.95674
0.926674
0.861306
0.761105
0.767707
0.868104
0.929686
0.958049
0.972221
0.980125
0.984951
0.988178
0.990517
0.992265
0.993541
0.994385
0.994794
0.995396
0.994848
0.993825
0.992322
0.990305
0.987655
0.984071
0.978831
0.970519
0.95618
0.92966
0.882228
0.831212
0.846192
0.90251
0.941642
0.962698
0.974325
0.981278
0.985794
0.988989
0.991364
0.993129
0.994362
0.995085
0.995291
0.994966
0.994128
0.992778
0.990884
0.988349
0.984915
0.979973
0.972231
0.959039
0.934807
0.890512
0.83584
0.838949
0.894474
0.936963
0.960066
0.972704
0.980162
0.98495
0.98829
0.990786
0.992687
0.994084
0.995007
0.99545
0.995873
0.995272
0.99414
0.992466
0.990212
0.987273
0.983383
0.978008
0.96997
0.957053
0.935594
0.903104
0.873923
0.882224
0.916492
0.945151
0.962956
0.973729
0.980608
0.985355
0.988847
0.991476
0.99343
0.994788
0.995579
0.995802
0.995449
0.994531
0.993041
0.990942
0.988141
0.984406
0.979282
0.971724
0.959707
0.939751
0.908583
0.876491
0.878006
0.910874
0.941214
0.960446
0.972035
0.979345
0.984324
0.987972
0.990748
0.992872
0.994428
0.995446
0.995932
0.996297
0.995647
0.994422
0.992599
0.990126
0.986903
0.982735
0.977262
0.969576
0.958185
0.941258
0.91919
0.902048
0.906894
0.928124
0.948787
0.963482
0.973294
0.980038
0.98497
0.988726
0.991586
0.993704
0.995167
0.996017
0.996258
0.995878
0.99489
0.993283
0.991004
0.987956
0.983961
0.9787
0.971399
0.960662
0.944622
0.922909
0.903563
0.90429
0.924122
0.945471
0.961071
0.971497
0.978595
0.983727
0.987665
0.990715
0.993042
0.994733
0.995835
0.996361
0.996733
0.996064
0.99481
0.992944
0.9904
0.987079
0.982853
0.977537
0.970542
0.961065
0.948539
0.934337
0.924581
0.927391
0.9401
0.954182
0.965597
0.974066
0.980364
0.985225
0.989038
0.991959
0.994118
0.995606
0.996474
0.996724
0.996331
0.995324
0.993688
0.991365
0.988251
0.984208
0.979077
0.972363
0.963289
0.951163
0.936815
0.925483
0.925781
0.937318
0.951495
0.963369
0.972235
0.9788
0.983838
0.987859
0.991004
0.993397
0.995129
0.996257
0.9968
0.997217
0.996577
0.995391
0.993642
0.991272
0.9882
0.984361
0.979706
0.973965
0.966888
0.958593
0.950346
0.945259
0.946786
0.953764
0.962422
0.970385
0.97697
0.982278
0.986588
0.990066
0.992762
0.994769
0.996165
0.996988
0.997228
0.996851
0.995899
0.994369
0.992211
0.989342
0.98567
0.981163
0.975592
0.96869
0.960458
0.951882
0.945769
0.945848
0.95198
0.960447
0.968533
0.975307
0.980785
0.985236
0.988915
0.991833
0.994066
0.995691
0.99676
0.997282
0.997757
0.997202
0.996194
0.99474
0.992812
0.990374
0.987414
0.983953
0.979956
0.975468
0.970777
0.966632
0.964298
0.965036
0.968404
0.973003
0.977749
0.982107
0.985913
0.989166
0.991879
0.994041
0.99569
0.996863
0.99757
0.997781
0.997452
0.996638
0.995358
0.993595
0.991309
0.988464
0.985094
0.981161
0.97669
0.971909
0.967465
0.964557
0.964553
0.967412
0.971774
0.976466
0.98086
0.984737
0.988078
0.990936
0.993264
0.995089
0.996447
0.99736
0.997815
0.998352
0.997931
0.997192
0.996163
0.994856
0.993274
0.991429
0.989354
0.987106
0.98479
0.982595
0.98083
0.979905
0.980212
0.981606
0.983657
0.985986
0.988332
0.990541
0.992531
0.994256
0.995693
0.996839
0.997687
0.998216
0.998377
0.998126
0.997521
0.996604
0.995392
0.993889
0.9921
0.990056
0.987806
0.985447
0.983151
0.981208
0.980018
0.980002
0.981149
0.983042
0.985286
0.987599
0.989815
0.991843
0.993635
0.995159
0.996406
0.997375
0.99805
0.998397
0.998989
0.998735
0.998307
0.997742
0.997067
0.996296
0.995435
0.994493
0.99353
0.992605
0.991793
0.991182
0.990878
0.990982
0.991455
0.992189
0.993084
0.994055
0.995032
0.995951
0.996774
0.997499
0.998112
0.998594
0.998908
0.999007
0.998854
0.998498
0.997984
0.997344
0.996597
0.995753
0.994814
0.993832
0.992871
0.992004
0.991318
0.990917
0.990909
0.99129
0.991953
0.992798
0.993736
0.9947
0.995631
0.996471
0.997221
0.997874
0.998411
0.998806
0.999016
0.999651
0.999569
0.99944
0.999281
0.999105
0.998918
0.998714
0.998484
0.998258
0.998051
0.997879
0.997755
0.997695
0.997715
0.99781
0.997963
0.998157
0.99838
0.998614
0.998837
0.999034
0.999217
0.999384
0.999526
0.999625
0.999657
0.999608
0.999497
0.999348
0.999177
0.998991
0.998792
0.998561
0.998328
0.99811
0.997924
0.997783
0.997703
0.997701
0.997776
0.997912
0.998094
0.998305
0.998534
0.998763
0.998961
0.999145
0.999317
0.999471
0.999592
0.99966
)
;

boundaryField
{
    top
    {
        type            calculated;
        value           uniform 1;
    }
    bottom
    {
        type            calculated;
        value           uniform 0.148957;
    }
    frontAndBack
    {
        type            empty;
    }
    left_cyc
    {
        type            cyclic;
    }
    right_cyc
    {
        type            cyclic;
    }
}


// ************************************************************************* //
