/*--------------------------------*- C++ -*----------------------------------*\
| =========                 |                                                 |
| \\      /  F ield         | OpenFOAM: The Open Source CFD Toolbox           |
|  \\    /   O peration     | Version:  2.3.0                                 |
|   \\  /    A nd           | Web:      www.OpenFOAM.org                      |
|    \\/     M anipulation  |                                                 |
\*---------------------------------------------------------------------------*/
FoamFile
{
    version     2.0;
    format      ascii;
    class       volScalarField;
    location    "2000";
    object      NUEff;
}
// * * * * * * * * * * * * * * * * * * * * * * * * * * * * * * * * * * * * * //

dimensions      [0 2 -1 0 0 0 0];

internalField   nonuniform List<scalar> 
3060
(
0.154195
0.154192
0.154186
0.154176
0.154164
0.15415
0.154133
0.154114
0.154094
0.154072
0.15405
0.154026
0.154003
0.153981
0.153959
0.153938
0.153918
0.1539
0.153883
0.153868
0.153854
0.153843
0.153834
0.153826
0.153821
0.153819
0.153818
0.15382
0.153823
0.153829
0.153836
0.153845
0.153856
0.153868
0.153881
0.153896
0.15391
0.153926
0.153942
0.153958
0.153974
0.15399
0.154005
0.15402
0.154033
0.154044
0.154054
0.154062
0.154068
0.154072
0.154074
0.154074
0.154071
0.154067
0.15406
0.154051
0.154041
0.154029
0.154016
0.154001
0.153986
0.15397
0.153953
0.153937
0.153921
0.153906
0.153891
0.153878
0.153865
0.153853
0.153843
0.153834
0.153827
0.153822
0.153819
0.153818
0.153819
0.153823
0.153828
0.153836
0.153846
0.153858
0.153872
0.153888
0.153905
0.153924
0.153944
0.153965
0.153987
0.15401
0.154033
0.154056
0.154078
0.1541
0.15412
0.154138
0.154154
0.154168
0.154179
0.154188
0.154193
0.154196
0.168851
0.168834
0.168804
0.16876
0.168702
0.168633
0.168554
0.168465
0.168368
0.168266
0.168159
0.168049
0.16794
0.167833
0.16773
0.167632
0.167539
0.167453
0.167374
0.167302
0.16724
0.167186
0.167142
0.167109
0.167085
0.167072
0.167069
0.167077
0.167094
0.16712
0.167155
0.167198
0.167249
0.167305
0.167367
0.167433
0.167504
0.167576
0.167651
0.167727
0.167804
0.167879
0.16795
0.168017
0.168078
0.168133
0.168179
0.168217
0.168245
0.168264
0.168272
0.168271
0.168259
0.168238
0.168207
0.168166
0.168118
0.168062
0.167999
0.16793
0.167858
0.167782
0.167706
0.16763
0.167556
0.167484
0.167414
0.167349
0.167289
0.167234
0.167186
0.167145
0.167112
0.167089
0.167074
0.16707
0.167075
0.167091
0.167117
0.167154
0.1672
0.167256
0.167322
0.167395
0.167477
0.167565
0.167659
0.167758
0.167862
0.16797
0.168079
0.168188
0.168294
0.168395
0.16849
0.168577
0.168654
0.168719
0.168773
0.168814
0.16884
0.168853
0.193921
0.193872
0.193779
0.193646
0.193475
0.193268
0.19303
0.192765
0.192478
0.192173
0.191856
0.191534
0.191212
0.190897
0.190594
0.190305
0.190033
0.18978
0.189548
0.18934
0.189157
0.189002
0.188875
0.188778
0.18871
0.188673
0.188665
0.188686
0.188736
0.188813
0.188915
0.18904
0.189186
0.189351
0.189532
0.189726
0.189932
0.190145
0.190365
0.190588
0.190812
0.19103
0.19124
0.191437
0.191616
0.191775
0.191912
0.192023
0.192107
0.192163
0.192189
0.192184
0.19215
0.192086
0.191994
0.191876
0.191732
0.191567
0.191382
0.191182
0.190969
0.190748
0.190524
0.190302
0.190084
0.189873
0.189671
0.18948
0.189303
0.189144
0.189003
0.188885
0.18879
0.18872
0.188679
0.188665
0.188681
0.188727
0.188803
0.188908
0.189043
0.189206
0.189396
0.189611
0.189848
0.190107
0.190384
0.190676
0.190983
0.1913
0.191623
0.191944
0.192258
0.192558
0.19284
0.193098
0.193328
0.193526
0.193687
0.193809
0.19389
0.193927
0.24511
0.244955
0.244668
0.244254
0.243723
0.243084
0.242351
0.241538
0.240661
0.239737
0.238781
0.237813
0.236849
0.235908
0.235005
0.234148
0.233343
0.232598
0.231919
0.231312
0.230781
0.230331
0.229965
0.229684
0.229489
0.229382
0.22936
0.229423
0.229566
0.229788
0.230083
0.230445
0.23087
0.23135
0.231879
0.232449
0.233052
0.233682
0.23433
0.234989
0.23565
0.236298
0.23692
0.237505
0.238042
0.238519
0.23893
0.239265
0.239518
0.239686
0.239764
0.239751
0.239647
0.239455
0.239177
0.23882
0.23839
0.237894
0.237343
0.236747
0.236116
0.235463
0.234802
0.234145
0.233502
0.23288
0.232286
0.231727
0.231212
0.230747
0.230339
0.229995
0.229721
0.229521
0.2294
0.229361
0.229406
0.229538
0.229756
0.230061
0.230451
0.230923
0.231475
0.232103
0.2328
0.233562
0.234381
0.235251
0.236164
0.237114
0.238081
0.239047
0.239995
0.240908
0.241768
0.242561
0.243269
0.243879
0.24438
0.24476
0.245011
0.245129
0.381744
0.381168
0.380104
0.378573
0.376609
0.374257
0.371567
0.368597
0.365407
0.362061
0.358622
0.355155
0.351721
0.348379
0.345187
0.342169
0.339352
0.336758
0.334407
0.332315
0.330495
0.328958
0.327711
0.326758
0.326101
0.325737
0.325664
0.325874
0.326361
0.327111
0.328112
0.329348
0.330799
0.332447
0.334269
0.336241
0.338337
0.340532
0.342798
0.345108
0.347427
0.349709
0.351909
0.353983
0.355893
0.357599
0.359068
0.360271
0.361182
0.361785
0.362066
0.362019
0.361645
0.360953
0.359956
0.358675
0.357135
0.355368
0.353408
0.351294
0.349067
0.346771
0.34445
0.342152
0.339905
0.337737
0.335675
0.333744
0.331971
0.330377
0.328986
0.327816
0.326884
0.326207
0.325797
0.325665
0.325819
0.326265
0.327004
0.328039
0.329366
0.330982
0.332877
0.335042
0.337461
0.340117
0.342991
0.346058
0.349294
0.352665
0.356112
0.359576
0.362994
0.366303
0.369438
0.372336
0.374938
0.377189
0.379038
0.380444
0.381377
0.381814
0.679958
0.679129
0.677584
0.675334
0.672401
0.668816
0.664617
0.659854
0.654586
0.648886
0.642834
0.636524
0.630061
0.623557
0.617133
0.610875
0.604869
0.599197
0.59394
0.589168
0.584947
0.58133
0.578359
0.576068
0.574475
0.573589
0.573407
0.573917
0.575092
0.576899
0.579293
0.582221
0.585623
0.589435
0.593586
0.598004
0.602615
0.607345
0.612124
0.616883
0.621549
0.626038
0.630273
0.634187
0.63772
0.640824
0.643456
0.645584
0.647181
0.648229
0.648715
0.648634
0.647987
0.646781
0.64503
0.642755
0.639985
0.636755
0.633109
0.629099
0.624785
0.620239
0.615539
0.610772
0.606004
0.601304
0.596744
0.592398
0.588339
0.584639
0.581366
0.578585
0.576353
0.574721
0.57373
0.573413
0.57379
0.574873
0.576661
0.579143
0.582295
0.586083
0.59046
0.59537
0.600747
0.606517
0.612598
0.618909
0.625362
0.631861
0.638289
0.644534
0.650495
0.656082
0.661216
0.665828
0.669863
0.673272
0.676021
0.67808
0.679429
0.680059
0.848374
0.848051
0.847447
0.846566
0.845413
0.843998
0.842331
0.840428
0.838306
0.835987
0.833498
0.83087
0.828139
0.825346
0.82254
0.819757
0.817039
0.814429
0.811968
0.809699
0.807662
0.805893
0.804424
0.803279
0.802478
0.802029
0.801934
0.802189
0.802778
0.80368
0.804867
0.806306
0.807962
0.809796
0.811767
0.813838
0.815969
0.818124
0.820271
0.822378
0.824416
0.826353
0.828161
0.829815
0.831297
0.83259
0.83368
0.834557
0.835212
0.835642
0.83584
0.835807
0.835542
0.835048
0.834329
0.83339
0.832242
0.830894
0.829361
0.827661
0.825815
0.823846
0.821786
0.819667
0.817516
0.815366
0.81325
0.811206
0.809271
0.807485
0.805888
0.804517
0.803408
0.802592
0.802095
0.801938
0.802131
0.802679
0.803577
0.804813
0.806368
0.808213
0.810317
0.812642
0.815147
0.81779
0.820529
0.823321
0.826127
0.828904
0.831609
0.834201
0.836645
0.838911
0.840974
0.842813
0.844412
0.845756
0.846835
0.847641
0.848168
0.848414
0.908834
0.908684
0.908402
0.907992
0.907457
0.906802
0.906033
0.905157
0.904185
0.903127
0.901996
0.900807
0.899576
0.898322
0.897065
0.895823
0.894614
0.893457
0.892369
0.891369
0.890473
0.889697
0.889053
0.888552
0.8882
0.888003
0.887961
0.88807
0.888325
0.888718
0.889235
0.889864
0.890589
0.891394
0.892262
0.893175
0.894118
0.895074
0.896028
0.896967
0.897876
0.898743
0.899554
0.900298
0.900966
0.90155
0.902044
0.902441
0.902739
0.902934
0.903025
0.90301
0.902889
0.902664
0.902338
0.901912
0.901393
0.900784
0.900093
0.89933
0.898502
0.897622
0.896703
0.89576
0.894804
0.893851
0.892916
0.892014
0.891164
0.89038
0.889681
0.889083
0.888599
0.888245
0.88803
0.887963
0.888048
0.888289
0.888682
0.889223
0.889905
0.890715
0.891641
0.892667
0.893775
0.894948
0.896167
0.897415
0.898672
0.899921
0.901141
0.902315
0.903427
0.904462
0.905408
0.906255
0.906994
0.907616
0.908117
0.908492
0.908738
0.908853
0.937138
0.937051
0.936888
0.936652
0.936344
0.935967
0.935526
0.935025
0.93447
0.933869
0.933227
0.932555
0.931861
0.931157
0.930452
0.929758
0.929084
0.928441
0.927838
0.927285
0.926791
0.926364
0.92601
0.925734
0.925541
0.925433
0.925409
0.925468
0.925606
0.92582
0.926103
0.926447
0.926846
0.927289
0.927767
0.928273
0.928795
0.929327
0.929858
0.930382
0.93089
0.931375
0.931831
0.932249
0.932625
0.932955
0.933234
0.933459
0.933628
0.933739
0.93379
0.933782
0.933713
0.933586
0.933401
0.93316
0.932866
0.932523
0.932134
0.931705
0.93124
0.930748
0.930234
0.929708
0.929177
0.928647
0.928129
0.927631
0.927161
0.926731
0.926347
0.926019
0.925756
0.925562
0.925446
0.92541
0.925458
0.92559
0.925806
0.926103
0.926478
0.926925
0.927436
0.928003
0.928618
0.92927
0.92995
0.930648
0.931353
0.932056
0.932744
0.933408
0.934039
0.934628
0.935169
0.935653
0.936077
0.936435
0.936724
0.93694
0.937082
0.937149
0.953245
0.953188
0.953082
0.952926
0.952725
0.952478
0.95219
0.951863
0.951502
0.951111
0.950696
0.950261
0.949813
0.949358
0.948905
0.948459
0.948027
0.947615
0.947229
0.946876
0.946561
0.946289
0.946064
0.945889
0.945766
0.945696
0.945681
0.945717
0.945805
0.94594
0.946118
0.946337
0.946589
0.946871
0.947176
0.947498
0.947832
0.948173
0.948513
0.948849
0.949176
0.949488
0.949781
0.950051
0.950294
0.950507
0.950687
0.950833
0.950943
0.951014
0.951048
0.951042
0.950998
0.950915
0.950795
0.950639
0.950449
0.950228
0.949977
0.9497
0.949401
0.949084
0.948755
0.948417
0.948077
0.947738
0.947407
0.947089
0.94679
0.946516
0.946273
0.946066
0.945899
0.945777
0.945704
0.945682
0.945712
0.945797
0.945934
0.946123
0.946362
0.946646
0.946972
0.947334
0.947728
0.948146
0.948582
0.949031
0.949485
0.949938
0.950383
0.950813
0.951222
0.951605
0.951957
0.952273
0.95255
0.952785
0.952974
0.953116
0.953209
0.953252
0.963581
0.963541
0.963465
0.963355
0.963212
0.963037
0.962834
0.962603
0.962348
0.962072
0.96178
0.961474
0.96116
0.960841
0.960523
0.960211
0.959909
0.959621
0.959352
0.959106
0.958887
0.958697
0.958541
0.958419
0.958333
0.958285
0.958273
0.958298
0.958358
0.958452
0.958575
0.958727
0.958902
0.959097
0.959309
0.959534
0.959767
0.960004
0.960242
0.960477
0.960705
0.960924
0.961129
0.961318
0.961489
0.961638
0.961765
0.961868
0.961945
0.961995
0.962019
0.962015
0.961984
0.961925
0.961841
0.961732
0.961598
0.961442
0.961266
0.961072
0.960863
0.960642
0.960411
0.960175
0.959937
0.959701
0.95947
0.959249
0.959041
0.958851
0.958682
0.958539
0.958423
0.958339
0.958289
0.958274
0.958296
0.958355
0.958451
0.958582
0.958748
0.958946
0.959173
0.959425
0.9597
0.959992
0.960297
0.960611
0.96093
0.961248
0.96156
0.961862
0.96215
0.96242
0.962669
0.962892
0.963088
0.963254
0.963389
0.963489
0.963555
0.963586
0.970759
0.970728
0.970672
0.97059
0.970483
0.970353
0.970201
0.970029
0.96984
0.969635
0.969418
0.969191
0.968958
0.968722
0.968487
0.968256
0.968033
0.96782
0.967622
0.96744
0.967279
0.967139
0.967024
0.966934
0.966871
0.966835
0.966826
0.966844
0.966888
0.966956
0.967047
0.967158
0.967286
0.96743
0.967586
0.967752
0.967923
0.968098
0.968274
0.968448
0.968616
0.968778
0.96893
0.96907
0.969196
0.969307
0.969401
0.969477
0.969534
0.969571
0.969589
0.969586
0.969563
0.96952
0.969457
0.969376
0.969277
0.969161
0.969031
0.968888
0.968733
0.968569
0.968399
0.968225
0.968049
0.967875
0.967705
0.967542
0.967389
0.967249
0.967125
0.96702
0.966936
0.966874
0.966837
0.966827
0.966843
0.966887
0.966957
0.967054
0.967176
0.967322
0.96749
0.967676
0.967878
0.968094
0.96832
0.968552
0.968788
0.969023
0.969255
0.969479
0.969693
0.969894
0.970079
0.970245
0.970391
0.970515
0.970615
0.97069
0.970739
0.970762
0.976027
0.976004
0.97596
0.975897
0.975814
0.975714
0.975597
0.975464
0.975318
0.975161
0.974993
0.974819
0.97464
0.974459
0.974278
0.974101
0.973929
0.973766
0.973614
0.973475
0.973352
0.973245
0.973156
0.973088
0.973039
0.973012
0.973005
0.973018
0.973051
0.973103
0.973172
0.973257
0.973355
0.973465
0.973584
0.973711
0.973842
0.973976
0.974111
0.974244
0.974373
0.974497
0.974614
0.974721
0.974818
0.974903
0.974976
0.975034
0.975078
0.975107
0.97512
0.975118
0.9751
0.975067
0.975019
0.974956
0.97488
0.974792
0.974692
0.974581
0.974463
0.974337
0.974207
0.974073
0.973938
0.973805
0.973675
0.97355
0.973433
0.973326
0.973232
0.973152
0.973087
0.973041
0.973013
0.973005
0.973018
0.973051
0.973105
0.97318
0.973273
0.973385
0.973513
0.973656
0.973811
0.973977
0.97415
0.974328
0.974509
0.97469
0.974868
0.97504
0.975205
0.97536
0.975502
0.975631
0.975743
0.975839
0.975916
0.975974
0.976012
0.97603
0.980057
0.980038
0.980004
0.979953
0.979888
0.979809
0.979716
0.979611
0.979496
0.979371
0.97924
0.979102
0.978961
0.978818
0.978676
0.978536
0.978401
0.978273
0.978153
0.978044
0.977946
0.977862
0.977793
0.977739
0.977701
0.977679
0.977673
0.977684
0.977709
0.97775
0.977804
0.97787
0.977947
0.978033
0.978127
0.978226
0.97833
0.978435
0.978541
0.978646
0.978748
0.978845
0.978937
0.979021
0.979098
0.979165
0.979222
0.979268
0.979303
0.979325
0.979336
0.979334
0.97932
0.979294
0.979256
0.979207
0.979147
0.979077
0.978998
0.978911
0.978818
0.978719
0.978616
0.978511
0.978405
0.9783
0.978198
0.9781
0.978008
0.977925
0.977851
0.977788
0.977738
0.977701
0.97768
0.977674
0.977684
0.97771
0.977753
0.977811
0.977885
0.977973
0.978073
0.978186
0.978308
0.978438
0.978575
0.978715
0.978858
0.979
0.979141
0.979277
0.979407
0.979529
0.979641
0.979743
0.979832
0.979908
0.979969
0.980015
0.980045
0.980059
0.983237
0.983222
0.983194
0.983154
0.983101
0.983037
0.982963
0.982878
0.982786
0.982686
0.98258
0.982469
0.982356
0.982241
0.982127
0.982015
0.981907
0.981804
0.981708
0.98162
0.981542
0.981475
0.981419
0.981376
0.981345
0.981328
0.981323
0.981331
0.981352
0.981384
0.981427
0.98148
0.981541
0.98161
0.981685
0.981765
0.981848
0.981932
0.982017
0.982101
0.982182
0.982261
0.982334
0.982402
0.982463
0.982517
0.982563
0.9826
0.982628
0.982646
0.982654
0.982653
0.982642
0.982621
0.98259
0.982551
0.982503
0.982447
0.982383
0.982314
0.982239
0.98216
0.982077
0.981993
0.981908
0.981824
0.981742
0.981664
0.981591
0.981524
0.981465
0.981414
0.981374
0.981345
0.981328
0.981324
0.981332
0.981353
0.981387
0.981434
0.981493
0.981563
0.981644
0.981734
0.981832
0.981937
0.982046
0.982159
0.982273
0.982388
0.9825
0.98261
0.982714
0.982812
0.982903
0.982984
0.983056
0.983117
0.983166
0.983203
0.983228
0.983239
0.985811
0.985798
0.985776
0.985743
0.9857
0.985648
0.985587
0.985518
0.985443
0.985361
0.985275
0.985186
0.985094
0.985
0.984908
0.984817
0.984729
0.984645
0.984567
0.984496
0.984433
0.984378
0.984333
0.984297
0.984272
0.984258
0.984254
0.984261
0.984277
0.984303
0.984338
0.984381
0.984431
0.984486
0.984547
0.984612
0.984679
0.984747
0.984816
0.984884
0.984951
0.985014
0.985074
0.985129
0.985179
0.985222
0.985259
0.985289
0.985312
0.985327
0.985334
0.985333
0.985323
0.985306
0.985282
0.98525
0.98521
0.985165
0.985114
0.985057
0.984996
0.984932
0.984865
0.984797
0.984728
0.98466
0.984593
0.98453
0.98447
0.984416
0.984368
0.984328
0.984295
0.984272
0.984258
0.984255
0.984261
0.984279
0.984307
0.984345
0.984393
0.98445
0.984515
0.984588
0.984668
0.984753
0.984842
0.984933
0.985026
0.985119
0.985211
0.9853
0.985384
0.985464
0.985538
0.985604
0.985663
0.985713
0.985753
0.985783
0.985803
0.985812
0.987936
0.987925
0.987907
0.98788
0.987845
0.987802
0.987752
0.987696
0.987634
0.987567
0.987496
0.987423
0.987347
0.987271
0.987195
0.98712
0.987048
0.98698
0.986916
0.986858
0.986806
0.986761
0.986724
0.986695
0.986675
0.986663
0.986659
0.986665
0.986678
0.986699
0.986728
0.986763
0.986803
0.986849
0.986899
0.986951
0.987006
0.987062
0.987119
0.987174
0.987229
0.987281
0.987329
0.987375
0.987415
0.987451
0.987481
0.987506
0.987525
0.987537
0.987542
0.987541
0.987534
0.98752
0.9875
0.987473
0.987441
0.987404
0.987362
0.987316
0.987266
0.987214
0.987159
0.987103
0.987047
0.986991
0.986936
0.986884
0.986836
0.986791
0.986752
0.986719
0.986693
0.986674
0.986663
0.98666
0.986665
0.98668
0.986702
0.986734
0.986773
0.98682
0.986873
0.986933
0.986999
0.987068
0.987141
0.987216
0.987292
0.987368
0.987443
0.987516
0.987586
0.987651
0.987712
0.987766
0.987814
0.987855
0.987888
0.987913
0.987929
0.987937
0.98972
0.989712
0.989696
0.989674
0.989645
0.989609
0.989568
0.989522
0.989471
0.989416
0.989358
0.989297
0.989235
0.989172
0.98911
0.989048
0.988989
0.988932
0.98888
0.988832
0.988789
0.988752
0.988721
0.988698
0.988681
0.988671
0.988668
0.988673
0.988683
0.988701
0.988724
0.988753
0.988786
0.988824
0.988864
0.988908
0.988953
0.988999
0.989046
0.989092
0.989136
0.989179
0.989219
0.989256
0.98929
0.989319
0.989344
0.989364
0.98938
0.98939
0.989394
0.989393
0.989387
0.989376
0.989359
0.989337
0.989311
0.98928
0.989246
0.989208
0.989167
0.989124
0.989079
0.989033
0.988986
0.98894
0.988896
0.988853
0.988813
0.988776
0.988744
0.988717
0.988696
0.98868
0.988671
0.988669
0.988673
0.988685
0.988704
0.98873
0.988762
0.9888
0.988845
0.988894
0.988948
0.989005
0.989065
0.989127
0.98919
0.989252
0.989314
0.989374
0.989431
0.989485
0.989535
0.98958
0.98962
0.989653
0.989681
0.989701
0.989715
0.989721
0.99124
0.991233
0.99122
0.991201
0.991177
0.991148
0.991114
0.991076
0.991034
0.990988
0.99094
0.99089
0.990839
0.990787
0.990736
0.990685
0.990636
0.990589
0.990546
0.990506
0.990471
0.99044
0.990415
0.990395
0.990381
0.990373
0.990371
0.990374
0.990383
0.990398
0.990417
0.99044
0.990468
0.990499
0.990532
0.990568
0.990606
0.990644
0.990682
0.99072
0.990757
0.990792
0.990825
0.990855
0.990883
0.990907
0.990928
0.990945
0.990957
0.990966
0.990969
0.990969
0.990964
0.990954
0.99094
0.990923
0.990901
0.990876
0.990847
0.990816
0.990782
0.990746
0.990709
0.990671
0.990633
0.990595
0.990558
0.990523
0.99049
0.99046
0.990434
0.990411
0.990393
0.990381
0.990373
0.990371
0.990375
0.990385
0.9904
0.990422
0.990448
0.99048
0.990517
0.990558
0.990602
0.990649
0.990699
0.99075
0.990802
0.990853
0.990904
0.990954
0.991001
0.991046
0.991087
0.991124
0.991157
0.991185
0.991207
0.991224
0.991235
0.99124
0.99255
0.992544
0.992533
0.992518
0.992498
0.992474
0.992446
0.992414
0.99238
0.992342
0.992303
0.992261
0.992219
0.992176
0.992134
0.992092
0.992051
0.992013
0.991977
0.991944
0.991915
0.99189
0.991869
0.991853
0.991841
0.991834
0.991832
0.991835
0.991843
0.991854
0.99187
0.99189
0.991912
0.991938
0.991965
0.991995
0.992026
0.992057
0.992089
0.99212
0.99215
0.992179
0.992206
0.992232
0.992254
0.992274
0.992291
0.992305
0.992316
0.992322
0.992326
0.992325
0.992321
0.992313
0.992302
0.992287
0.992269
0.992248
0.992225
0.992199
0.992171
0.992142
0.992111
0.99208
0.992048
0.992017
0.991986
0.991957
0.99193
0.991906
0.991884
0.991865
0.991851
0.99184
0.991834
0.991833
0.991836
0.991844
0.991857
0.991875
0.991897
0.991923
0.991953
0.991987
0.992023
0.992062
0.992103
0.992145
0.992188
0.992231
0.992273
0.992314
0.992353
0.99239
0.992423
0.992454
0.992481
0.992504
0.992523
0.992537
0.992546
0.99255
0.993691
0.993686
0.993677
0.993665
0.993648
0.993629
0.993605
0.993579
0.993551
0.99352
0.993487
0.993454
0.993419
0.993384
0.993348
0.993314
0.993281
0.993249
0.99322
0.993193
0.993169
0.993148
0.993131
0.993117
0.993108
0.993102
0.993101
0.993103
0.993109
0.993118
0.993131
0.993147
0.993166
0.993187
0.99321
0.993234
0.993259
0.993285
0.993311
0.993337
0.993361
0.993385
0.993408
0.993428
0.993447
0.993464
0.993478
0.993489
0.993497
0.993503
0.993506
0.993505
0.993502
0.993495
0.993486
0.993474
0.993459
0.993442
0.993423
0.993402
0.993379
0.993355
0.993329
0.993304
0.993278
0.993252
0.993227
0.993203
0.993181
0.993161
0.993143
0.993128
0.993116
0.993107
0.993102
0.993101
0.993103
0.99311
0.993121
0.993135
0.993153
0.993175
0.9932
0.993228
0.993258
0.99329
0.993323
0.993358
0.993393
0.993428
0.993463
0.993497
0.993529
0.993559
0.993587
0.993612
0.993634
0.993653
0.993669
0.99368
0.993688
0.993691
0.994694
0.99469
0.994683
0.994672
0.994659
0.994643
0.994624
0.994603
0.994579
0.994554
0.994528
0.9945
0.994471
0.994443
0.994414
0.994386
0.994359
0.994333
0.994309
0.994286
0.994267
0.99425
0.994236
0.994225
0.994217
0.994212
0.994211
0.994213
0.994218
0.994226
0.994236
0.994249
0.994264
0.994281
0.9943
0.99432
0.994341
0.994362
0.994383
0.994404
0.994424
0.994444
0.994462
0.994479
0.994494
0.994507
0.994519
0.994528
0.994535
0.99454
0.994542
0.994541
0.994539
0.994533
0.994526
0.994516
0.994504
0.99449
0.994474
0.994457
0.994438
0.994418
0.994398
0.994377
0.994356
0.994335
0.994314
0.994295
0.994277
0.99426
0.994245
0.994233
0.994223
0.994216
0.994212
0.994211
0.994213
0.994219
0.994228
0.99424
0.994254
0.994272
0.994292
0.994315
0.99434
0.994366
0.994394
0.994422
0.994451
0.994479
0.994508
0.994535
0.994561
0.994586
0.994609
0.994629
0.994648
0.994663
0.994676
0.994685
0.994691
0.994694
0.995582
0.995579
0.995574
0.995565
0.995554
0.995541
0.995526
0.995509
0.99549
0.99547
0.995448
0.995426
0.995403
0.995379
0.995356
0.995333
0.995311
0.99529
0.995271
0.995253
0.995237
0.995223
0.995212
0.995203
0.995196
0.995193
0.995192
0.995193
0.995197
0.995203
0.995212
0.995222
0.995235
0.995248
0.995264
0.99528
0.995296
0.995313
0.995331
0.995348
0.995364
0.99538
0.995394
0.995408
0.99542
0.995431
0.99544
0.995448
0.995454
0.995457
0.995459
0.995459
0.995456
0.995452
0.995446
0.995438
0.995428
0.995417
0.995404
0.99539
0.995375
0.995359
0.995343
0.995326
0.995309
0.995292
0.995275
0.995259
0.995244
0.995231
0.995219
0.995209
0.995201
0.995196
0.995192
0.995192
0.995194
0.995198
0.995205
0.995215
0.995227
0.995241
0.995258
0.995276
0.995296
0.995317
0.99534
0.995363
0.995386
0.995409
0.995432
0.995454
0.995475
0.995495
0.995514
0.99553
0.995545
0.995558
0.995568
0.995575
0.99558
0.995583
0.996376
0.996373
0.996369
0.996362
0.996353
0.996343
0.996331
0.996317
0.996302
0.996286
0.996269
0.996251
0.996232
0.996214
0.996195
0.996177
0.996159
0.996143
0.996127
0.996113
0.9961
0.996089
0.99608
0.996073
0.996068
0.996065
0.996064
0.996065
0.996068
0.996073
0.99608
0.996088
0.996098
0.996109
0.996121
0.996134
0.996147
0.996161
0.996175
0.996188
0.996201
0.996214
0.996225
0.996236
0.996246
0.996255
0.996262
0.996268
0.996272
0.996275
0.996277
0.996277
0.996275
0.996271
0.996266
0.99626
0.996252
0.996243
0.996233
0.996222
0.99621
0.996198
0.996184
0.996171
0.996157
0.996143
0.99613
0.996118
0.996106
0.996095
0.996086
0.996078
0.996071
0.996067
0.996064
0.996064
0.996065
0.996069
0.996074
0.996082
0.996092
0.996103
0.996117
0.996131
0.996147
0.996164
0.996182
0.9962
0.996219
0.996237
0.996256
0.996273
0.99629
0.996306
0.996321
0.996334
0.996346
0.996356
0.996364
0.99637
0.996374
0.996376
0.997088
0.997086
0.997083
0.997077
0.997071
0.997063
0.997053
0.997042
0.997031
0.997018
0.997005
0.996991
0.996976
0.996962
0.996947
0.996933
0.996919
0.996906
0.996894
0.996883
0.996873
0.996864
0.996857
0.996851
0.996847
0.996845
0.996844
0.996845
0.996848
0.996851
0.996857
0.996863
0.996871
0.99688
0.996889
0.996899
0.99691
0.99692
0.996931
0.996941
0.996952
0.996961
0.996971
0.996979
0.996987
0.996993
0.996999
0.997004
0.997007
0.99701
0.997011
0.99701
0.997009
0.997006
0.997003
0.996998
0.996992
0.996985
0.996977
0.996968
0.996959
0.996949
0.996939
0.996928
0.996917
0.996907
0.996896
0.996886
0.996877
0.996869
0.996861
0.996855
0.99685
0.996847
0.996845
0.996844
0.996845
0.996848
0.996853
0.996859
0.996866
0.996875
0.996886
0.996897
0.99691
0.996923
0.996937
0.996951
0.996966
0.99698
0.996995
0.997008
0.997021
0.997034
0.997045
0.997056
0.997065
0.997073
0.997079
0.997084
0.997087
0.997088
0.997732
0.99773
0.997728
0.997724
0.997719
0.997712
0.997705
0.997697
0.997688
0.997679
0.997669
0.997658
0.997647
0.997636
0.997625
0.997614
0.997604
0.997594
0.997585
0.997576
0.997569
0.997562
0.997557
0.997552
0.997549
0.997547
0.997547
0.997548
0.997549
0.997552
0.997556
0.997561
0.997567
0.997574
0.997581
0.997589
0.997596
0.997605
0.997613
0.997621
0.997628
0.997636
0.997643
0.997649
0.997655
0.99766
0.997664
0.997668
0.99767
0.997672
0.997673
0.997673
0.997672
0.99767
0.997667
0.997663
0.997659
0.997653
0.997647
0.997641
0.997634
0.997626
0.997618
0.99761
0.997602
0.997594
0.997586
0.997579
0.997572
0.997566
0.99756
0.997555
0.997551
0.997549
0.997547
0.997547
0.997548
0.99755
0.997553
0.997558
0.997564
0.997571
0.997578
0.997587
0.997597
0.997607
0.997617
0.997628
0.997639
0.99765
0.997661
0.997671
0.997681
0.997691
0.997699
0.997707
0.997714
0.99772
0.997725
0.997728
0.997731
0.997732
0.998316
0.998315
0.998313
0.99831
0.998307
0.998302
0.998297
0.998291
0.998285
0.998278
0.998271
0.998263
0.998255
0.998248
0.99824
0.998232
0.998224
0.998217
0.99821
0.998204
0.998199
0.998194
0.99819
0.998187
0.998185
0.998183
0.998183
0.998183
0.998185
0.998187
0.99819
0.998193
0.998197
0.998202
0.998207
0.998213
0.998219
0.998224
0.99823
0.998236
0.998242
0.998247
0.998252
0.998257
0.998261
0.998264
0.998267
0.99827
0.998272
0.998273
0.998274
0.998274
0.998273
0.998271
0.998269
0.998267
0.998263
0.99826
0.998255
0.998251
0.998246
0.99824
0.998235
0.998229
0.998223
0.998217
0.998211
0.998206
0.998201
0.998196
0.998192
0.998189
0.998186
0.998184
0.998183
0.998183
0.998184
0.998185
0.998188
0.998191
0.998195
0.9982
0.998206
0.998212
0.998219
0.998226
0.998234
0.998242
0.99825
0.998258
0.998265
0.998273
0.99828
0.998287
0.998293
0.998299
0.998304
0.998308
0.998311
0.998314
0.998316
0.998316
0.99885
0.998849
0.998848
0.998846
0.998843
0.99884
0.998837
0.998833
0.998829
0.998824
0.99882
0.998815
0.998809
0.998804
0.998799
0.998794
0.998789
0.998784
0.998779
0.998775
0.998771
0.998768
0.998766
0.998764
0.998762
0.998761
0.998761
0.998761
0.998762
0.998764
0.998766
0.998768
0.998771
0.998774
0.998777
0.998781
0.998785
0.998789
0.998793
0.998796
0.9988
0.998804
0.998807
0.99881
0.998813
0.998815
0.998817
0.998819
0.99882
0.998821
0.998821
0.998821
0.998821
0.99882
0.998818
0.998817
0.998814
0.998812
0.998809
0.998806
0.998803
0.998799
0.998795
0.998792
0.998788
0.998784
0.99878
0.998776
0.998773
0.99877
0.998767
0.998765
0.998763
0.998762
0.998761
0.998761
0.998761
0.998762
0.998764
0.998766
0.998769
0.998772
0.998776
0.99878
0.998785
0.99879
0.998795
0.9988
0.998806
0.998811
0.998816
0.998821
0.998826
0.99883
0.998834
0.998838
0.998841
0.998844
0.998846
0.998848
0.998849
0.99885
0.999338
0.999338
0.999337
0.999336
0.999335
0.999333
0.999331
0.999329
0.999327
0.999324
0.999322
0.999319
0.999316
0.999313
0.99931
0.999307
0.999304
0.999302
0.999299
0.999297
0.999295
0.999293
0.999292
0.99929
0.99929
0.999289
0.999289
0.999289
0.99929
0.99929
0.999291
0.999293
0.999294
0.999296
0.999298
0.9993
0.999302
0.999304
0.999307
0.999309
0.999311
0.999313
0.999315
0.999316
0.999318
0.999319
0.99932
0.999321
0.999322
0.999322
0.999323
0.999323
0.999322
0.999322
0.999321
0.99932
0.999319
0.999317
0.999316
0.999314
0.999312
0.99931
0.999308
0.999306
0.999304
0.999302
0.9993
0.999297
0.999296
0.999294
0.999292
0.999291
0.99929
0.999289
0.999289
0.999289
0.999289
0.99929
0.999291
0.999292
0.999293
0.999295
0.999297
0.9993
0.999302
0.999305
0.999308
0.999311
0.999314
0.999317
0.99932
0.999322
0.999325
0.999328
0.99933
0.999332
0.999334
0.999335
0.999337
0.999338
0.999338
0.999339
0.999788
0.999788
0.999788
0.999788
0.999787
0.999787
0.999786
0.999785
0.999785
0.999784
0.999783
0.999782
0.999781
0.99978
0.99978
0.999779
0.999778
0.999777
0.999776
0.999775
0.999775
0.999774
0.999774
0.999773
0.999773
0.999773
0.999773
0.999773
0.999773
0.999773
0.999774
0.999774
0.999774
0.999775
0.999776
0.999776
0.999777
0.999778
0.999778
0.999779
0.99978
0.99978
0.999781
0.999781
0.999782
0.999782
0.999783
0.999783
0.999783
0.999783
0.999783
0.999783
0.999783
0.999783
0.999783
0.999782
0.999782
0.999782
0.999781
0.999781
0.99978
0.99978
0.999779
0.999778
0.999777
0.999777
0.999776
0.999775
0.999775
0.999774
0.999774
0.999773
0.999773
0.999773
0.999773
0.999773
0.999773
0.999773
0.999773
0.999774
0.999774
0.999775
0.999775
0.999776
0.999777
0.999778
0.999779
0.99978
0.999781
0.999782
0.999782
0.999783
0.999784
0.999785
0.999786
0.999786
0.999787
0.999787
0.999788
0.999788
0.999788
0.999788
)
;

boundaryField
{
    top
    {
        type            calculated;
        value           uniform 1;
    }
    bottom
    {
        type            calculated;
        value           uniform 0.148957;
    }
    frontAndBack
    {
        type            empty;
    }
    left_cyc
    {
        type            cyclic;
    }
    right_cyc
    {
        type            cyclic;
    }
}


// ************************************************************************* //
