/*--------------------------------*- C++ -*----------------------------------*\
| =========                 |                                                 |
| \\      /  F ield         | OpenFOAM: The Open Source CFD Toolbox           |
|  \\    /   O peration     | Version:  2.3.0                                 |
|   \\  /    A nd           | Web:      www.OpenFOAM.org                      |
|    \\/     M anipulation  |                                                 |
\*---------------------------------------------------------------------------*/
FoamFile
{
    version     2.0;
    format      ascii;
    class       volScalarField;
    location    "2000";
    object      NUEff;
}
// * * * * * * * * * * * * * * * * * * * * * * * * * * * * * * * * * * * * * //

dimensions      [0 2 -1 0 0 0 0];

internalField   nonuniform List<scalar> 
765
(
0.0163639
0.0162949
0.0162903
0.0163042
0.0162743
0.0161426
0.0159874
0.0157806
0.0155226
0.0154484
0.0157816
0.0161041
0.0163445
0.0165424
0.0167113
0.0167386
0.016674
0.0165812
0.0165081
0.0164854
0.0165331
0.0166368
0.0167762
0.0169498
0.0171646
0.0174344
0.0177813
0.0182377
0.0188473
0.0196653
0.020759
0.0222307
0.0243462
0.0266055
0.0288261
0.0310384
0.0328277
0.0333393
0.0311336
0.0279695
0.0244893
0.0220214
0.0204252
0.0193187
0.0185233
0.0179376
0.017495
0.0171524
0.016882
0.016666
0.0164941
0.0222639
0.0219439
0.0217502
0.0216
0.0213614
0.0209201
0.020155
0.0189987
0.0176753
0.017203
0.018577
0.0202156
0.0215626
0.0224547
0.0229752
0.023169
0.0231587
0.0230919
0.0230781
0.0231858
0.0234477
0.0239155
0.0245906
0.0254464
0.0265053
0.0278222
0.0295015
0.0317445
0.0349626
0.0400654
0.049296
0.0681841
0.101314
0.161352
0.289818
0.508794
0.635621
0.57585
0.279203
0.127184
0.0752264
0.0528836
0.041902
0.0357615
0.0318283
0.0291454
0.0271709
0.0256555
0.0244666
0.0235285
0.0227988
0.0296078
0.0288321
0.0282207
0.0276766
0.027041
0.0260839
0.0243526
0.0219153
0.0194034
0.0184854
0.0208143
0.0240232
0.026983
0.0290822
0.0301822
0.0308579
0.0313397
0.0317943
0.0323391
0.0330661
0.034046
0.0353306
0.0370435
0.0393425
0.042359
0.0463413
0.0517339
0.0594179
0.0713621
0.0926133
0.138324
0.265272
0.619278
0.838285
0.90567
0.931215
0.938355
0.928782
0.877975
0.558016
0.156664
0.0878667
0.0655234
0.0546341
0.0479112
0.0429365
0.0391047
0.0361342
0.0338085
0.0319925
0.0306032
0.0342776
0.0332497
0.032353
0.031548
0.0307123
0.0294385
0.0271632
0.0239131
0.0206146
0.0193721
0.0222541
0.0265193
0.030493
0.0332309
0.0347077
0.0357024
0.0367292
0.0379172
0.0392974
0.0408987
0.0427704
0.0449822
0.0476268
0.0508143
0.0547061
0.0595271
0.0657332
0.0742801
0.0873122
0.110336
0.161102
0.319565
0.706674
0.878661
0.931285
0.951597
0.957489
0.950881
0.91825
0.711506
0.165956
0.0831677
0.0613412
0.0522617
0.0475223
0.0445195
0.0422381
0.0402311
0.038409
0.0368102
0.0354524
0.0342317
0.0334094
0.0326488
0.0319865
0.0313397
0.03028
0.028205
0.0248782
0.0213371
0.0199451
0.0229453
0.0275323
0.0315449
0.0338976
0.0350098
0.0357129
0.0366351
0.0378792
0.0393841
0.0410674
0.0428702
0.0447639
0.0467442
0.0488287
0.0510703
0.0535924
0.056667
0.060859
0.0673445
0.0788013
0.102686
0.16916
0.47182
0.847757
0.930823
0.956584
0.964197
0.959129
0.930137
0.741937
0.145901
0.0702644
0.0514369
0.0440729
0.0407127
0.0390296
0.0380554
0.0373237
0.0366274
0.0358723
0.0350652
0.031992
0.0314584
0.0309764
0.0306064
0.0302537
0.0296401
0.0280415
0.0250453
0.0216717
0.0202909
0.0230753
0.0274531
0.0310602
0.0327597
0.0331976
0.0334485
0.0338891
0.0346873
0.0357693
0.0370121
0.0383039
0.039565
0.040752
0.0418587
0.0429238
0.0440522
0.0454554
0.0475232
0.0509751
0.0572575
0.0698745
0.100683
0.222835
0.764079
0.92433
0.958825
0.968623
0.965015
0.938773
0.756562
0.13269
0.0620675
0.0449953
0.0383642
0.0354944
0.0342382
0.0337042
0.0334428
0.0332168
0.0329118
0.0324962
0.0296232
0.0292935
0.0290409
0.0288903
0.0287853
0.0284102
0.0271381
0.0246779
0.0218148
0.0205584
0.0229316
0.0266001
0.0296197
0.0310517
0.0312611
0.0311771
0.0311907
0.0315116
0.0321071
0.0328846
0.0337421
0.0345939
0.0353832
0.0360867
0.0367228
0.0373686
0.0381902
0.0394893
0.0417929
0.0460802
0.0544894
0.0735696
0.137011
0.611263
0.916706
0.960689
0.972397
0.970144
0.947029
0.780833
0.124673
0.0578696
0.041537
0.0350945
0.0323476
0.0311699
0.0307181
0.0305505
0.0304273
0.030238
0.0299594
0.0277092
0.0275179
0.0273915
0.0273104
0.0272338
0.0268906
0.0259145
0.024098
0.021889
0.0207964
0.0227274
0.0255213
0.0277801
0.0289555
0.0292731
0.0292314
0.0291966
0.0292576
0.0294894
0.0298855
0.030401
0.0309786
0.0315675
0.0321342
0.0326728
0.0332246
0.0339112
0.0349793
0.0368686
0.0403795
0.0470864
0.0616757
0.105931
0.45835
0.911599
0.962885
0.975858
0.974752
0.955049
0.819718
0.125114
0.0558864
0.039928
0.0336669
0.030796
0.0294632
0.0288714
0.0285899
0.0283902
0.0281785
0.0279423
0.0263133
0.026149
0.0260274
0.0259373
0.025799
0.0254684
0.0247451
0.0234882
0.021908
0.0210118
0.0225105
0.024501
0.0260806
0.0269869
0.0273652
0.0274721
0.0275251
0.0276143
0.0277654
0.0279989
0.028318
0.0287121
0.0291652
0.0296647
0.0302116
0.0308398
0.031646
0.032834
0.0347763
0.0381444
0.0443483
0.0574713
0.0958466
0.399369
0.912442
0.965667
0.979101
0.978902
0.962645
0.864866
0.141621
0.0574076
0.040191
0.0335205
0.0303294
0.0287036
0.0278523
0.0273642
0.0270284
0.0267546
0.0265166
0.0254578
0.0252295
0.0250354
0.0248553
0.0246449
0.0243277
0.023795
0.0229567
0.0218964
0.0212143
0.0223202
0.0236688
0.0247339
0.0254104
0.0257933
0.0260185
0.0261922
0.0263752
0.0265978
0.0268726
0.0272067
0.0276049
0.02807
0.0286086
0.0292451
0.0300333
0.0310829
0.0325998
0.0349488
0.0387911
0.0455936
0.0599035
0.103907
0.506601
0.924882
0.969866
0.982227
0.982673
0.9697
0.905841
0.203885
0.0648585
0.0430951
0.0350927
0.03117
0.0290283
0.0277904
0.0270163
0.0264776
0.0260649
0.0257323
0.0255112
0.0250832
0.0247048
0.0243603
0.0240261
0.0236633
0.0232161
0.0226321
0.0219395
0.0214619
0.0222438
0.0231434
0.0238849
0.024438
0.0248623
0.0252285
0.0255883
0.0259715
0.0263935
0.0268645
0.0273944
0.0279946
0.0286772
0.0294577
0.030369
0.0315241
0.0330772
0.0352955
0.0386424
0.0439661
0.0533231
0.0742241
0.153691
0.763529
0.944051
0.975353
0.985498
0.986164
0.976223
0.937692
0.497591
0.0880419
0.0515421
0.0400363
0.034501
0.0313872
0.0294893
0.02823
0.0273116
0.0265885
0.0260034
0.0277374
0.0268317
0.0260391
0.0253355
0.0247016
0.0241173
0.0235588
0.023004
0.0224689
0.0221306
0.0227093
0.0234047
0.0240764
0.0247174
0.0253567
0.0260228
0.0267339
0.0275014
0.0283373
0.0292596
0.0302952
0.031475
0.0328279
0.0343869
0.0362096
0.0384029
0.0413586
0.0455783
0.0520293
0.062727
0.0834344
0.143143
0.537276
0.906617
0.962969
0.981498
0.988871
0.989455
0.98227
0.960414
0.862146
0.203573
0.0802399
0.0552096
0.0447486
0.0391221
0.0356654
0.0332851
0.031476
0.0300008
0.0287859
0.0374346
0.0349844
0.0329444
0.0312088
0.029711
0.0284127
0.0272947
0.0263562
0.0256328
0.0252777
0.0258841
0.0267939
0.0278647
0.0290736
0.0304211
0.0319119
0.033557
0.0353819
0.0374372
0.0398089
0.0426245
0.0460446
0.0502297
0.0553758
0.061877
0.0704083
0.0824204
0.101441
0.136383
0.219513
0.487741
0.816803
0.921739
0.960236
0.978213
0.987621
0.992236
0.992603
0.98792
0.976628
0.950052
0.861944
0.409504
0.149363
0.095229
0.0737371
0.0619218
0.0541798
0.0486278
0.0441756
0.040444
0.130224
0.103385
0.0860752
0.0740323
0.0652227
0.0585917
0.0535692
0.0498696
0.0474387
0.0465368
0.0479402
0.0511916
0.05542
0.0607605
0.0674572
0.0759065
0.0867621
0.10116
0.121221
0.151254
0.200839
0.291777
0.455758
0.650917
0.780088
0.850232
0.889544
0.915231
0.933478
0.947486
0.958946
0.968729
0.977103
0.983987
0.989318
0.993165
0.995462
0.995618
0.993133
0.988329
0.980792
0.969569
0.953621
0.931949
0.902508
0.860063
0.791912
0.662136
0.444611
0.266883
0.176514
0.981449
0.979543
0.977481
0.975252
0.972866
0.970379
0.96792
0.965728
0.964163
0.963669
0.964623
0.966766
0.969184
0.971589
0.97388
0.976
0.977935
0.979694
0.981303
0.982793
0.984191
0.985504
0.986718
0.98783
0.988858
0.989813
0.990685
0.991424
0.992101
0.992766
0.99346
0.994217
0.995056
0.995969
0.99691
0.997788
0.998421
0.998446
0.997699
0.996549
0.995243
0.993939
0.992737
0.991671
0.990702
0.98974
0.988675
0.987529
0.986257
0.984823
0.983212
)
;

boundaryField
{
    top
    {
        type            calculated;
        value           uniform 1;
    }
    bottom
    {
        type            calculated;
        value           uniform 0.0143123;
    }
    frontAndBack
    {
        type            empty;
    }
    left_cyc
    {
        type            cyclic;
    }
    right_cyc
    {
        type            cyclic;
    }
}


// ************************************************************************* //
