/*--------------------------------*- C++ -*----------------------------------*\
| =========                 |                                                 |
| \\      /  F ield         | OpenFOAM: The Open Source CFD Toolbox           |
|  \\    /   O peration     | Version:  2.3.0                                 |
|   \\  /    A nd           | Web:      www.OpenFOAM.org                      |
|    \\/     M anipulation  |                                                 |
\*---------------------------------------------------------------------------*/
FoamFile
{
    version     2.0;
    format      ascii;
    class       volScalarField;
    location    "2000";
    object      p;
}
// * * * * * * * * * * * * * * * * * * * * * * * * * * * * * * * * * * * * * //

dimensions      [0 2 -2 0 0 0 0];

internalField   nonuniform List<scalar> 
765
(
0
-13.2024
-37.5938
-72.0598
-115.069
-164.391
-216.573
-266.82
-311.122
-347.062
-371.34
-381.434
-384.166
-383.452
-378.367
-363.507
-333.548
-294.071
-246.859
-195.363
-144.337
-98.2615
-60.1254
-31.8817
-14.8855
-10.0434
-17.6717
-37.2939
-67.8951
-108.01
-155.501
-207.07
-257.966
-303.734
-341.302
-368.216
-380.279
-384.044
-384.086
-380.239
-367.672
-340.08
-302.281
-256.395
-205.304
-153.362
-105.164
-63.8415
-31.4367
-9.3751
1.30484
43.3583
34.7915
19.2115
-2.43378
-29.092
-59.5439
-92.5386
-127.664
-162.028
-187.044
-202.377
-210.356
-211.745
-211.45
-208.238
-197.254
-178.725
-149.723
-114.547
-80.9473
-49.7408
-21.7682
1.63884
19.2755
30.0761
33.1819
28.2885
15.8618
-3.1714
-27.7176
-56.5355
-88.3086
-122.454
-157.165
-183.826
-200.409
-209.702
-211.784
-211.829
-209.566
-199.792
-182.683
-155.243
-119.958
-85.2651
-52.7305
-22.9818
2.69282
23.1159
37.2605
44.2087
133.012
126.147
113.688
96.5004
75.548
51.7912
26.1455
-0.802716
-26.6632
-44.037
-52.3222
-53.008
-49.9978
-50.7526
-53.6349
-50.136
-39.0913
-17.9551
8.58149
34.464
58.7114
80.515
98.8913
112.834
121.397
123.861
119.976
110.121
95.0875
75.8453
53.3988
28.7194
2.49666
-23.5973
-42.4778
-51.7409
-53.4996
-50.3595
-50.5511
-53.6769
-51.2369
-41.2839
-21.5402
5.07202
31.7742
57.0859
80.3214
100.548
116.799
128.122
133.694
219.706
213.914
203.434
189.114
171.976
153.137
133.818
115.343
99.8341
89.6987
87.3843
95.5789
103.708
101.516
91.4885
86.4934
92.3883
104.527
121.357
139.935
158.669
176.219
191.375
203.025
210.217
212.285
209.018
200.743
188.204
172.399
154.46
135.626
117.243
101.182
90.2352
86.4303
93.6426
102.833
102.446
93.0778
86.7681
91.3641
102.694
119.138
137.921
157.254
175.831
192.458
206.038
215.576
220.279
292.442
287.827
279.558
268.466
255.544
241.842
228.43
216.408
207.311
203.034
206.264
219.69
230.804
227.919
213.581
203.377
203.67
209.887
220.219
232.658
245.925
258.881
270.424
279.493
285.164
286.8
284.211
277.697
267.973
256.006
242.872
229.679
217.568
207.96
202.859
204.516
216.882
229.699
229.295
216.081
204.431
203.384
208.832
218.763
231.193
244.769
258.399
271.022
281.594
289.143
292.898
362.639
359.041
352.683
344.361
335.028
325.664
317.215
310.579
306.693
306.496
311.002
322.119
332.154
329.396
317.037
308.392
305.978
307.659
312.695
320.026
328.721
337.81
346.288
353.154
357.526
358.795
356.784
351.775
344.452
335.737
326.64
318.161
311.254
306.866
306.025
309.591
319.787
331.128
330.738
319.102
309.367
306.108
307.161
311.749
318.859
327.591
337.038
346.245
354.228
360.059
362.995
430.865
428.292
423.843
418.23
412.289
406.863
402.727
400.556
400.809
403.759
409.351
417.583
424.455
422.538
414.151
406.887
402.4
400.554
401.337
404.345
408.988
414.501
420.041
424.739
427.815
428.719
427.286
423.776
418.806
413.186
407.789
403.444
400.889
400.659
403.104
408.185
416.041
423.747
423.463
415.544
407.808
402.815
400.454
400.772
403.42
407.902
413.515
419.466
424.905
429.012
431.12
497.869
496.419
494.039
491.287
488.795
487.187
487.02
488.713
492.354
497.759
504.325
511.205
515.923
514.669
508.646
501.834
495.737
491.073
488.294
487.443
488.253
490.212
492.706
495.088
496.758
497.267
496.462
494.577
492.106
489.668
487.909
487.428
488.701
491.913
496.952
503.276
510.123
515.475
515.276
509.695
502.776
496.403
491.345
488.129
486.861
487.384
489.24
491.851
494.583
496.814
498.015
563.164
563.024
563.021
563.473
564.713
567.063
570.798
576.048
582.644
590.121
597.617
604.032
607.721
606.795
601.837
594.95
587.447
580.35
574.368
569.831
566.759
564.942
564.075
563.828
563.871
563.919
563.847
563.837
564.189
565.236
567.306
570.69
575.567
581.838
589.103
596.565
603.165
607.418
607.263
602.771
596.009
588.426
581.079
574.748
569.82
566.409
564.33
563.295
562.977
563.043
563.183
625.568
626.97
629.712
633.798
639.18
645.797
653.572
662.342
671.752
681.183
689.697
696.195
699.515
698.7
694.028
686.67
677.743
668.31
659.192
650.898
643.705
637.741
633.093
629.828
627.968
627.468
628.265
630.44
634.02
638.969
645.216
652.669
661.182
670.426
679.831
688.506
695.368
699.277
699.151
695.019
687.979
679.168
669.668
660.351
651.769
644.242
637.892
632.79
628.996
626.55
625.435
683.32
686.466
692.276
700.385
710.316
721.574
733.684
746.169
758.512
770.006
779.729
786.686
790.01
789.17
784.307
776.14
765.598
753.681
741.242
728.923
717.251
706.738
697.908
691.276
687.271
686.143
687.933
692.564
699.737
708.996
719.819
731.683
744.077
756.462
768.154
778.256
785.764
789.784
789.69
785.496
777.848
767.646
755.89
743.461
731.015
719.053
708.043
698.464
690.814
685.553
683.013
734.213
739.2
748.23
760.554
775.266
791.433
808.167
824.661
840.223
854.066
865.301
873.047
876.62
875.661
870.26
860.924
848.437
833.716
817.637
800.978
784.528
769.204
755.976
745.807
739.537
737.74
740.585
747.804
758.753
772.548
788.217
804.798
821.388
837.233
851.534
863.396
871.917
876.364
876.311
871.771
863.187
851.299
837.005
821.177
804.577
787.891
771.958
757.677
745.986
737.767
733.72
775.802
782.54
794.621
810.948
830.242
851.194
872.554
893.2
912.228
928.735
941.823
950.675
954.684
953.536
947.312
936.448
921.658
903.826
883.888
862.801
841.628
821.65
804.22
790.689
782.266
779.828
783.68
793.36
807.895
826.032
846.407
867.68
888.59
908.137
925.37
939.357
949.242
954.366
954.363
949.246
939.399
925.485
908.35
888.896
868.023
846.643
825.933
807.159
791.635
780.614
775.131
805.387
813.55
828.103
847.673
870.714
895.664
921.038
945.487
967.853
987.071
1002.17
1012.3
1016.86
1015.49
1008.29
995.715
978.506
957.588
934.023
908.983
883.793
859.969
839.118
822.859
812.684
809.721
814.396
826.074
843.52
865.197
889.478
914.772
939.591
962.663
982.841
999.092
1010.52
1016.46
1016.51
1010.68
999.39
983.31
963.318
940.405
915.656
890.247
865.573
843.139
824.513
811.222
804.57
821.064
830.026
845.946
867.295
892.389
919.565
947.269
974.075
998.601
1019.64
1036.14
1047.19
1052.14
1050.61
1042.71
1028.93
1010.07
987.118
961.256
933.846
906.386
880.444
857.719
839.958
828.805
825.544
830.685
843.473
862.517
886.132
912.569
940.154
967.358
992.685
1014.82
1032.63
1045.16
1051.69
1051.77
1045.42
1033.1
1015.53
993.628
968.496
941.364
913.649
886.784
862.349
842.022
827.474
820.163
)
;

boundaryField
{
    top
    {
        type            calculated;
        value           nonuniform List<scalar> 
51
(
822.897
832.343
849.019
871.272
897.336
925.515
954.279
982.233
1007.85
1029.85
1047.12
1058.72
1063.94
1062.32
1054
1039.55
1019.79
995.783
968.771
940.222
911.722
884.78
861.111
842.529
830.793
827.34
832.776
846.213
866.115
890.689
918.132
946.765
975.135
1001.6
1024.76
1043.42
1056.57
1063.45
1063.54
1056.86
1043.94
1025.54
1002.65
976.407
948.121
919.375
891.517
866.124
844.917
829.658
821.942
)
;
    }
    bottom
    {
        type            calculated;
        value           nonuniform List<scalar> 
51
(
-71.4969
-84.972
-109.844
-144.973
-188.805
-239.089
-292.334
-343.582
-388.853
-425.732
-450.869
-461.645
-464.745
-463.941
-458.356
-442.733
-411.87
-371.43
-323.223
-270.656
-218.59
-171.607
-132.726
-103.921
-86.5753
-81.6265
-89.4198
-109.442
-140.647
-181.544
-229.976
-282.605
-334.549
-381.306
-419.83
-447.626
-460.407
-464.595
-464.618
-460.322
-447.026
-418.55
-379.803
-332.942
-280.827
-227.841
-178.708
-136.597
-103.567
-81.0667
-70.163
)
;
    }
    frontAndBack
    {
        type            empty;
    }
    left_cyc
    {
        type            cyclic;
    }
    right_cyc
    {
        type            cyclic;
    }
}


// ************************************************************************* //
