/*--------------------------------*- C++ -*----------------------------------*\
| =========                 |                                                 |
| \\      /  F ield         | OpenFOAM: The Open Source CFD Toolbox           |
|  \\    /   O peration     | Version:  2.3.0                                 |
|   \\  /    A nd           | Web:      www.OpenFOAM.org                      |
|    \\/     M anipulation  |                                                 |
\*---------------------------------------------------------------------------*/
FoamFile
{
    version     2.0;
    format      ascii;
    class       volScalarField;
    location    "2000";
    object      p;
}
// * * * * * * * * * * * * * * * * * * * * * * * * * * * * * * * * * * * * * //

dimensions      [0 2 -2 0 0 0 0];

internalField   nonuniform List<scalar> 
3060
(
-1197.42
-1197.52
-1197.71
-1197.99
-1198.35
-1198.78
-1199.29
-1199.85
-1200.47
-1201.12
-1201.81
-1202.53
-1203.25
-1203.97
-1204.69
-1205.39
-1206.06
-1206.69
-1207.28
-1207.82
-1208.3
-1208.73
-1209.09
-1209.38
-1209.6
-1209.75
-1209.83
-1209.84
-1209.78
-1209.66
-1209.47
-1209.23
-1208.93
-1208.59
-1208.21
-1207.8
-1207.36
-1206.9
-1206.43
-1205.96
-1205.5
-1205.04
-1204.61
-1204.21
-1203.84
-1203.52
-1203.24
-1203.01
-1202.84
-1202.73
-1202.68
-1202.69
-1202.76
-1202.89
-1203.07
-1203.31
-1203.61
-1203.94
-1204.32
-1204.73
-1205.17
-1205.63
-1206.09
-1206.56
-1207.03
-1207.48
-1207.92
-1208.32
-1208.69
-1209.02
-1209.3
-1209.53
-1209.69
-1209.8
-1209.84
-1209.81
-1209.71
-1209.54
-1209.3
-1208.99
-1208.61
-1208.17
-1207.67
-1207.12
-1206.52
-1205.87
-1205.19
-1204.49
-1203.77
-1203.05
-1202.33
-1201.62
-1200.94
-1200.29
-1199.69
-1199.14
-1198.66
-1198.24
-1197.91
-1197.65
-1197.48
-1197.4
-1117.58
-1117.68
-1117.86
-1118.12
-1118.46
-1118.87
-1119.34
-1119.87
-1120.45
-1121.08
-1121.73
-1122.4
-1123.08
-1123.77
-1124.45
-1125.11
-1125.74
-1126.34
-1126.91
-1127.42
-1127.88
-1128.29
-1128.63
-1128.91
-1129.13
-1129.28
-1129.36
-1129.37
-1129.32
-1129.21
-1129.04
-1128.82
-1128.54
-1128.23
-1127.87
-1127.49
-1127.08
-1126.65
-1126.21
-1125.77
-1125.33
-1124.91
-1124.5
-1124.13
-1123.78
-1123.48
-1123.22
-1123
-1122.84
-1122.74
-1122.69
-1122.7
-1122.76
-1122.88
-1123.06
-1123.29
-1123.56
-1123.88
-1124.23
-1124.62
-1125.03
-1125.45
-1125.89
-1126.33
-1126.77
-1127.19
-1127.6
-1127.97
-1128.32
-1128.62
-1128.88
-1129.09
-1129.25
-1129.34
-1129.37
-1129.34
-1129.24
-1129.07
-1128.84
-1128.54
-1128.18
-1127.76
-1127.28
-1126.75
-1126.18
-1125.57
-1124.93
-1124.26
-1123.58
-1122.89
-1122.21
-1121.54
-1120.9
-1120.29
-1119.72
-1119.2
-1118.75
-1118.36
-1118.04
-1117.8
-1117.64
-1117.57
-1040.51
-1040.61
-1040.78
-1041.03
-1041.35
-1041.74
-1042.19
-1042.69
-1043.24
-1043.83
-1044.45
-1045.09
-1045.74
-1046.39
-1047.03
-1047.66
-1048.27
-1048.84
-1049.37
-1049.87
-1050.31
-1050.69
-1051.02
-1051.29
-1051.5
-1051.65
-1051.73
-1051.74
-1051.7
-1051.6
-1051.44
-1051.23
-1050.98
-1050.68
-1050.35
-1049.99
-1049.6
-1049.2
-1048.78
-1048.37
-1047.96
-1047.56
-1047.17
-1046.82
-1046.49
-1046.2
-1045.96
-1045.76
-1045.6
-1045.5
-1045.46
-1045.47
-1045.53
-1045.64
-1045.81
-1046.02
-1046.28
-1046.58
-1046.92
-1047.28
-1047.67
-1048.07
-1048.48
-1048.9
-1049.31
-1049.71
-1050.09
-1050.44
-1050.77
-1051.05
-1051.3
-1051.49
-1051.63
-1051.72
-1051.74
-1051.71
-1051.61
-1051.45
-1051.22
-1050.94
-1050.59
-1050.19
-1049.73
-1049.23
-1048.68
-1048.1
-1047.49
-1046.85
-1046.21
-1045.56
-1044.91
-1044.28
-1043.67
-1043.09
-1042.55
-1042.06
-1041.62
-1041.25
-1040.95
-1040.72
-1040.57
-1040.5
-966.436
-966.52
-966.677
-966.904
-967.197
-967.553
-967.965
-968.427
-968.931
-969.472
-970.039
-970.626
-971.223
-971.823
-972.418
-972.998
-973.558
-974.09
-974.587
-975.044
-975.455
-975.818
-976.127
-976.382
-976.578
-976.717
-976.797
-976.82
-976.786
-976.698
-976.559
-976.373
-976.142
-975.873
-975.571
-975.24
-974.888
-974.52
-974.144
-973.765
-973.39
-973.026
-972.678
-972.354
-972.057
-971.794
-971.569
-971.386
-971.247
-971.156
-971.113
-971.12
-971.177
-971.282
-971.433
-971.629
-971.865
-972.138
-972.443
-972.774
-973.127
-973.495
-973.871
-974.25
-974.625
-974.988
-975.335
-975.658
-975.951
-976.21
-976.428
-976.602
-976.727
-976.8
-976.818
-976.779
-976.683
-976.528
-976.315
-976.045
-975.721
-975.344
-974.919
-974.451
-973.944
-973.404
-972.838
-972.253
-971.656
-971.056
-970.461
-969.879
-969.319
-968.788
-968.294
-967.845
-967.449
-967.11
-966.834
-966.627
-966.49
-966.426
-895.526
-895.595
-895.725
-895.914
-896.158
-896.454
-896.798
-897.185
-897.609
-898.065
-898.545
-899.043
-899.553
-900.067
-900.579
-901.081
-901.567
-902.03
-902.466
-902.868
-903.233
-903.555
-903.833
-904.063
-904.244
-904.374
-904.455
-904.485
-904.466
-904.401
-904.29
-904.139
-903.949
-903.726
-903.474
-903.198
-902.904
-902.596
-902.28
-901.963
-901.65
-901.345
-901.055
-900.785
-900.538
-900.319
-900.132
-899.979
-899.864
-899.789
-899.753
-899.759
-899.806
-899.893
-900.019
-900.181
-900.378
-900.605
-900.859
-901.135
-901.43
-901.737
-902.052
-902.369
-902.683
-902.987
-903.277
-903.547
-903.791
-904.005
-904.184
-904.324
-904.422
-904.475
-904.48
-904.436
-904.342
-904.197
-904.002
-903.759
-903.468
-903.134
-902.759
-902.347
-901.903
-901.433
-900.942
-900.437
-899.924
-899.41
-898.903
-898.409
-897.935
-897.488
-897.073
-896.698
-896.367
-896.085
-895.856
-895.683
-895.57
-895.517
-827.734
-827.785
-827.88
-828.019
-828.198
-828.416
-828.67
-828.957
-829.271
-829.61
-829.969
-830.343
-830.728
-831.118
-831.509
-831.896
-832.272
-832.634
-832.977
-833.297
-833.59
-833.853
-834.082
-834.276
-834.433
-834.551
-834.632
-834.674
-834.678
-834.647
-834.581
-834.483
-834.355
-834.202
-834.026
-833.832
-833.623
-833.404
-833.179
-832.952
-832.728
-832.509
-832.302
-832.107
-831.93
-831.773
-831.639
-831.529
-831.447
-831.392
-831.367
-831.371
-831.405
-831.467
-831.557
-831.674
-831.815
-831.978
-832.16
-832.359
-832.57
-832.79
-833.015
-833.242
-833.466
-833.683
-833.888
-834.077
-834.247
-834.393
-834.513
-834.602
-834.658
-834.68
-834.665
-834.612
-834.521
-834.392
-834.224
-834.02
-833.782
-833.511
-833.21
-832.883
-832.534
-832.168
-831.788
-831.4
-831.009
-830.62
-830.238
-829.867
-829.514
-829.181
-828.874
-828.596
-828.352
-828.144
-827.976
-827.849
-827.766
-827.727
-762.353
-762.394
-762.469
-762.578
-762.719
-762.89
-763.089
-763.313
-763.558
-763.821
-764.099
-764.388
-764.684
-764.984
-765.284
-765.58
-765.87
-766.148
-766.413
-766.661
-766.89
-767.097
-767.281
-767.439
-767.571
-767.676
-767.753
-767.803
-767.825
-767.82
-767.79
-767.736
-767.659
-767.563
-767.448
-767.318
-767.176
-767.025
-766.867
-766.707
-766.547
-766.39
-766.239
-766.098
-765.968
-765.852
-765.752
-765.671
-765.609
-765.569
-765.55
-765.553
-765.578
-765.625
-765.692
-765.778
-765.883
-766.003
-766.136
-766.281
-766.433
-766.591
-766.752
-766.912
-767.068
-767.217
-767.356
-767.481
-767.591
-767.682
-767.753
-767.8
-767.823
-767.821
-767.791
-767.734
-767.649
-767.536
-767.397
-767.231
-767.041
-766.828
-766.593
-766.34
-766.071
-765.789
-765.498
-765.2
-764.9
-764.6
-764.306
-764.02
-763.746
-763.487
-763.248
-763.031
-762.84
-762.677
-762.544
-762.444
-762.379
-762.348
-699.409
-699.444
-699.509
-699.603
-699.724
-699.871
-700.042
-700.233
-700.442
-700.667
-700.903
-701.149
-701.4
-701.654
-701.907
-702.157
-702.4
-702.635
-702.858
-703.067
-703.26
-703.435
-703.592
-703.728
-703.843
-703.936
-704.007
-704.056
-704.083
-704.088
-704.072
-704.036
-703.981
-703.909
-703.822
-703.722
-703.611
-703.492
-703.366
-703.237
-703.108
-702.98
-702.857
-702.741
-702.634
-702.539
-702.456
-702.389
-702.338
-702.304
-702.288
-702.291
-702.312
-702.35
-702.406
-702.478
-702.564
-702.663
-702.773
-702.891
-703.016
-703.144
-703.273
-703.401
-703.526
-703.643
-703.751
-703.848
-703.931
-703.998
-704.047
-704.078
-704.088
-704.077
-704.044
-703.989
-703.912
-703.813
-703.692
-703.55
-703.388
-703.207
-703.009
-702.796
-702.57
-702.333
-702.087
-701.836
-701.582
-701.329
-701.079
-700.836
-700.602
-700.382
-700.177
-699.992
-699.828
-699.688
-699.574
-699.488
-699.431
-699.405
-639.206
-639.235
-639.29
-639.37
-639.473
-639.599
-639.744
-639.907
-640.086
-640.277
-640.479
-640.689
-640.905
-641.122
-641.34
-641.555
-641.765
-641.967
-642.159
-642.34
-642.508
-642.66
-642.797
-642.916
-643.018
-643.101
-643.165
-643.21
-643.237
-643.245
-643.235
-643.208
-643.165
-643.107
-643.037
-642.955
-642.863
-642.765
-642.661
-642.554
-642.447
-642.341
-642.238
-642.142
-642.052
-641.973
-641.904
-641.848
-641.806
-641.777
-641.764
-641.766
-641.784
-641.816
-641.862
-641.922
-641.994
-642.076
-642.168
-642.266
-642.37
-642.476
-642.584
-642.69
-642.793
-642.89
-642.978
-643.057
-643.124
-643.178
-643.217
-643.239
-643.244
-643.231
-643.199
-643.149
-643.079
-642.991
-642.884
-642.76
-642.619
-642.462
-642.291
-642.106
-641.911
-641.706
-641.495
-641.279
-641.061
-640.844
-640.63
-640.422
-640.222
-640.034
-639.86
-639.701
-639.562
-639.442
-639.345
-639.272
-639.224
-639.202
-581.795
-581.82
-581.866
-581.932
-582.017
-582.121
-582.241
-582.376
-582.524
-582.684
-582.852
-583.027
-583.206
-583.387
-583.569
-583.749
-583.925
-584.095
-584.257
-584.41
-584.552
-584.682
-584.798
-584.901
-584.988
-585.061
-585.118
-585.159
-585.184
-585.195
-585.19
-585.172
-585.14
-585.096
-585.041
-584.976
-584.904
-584.825
-584.743
-584.657
-584.571
-584.486
-584.404
-584.326
-584.254
-584.19
-584.135
-584.09
-584.055
-584.033
-584.022
-584.024
-584.038
-584.064
-584.101
-584.149
-584.207
-584.273
-584.347
-584.426
-584.509
-584.595
-584.681
-584.766
-584.848
-584.925
-584.995
-585.057
-585.109
-585.15
-585.178
-585.193
-585.193
-585.178
-585.149
-585.103
-585.042
-584.965
-584.873
-584.767
-584.646
-584.513
-584.368
-584.212
-584.048
-583.876
-583.699
-583.518
-583.336
-583.155
-582.977
-582.804
-582.638
-582.482
-582.337
-582.206
-582.09
-581.991
-581.911
-581.851
-581.811
-581.792
-527.186
-527.205
-527.241
-527.293
-527.36
-527.442
-527.537
-527.643
-527.76
-527.886
-528.02
-528.158
-528.301
-528.446
-528.591
-528.735
-528.876
-529.013
-529.144
-529.268
-529.384
-529.49
-529.586
-529.671
-529.744
-529.806
-529.855
-529.892
-529.917
-529.929
-529.93
-529.92
-529.899
-529.868
-529.829
-529.782
-529.729
-529.671
-529.609
-529.545
-529.48
-529.416
-529.354
-529.296
-529.241
-529.193
-529.151
-529.117
-529.091
-529.074
-529.066
-529.067
-529.078
-529.097
-529.126
-529.162
-529.206
-529.256
-529.311
-529.371
-529.434
-529.498
-529.563
-529.626
-529.687
-529.744
-529.796
-529.841
-529.878
-529.906
-529.924
-529.931
-529.927
-529.911
-529.883
-529.842
-529.79
-529.725
-529.648
-529.56
-529.461
-529.352
-529.234
-529.108
-528.975
-528.837
-528.695
-528.55
-528.405
-528.261
-528.119
-527.982
-527.85
-527.727
-527.612
-527.509
-527.417
-527.34
-527.277
-527.229
-527.198
-527.183
-475.377
-475.39
-475.416
-475.454
-475.503
-475.562
-475.63
-475.708
-475.793
-475.884
-475.981
-476.083
-476.187
-476.294
-476.401
-476.508
-476.613
-476.715
-476.814
-476.908
-476.996
-477.078
-477.152
-477.219
-477.277
-477.328
-477.369
-477.402
-477.426
-477.441
-477.447
-477.446
-477.436
-477.42
-477.397
-477.368
-477.335
-477.298
-477.258
-477.216
-477.173
-477.131
-477.09
-477.051
-477.015
-476.982
-476.954
-476.931
-476.914
-476.902
-476.897
-476.898
-476.905
-476.918
-476.937
-476.962
-476.991
-477.024
-477.061
-477.101
-477.143
-477.185
-477.227
-477.269
-477.308
-477.344
-477.376
-477.404
-477.425
-477.439
-477.447
-477.446
-477.437
-477.42
-477.393
-477.358
-477.314
-477.262
-477.201
-477.132
-477.055
-476.972
-476.882
-476.787
-476.687
-476.584
-476.478
-476.371
-476.264
-476.158
-476.054
-475.954
-475.858
-475.768
-475.685
-475.61
-475.544
-475.488
-475.442
-475.408
-475.385
-475.375
-426.364
-426.372
-426.388
-426.411
-426.44
-426.476
-426.518
-426.565
-426.617
-426.673
-426.733
-426.796
-426.861
-426.928
-426.996
-427.064
-427.132
-427.199
-427.263
-427.326
-427.386
-427.442
-427.494
-427.542
-427.585
-427.624
-427.657
-427.685
-427.709
-427.726
-427.739
-427.747
-427.749
-427.748
-427.742
-427.732
-427.72
-427.704
-427.687
-427.668
-427.649
-427.629
-427.609
-427.59
-427.572
-427.556
-427.543
-427.531
-427.522
-427.517
-427.514
-427.514
-427.518
-427.524
-427.534
-427.546
-427.561
-427.577
-427.595
-427.614
-427.634
-427.654
-427.673
-427.692
-427.709
-427.723
-427.735
-427.744
-427.748
-427.749
-427.745
-427.736
-427.722
-427.703
-427.678
-427.648
-427.613
-427.573
-427.529
-427.48
-427.426
-427.369
-427.309
-427.245
-427.18
-427.113
-427.045
-426.977
-426.909
-426.843
-426.778
-426.716
-426.657
-426.602
-426.551
-426.506
-426.465
-426.431
-426.404
-426.383
-426.369
-426.363
-380.142
-380.144
-380.15
-380.157
-380.167
-380.18
-380.194
-380.21
-380.229
-380.249
-380.271
-380.294
-380.319
-380.345
-380.373
-380.401
-380.431
-380.46
-380.491
-380.521
-380.551
-380.581
-380.61
-380.639
-380.667
-380.693
-380.719
-380.743
-380.765
-380.786
-380.805
-380.822
-380.838
-380.851
-380.863
-380.874
-380.882
-380.889
-380.895
-380.9
-380.904
-380.907
-380.909
-380.911
-380.912
-380.913
-380.913
-380.913
-380.914
-380.914
-380.914
-380.914
-380.914
-380.914
-380.913
-380.913
-380.912
-380.911
-380.91
-380.908
-380.906
-380.903
-380.899
-380.893
-380.887
-380.88
-380.871
-380.86
-380.848
-380.834
-380.818
-380.8
-380.78
-380.759
-380.736
-380.712
-380.686
-380.659
-380.631
-380.602
-380.573
-380.543
-380.512
-380.482
-380.452
-380.422
-380.393
-380.365
-380.338
-380.312
-380.287
-380.264
-380.243
-380.223
-380.205
-380.19
-380.176
-380.164
-380.155
-380.148
-380.143
-380.141
-336.702
-336.7
-336.694
-336.687
-336.677
-336.666
-336.653
-336.638
-336.622
-336.606
-336.589
-336.573
-336.557
-336.542
-336.528
-336.517
-336.507
-336.499
-336.494
-336.492
-336.492
-336.495
-336.501
-336.51
-336.522
-336.536
-336.554
-336.573
-336.595
-336.619
-336.645
-336.672
-336.701
-336.73
-336.76
-336.791
-336.821
-336.851
-336.881
-336.91
-336.937
-336.963
-336.988
-337.01
-337.031
-337.048
-337.063
-337.075
-337.084
-337.09
-337.093
-337.093
-337.089
-337.082
-337.072
-337.059
-337.043
-337.025
-337.004
-336.981
-336.956
-336.929
-336.901
-336.872
-336.843
-336.813
-336.782
-336.752
-336.722
-336.693
-336.665
-336.638
-336.612
-336.589
-336.568
-336.549
-336.532
-336.518
-336.507
-336.499
-336.494
-336.492
-336.492
-336.495
-336.501
-336.509
-336.52
-336.532
-336.546
-336.561
-336.577
-336.594
-336.61
-336.627
-336.642
-336.656
-336.669
-336.68
-336.689
-336.696
-336.701
-336.703
-296.039
-296.031
-296.015
-295.993
-295.964
-295.928
-295.888
-295.842
-295.792
-295.739
-295.684
-295.628
-295.571
-295.515
-295.46
-295.408
-295.358
-295.313
-295.273
-295.237
-295.207
-295.183
-295.166
-295.155
-295.151
-295.153
-295.162
-295.178
-295.2
-295.227
-295.26
-295.297
-295.339
-295.385
-295.433
-295.484
-295.536
-295.589
-295.642
-295.695
-295.747
-295.796
-295.843
-295.886
-295.925
-295.96
-295.99
-296.013
-296.031
-296.043
-296.049
-296.048
-296.041
-296.027
-296.007
-295.982
-295.951
-295.915
-295.874
-295.83
-295.782
-295.732
-295.68
-295.627
-295.574
-295.521
-295.469
-295.419
-295.372
-295.327
-295.286
-295.25
-295.219
-295.193
-295.173
-295.159
-295.152
-295.152
-295.158
-295.17
-295.19
-295.215
-295.247
-295.284
-295.326
-295.372
-295.422
-295.475
-295.53
-295.587
-295.643
-295.7
-295.754
-295.806
-295.855
-295.899
-295.939
-295.972
-296
-296.02
-296.034
-296.04
-258.145
-258.131
-258.105
-258.068
-258.019
-257.961
-257.893
-257.816
-257.733
-257.644
-257.551
-257.455
-257.357
-257.26
-257.164
-257.072
-256.984
-256.901
-256.825
-256.757
-256.697
-256.646
-256.605
-256.575
-256.555
-256.545
-256.546
-256.558
-256.579
-256.61
-256.649
-256.697
-256.752
-256.814
-256.88
-256.951
-257.026
-257.102
-257.179
-257.255
-257.331
-257.403
-257.472
-257.536
-257.594
-257.645
-257.689
-257.725
-257.752
-257.769
-257.777
-257.776
-257.765
-257.745
-257.715
-257.677
-257.631
-257.578
-257.518
-257.453
-257.383
-257.31
-257.234
-257.157
-257.08
-257.005
-256.931
-256.861
-256.796
-256.736
-256.683
-256.638
-256.6
-256.572
-256.554
-256.545
-256.547
-256.56
-256.583
-256.616
-256.66
-256.713
-256.775
-256.846
-256.924
-257.008
-257.097
-257.191
-257.287
-257.384
-257.482
-257.577
-257.669
-257.757
-257.838
-257.912
-257.978
-258.034
-258.079
-258.114
-258.136
-258.147
-223.012
-222.993
-222.957
-222.905
-222.838
-222.756
-222.662
-222.556
-222.44
-222.315
-222.185
-222.05
-221.913
-221.775
-221.639
-221.507
-221.381
-221.261
-221.15
-221.05
-220.96
-220.883
-220.82
-220.77
-220.734
-220.712
-220.706
-220.713
-220.734
-220.768
-220.815
-220.873
-220.941
-221.018
-221.103
-221.194
-221.29
-221.388
-221.489
-221.589
-221.687
-221.782
-221.873
-221.957
-222.034
-222.101
-222.159
-222.206
-222.241
-222.265
-222.276
-222.274
-222.259
-222.233
-222.194
-222.144
-222.083
-222.013
-221.934
-221.848
-221.756
-221.66
-221.561
-221.46
-221.36
-221.263
-221.168
-221.079
-220.996
-220.921
-220.856
-220.801
-220.758
-220.727
-220.71
-220.706
-220.717
-220.743
-220.782
-220.836
-220.904
-220.984
-221.077
-221.181
-221.294
-221.415
-221.544
-221.677
-221.813
-221.951
-222.088
-222.221
-222.35
-222.473
-222.586
-222.689
-222.78
-222.858
-222.921
-222.969
-223
-223.015
-190.635
-190.61
-190.565
-190.499
-190.413
-190.31
-190.189
-190.054
-189.906
-189.748
-189.581
-189.409
-189.233
-189.057
-188.882
-188.712
-188.548
-188.392
-188.248
-188.116
-187.998
-187.895
-187.809
-187.74
-187.689
-187.656
-187.641
-187.645
-187.666
-187.703
-187.757
-187.825
-187.906
-187.998
-188.101
-188.211
-188.328
-188.448
-188.571
-188.694
-188.815
-188.932
-189.044
-189.147
-189.242
-189.325
-189.396
-189.454
-189.498
-189.527
-189.54
-189.538
-189.52
-189.487
-189.439
-189.378
-189.303
-189.216
-189.119
-189.013
-188.9
-188.781
-188.66
-188.537
-188.414
-188.295
-188.18
-188.071
-187.972
-187.882
-187.805
-187.741
-187.692
-187.659
-187.643
-187.644
-187.664
-187.702
-187.758
-187.831
-187.922
-188.029
-188.152
-188.287
-188.435
-188.593
-188.759
-188.93
-189.106
-189.282
-189.457
-189.628
-189.793
-189.948
-190.093
-190.224
-190.34
-190.439
-190.519
-190.579
-190.619
-190.638
-161.005
-160.976
-160.921
-160.841
-160.739
-160.614
-160.469
-160.307
-160.129
-159.938
-159.736
-159.528
-159.316
-159.102
-158.89
-158.683
-158.483
-158.294
-158.117
-157.954
-157.809
-157.681
-157.573
-157.486
-157.421
-157.377
-157.355
-157.355
-157.375
-157.416
-157.476
-157.554
-157.647
-157.754
-157.874
-158.003
-158.139
-158.281
-158.425
-158.57
-158.713
-158.851
-158.982
-159.104
-159.216
-159.314
-159.399
-159.467
-159.519
-159.553
-159.569
-159.566
-159.545
-159.506
-159.449
-159.376
-159.288
-159.186
-159.071
-158.946
-158.813
-158.673
-158.53
-158.385
-158.241
-158.101
-157.966
-157.839
-157.723
-157.62
-157.531
-157.458
-157.403
-157.368
-157.353
-157.359
-157.387
-157.437
-157.509
-157.602
-157.715
-157.848
-157.998
-158.165
-158.346
-158.538
-158.74
-158.949
-159.161
-159.375
-159.587
-159.793
-159.992
-160.179
-160.353
-160.511
-160.651
-160.769
-160.866
-160.939
-160.986
-161.009
-134.117
-134.083
-134.02
-133.928
-133.809
-133.664
-133.497
-133.308
-133.102
-132.88
-132.646
-132.404
-132.157
-131.908
-131.661
-131.419
-131.186
-130.964
-130.756
-130.565
-130.393
-130.242
-130.114
-130.01
-129.93
-129.876
-129.847
-129.843
-129.864
-129.908
-129.974
-130.06
-130.165
-130.287
-130.422
-130.569
-130.724
-130.886
-131.051
-131.216
-131.379
-131.537
-131.687
-131.827
-131.954
-132.067
-132.163
-132.242
-132.301
-132.34
-132.358
-132.355
-132.331
-132.286
-132.221
-132.138
-132.037
-131.92
-131.789
-131.646
-131.493
-131.334
-131.17
-131.005
-130.84
-130.68
-130.527
-130.383
-130.252
-130.135
-130.035
-129.954
-129.894
-129.856
-129.843
-129.853
-129.889
-129.951
-130.037
-130.148
-130.283
-130.44
-130.617
-130.813
-131.025
-131.25
-131.486
-131.73
-131.977
-132.226
-132.472
-132.712
-132.943
-133.161
-133.362
-133.545
-133.707
-133.844
-133.956
-134.04
-134.096
-134.121
-109.965
-109.927
-109.856
-109.752
-109.618
-109.455
-109.267
-109.054
-108.821
-108.571
-108.307
-108.034
-107.755
-107.473
-107.193
-106.919
-106.654
-106.402
-106.166
-105.948
-105.752
-105.579
-105.432
-105.311
-105.219
-105.155
-105.119
-105.112
-105.132
-105.179
-105.251
-105.346
-105.462
-105.596
-105.746
-105.91
-106.083
-106.263
-106.447
-106.631
-106.813
-106.989
-107.157
-107.313
-107.455
-107.581
-107.688
-107.776
-107.842
-107.885
-107.905
-107.902
-107.875
-107.825
-107.753
-107.66
-107.547
-107.416
-107.27
-107.111
-106.94
-106.762
-106.58
-106.395
-106.212
-106.034
-105.863
-105.703
-105.557
-105.428
-105.318
-105.229
-105.164
-105.125
-105.112
-105.127
-105.17
-105.242
-105.343
-105.471
-105.625
-105.805
-106.007
-106.23
-106.471
-106.727
-106.995
-107.271
-107.551
-107.833
-108.111
-108.382
-108.642
-108.888
-109.115
-109.321
-109.503
-109.658
-109.784
-109.879
-109.941
-109.97
-88.5438
-88.5016
-88.4229
-88.309
-88.1614
-87.9822
-87.774
-87.5399
-87.283
-87.0072
-86.7162
-86.4143
-86.1055
-85.7943
-85.4847
-85.1811
-84.8875
-84.6075
-84.3449
-84.1028
-83.8841
-83.6914
-83.5266
-83.3914
-83.2869
-83.2138
-83.1723
-83.162
-83.1822
-83.2316
-83.3086
-83.4112
-83.537
-83.6833
-83.8472
-84.0254
-84.2147
-84.4117
-84.6127
-84.8145
-85.0134
-85.2062
-85.3895
-85.5603
-85.7159
-85.8536
-85.9713
-86.067
-86.1392
-86.1867
-86.2089
-86.2052
-86.1759
-86.1213
-86.0423
-85.9403
-85.8168
-85.6738
-85.5137
-85.3391
-85.1529
-84.9581
-84.7581
-84.5563
-84.3561
-84.161
-83.9745
-83.8001
-83.6409
-83.5002
-83.3807
-83.2851
-83.2156
-83.1743
-83.1626
-83.1815
-83.2319
-83.3138
-83.4269
-83.5704
-83.7431
-83.9433
-84.1686
-84.4167
-84.6844
-84.9684
-85.2651
-85.5707
-85.881
-86.1919
-86.4991
-86.7984
-87.0855
-87.3564
-87.6072
-87.8345
-88.0349
-88.2055
-88.344
-88.4483
-88.517
-88.5489
-69.8471
-69.8015
-69.7165
-69.5933
-69.4336
-69.2399
-69.0147
-68.7614
-68.4834
-68.1848
-67.8696
-67.5424
-67.2077
-66.8699
-66.5339
-66.204
-65.8847
-65.5801
-65.294
-65.0301
-64.7913
-64.5806
-64.4001
-64.2516
-64.1364
-64.0552
-64.0082
-63.995
-64.015
-64.0667
-64.1483
-64.2578
-64.3924
-64.5492
-64.7252
-64.9168
-65.1204
-65.3323
-65.5487
-65.7658
-65.9799
-66.1873
-66.3846
-66.5685
-66.7359
-66.8841
-67.0107
-67.1137
-67.1913
-67.2425
-67.2663
-67.2624
-67.2308
-67.1721
-67.0871
-66.9773
-66.8444
-66.6906
-66.5183
-66.3304
-66.13
-65.9204
-65.7051
-65.4879
-65.2724
-65.0626
-64.8621
-64.6746
-64.5038
-64.3529
-64.2251
-64.1233
-64.0499
-64.007
-63.9962
-64.0188
-64.0753
-64.1661
-64.2906
-64.4481
-64.6372
-64.8559
-65.1019
-65.3723
-65.6638
-65.9728
-66.2953
-66.6272
-66.9641
-67.3014
-67.6344
-67.9586
-68.2696
-68.5628
-68.8343
-69.0801
-69.2969
-69.4814
-69.6311
-69.7439
-69.8181
-69.8527
-53.8719
-53.8233
-53.7329
-53.6017
-53.4318
-53.2255
-52.9857
-52.7159
-52.4197
-52.1015
-51.7655
-51.4165
-51.0592
-50.6986
-50.3396
-49.9869
-49.6453
-49.3192
-49.0127
-48.7296
-48.4733
-48.2469
-48.0526
-47.8924
-47.7678
-47.6794
-47.6275
-47.6118
-47.6315
-47.6851
-47.7707
-47.886
-48.0282
-48.1942
-48.3806
-48.5837
-48.7997
-49.0245
-49.2541
-49.4845
-49.7117
-49.9318
-50.1411
-50.3361
-50.5136
-50.6708
-50.805
-50.9142
-50.9966
-51.0508
-51.076
-51.0719
-51.0384
-50.9761
-50.8861
-50.7696
-50.6287
-50.4656
-50.2829
-50.0835
-49.8709
-49.6485
-49.4201
-49.1896
-48.961
-48.7384
-48.5257
-48.327
-48.1461
-47.9865
-47.8516
-47.7444
-47.6676
-47.6234
-47.6135
-47.6393
-47.7013
-47.7999
-47.9345
-48.1043
-48.3077
-48.5427
-48.8066
-49.0965
-49.4088
-49.7395
-50.0846
-50.4393
-50.7992
-51.1593
-51.5146
-51.8604
-52.1919
-52.5044
-52.7936
-53.0554
-53.2862
-53.4827
-53.642
-53.7621
-53.841
-53.8778
-40.6101
-40.5592
-40.4643
-40.3268
-40.1486
-39.9322
-39.6806
-39.3975
-39.0867
-38.7525
-38.3997
-38.033
-37.6575
-37.2782
-36.9004
-36.5291
-36.1692
-35.8254
-35.5021
-35.2033
-34.9326
-34.6931
-34.4874
-34.3175
-34.1849
-34.0905
-34.0345
-34.0166
-34.0359
-34.0909
-34.1796
-34.2996
-34.4479
-34.6213
-34.8162
-35.0286
-35.2546
-35.4898
-35.7301
-35.9712
-36.2088
-36.4391
-36.658
-36.8619
-37.0476
-37.2119
-37.3523
-37.4664
-37.5525
-37.6092
-37.6356
-37.6312
-37.5962
-37.5311
-37.437
-37.3153
-37.1679
-36.9973
-36.8063
-36.5978
-36.3754
-36.1427
-35.9038
-35.6626
-35.4234
-35.1904
-34.9679
-34.7601
-34.571
-34.4044
-34.2638
-34.1523
-34.0729
-34.0278
-34.0188
-34.0473
-34.114
-34.2191
-34.3622
-34.5422
-34.7575
-35.0059
-35.2846
-35.5906
-35.9199
-36.2685
-36.6319
-37.0054
-37.384
-37.7626
-38.1361
-38.4994
-38.8475
-39.1755
-39.479
-39.7538
-39.9959
-40.2019
-40.3691
-40.495
-40.5778
-40.6163
-30.0506
-29.998
-29.9
-29.758
-29.574
-29.3505
-29.0906
-28.7981
-28.4769
-28.1315
-27.7666
-27.3873
-26.9987
-26.6061
-26.2147
-25.8299
-25.4567
-25.1
-24.7644
-24.454
-24.1726
-23.9235
-23.7093
-23.5322
-23.3937
-23.2947
-23.2355
-23.2157
-23.2345
-23.2904
-23.3812
-23.5043
-23.6569
-23.8355
-24.0363
-24.2553
-24.4883
-24.7309
-24.9788
-25.2274
-25.4724
-25.7097
-25.9354
-26.1455
-26.3368
-26.5061
-26.6507
-26.7683
-26.857
-26.9154
-26.9426
-26.9381
-26.9021
-26.835
-26.738
-26.6126
-26.4608
-26.285
-26.0881
-25.8733
-25.6441
-25.4042
-25.1578
-24.9091
-24.6624
-24.4221
-24.1927
-23.9785
-23.7836
-23.6121
-23.4675
-23.3532
-23.272
-23.2265
-23.2183
-23.2491
-23.3194
-23.4294
-23.5788
-23.7664
-23.9905
-24.2488
-24.5385
-24.8562
-25.1981
-25.5597
-25.9365
-26.3235
-26.7157
-27.1076
-27.494
-27.8697
-28.2296
-28.5687
-28.8823
-29.1662
-29.4162
-29.6291
-29.8017
-29.9317
-30.0172
-30.057
-22.3675
-22.3118
-22.208
-22.0575
-21.8625
-21.6256
-21.3503
-21.0402
-20.6996
-20.3333
-19.9463
-19.5438
-19.1313
-18.7144
-18.2985
-17.8894
-17.4924
-17.1128
-16.7553
-16.4246
-16.1245
-15.8586
-15.6298
-15.4403
-15.2918
-15.1852
-15.121
-15.0986
-15.1172
-15.1751
-15.2702
-15.3998
-15.5606
-15.7491
-15.9611
-16.1926
-16.4389
-16.6954
-16.9575
-17.2203
-17.4793
-17.7302
-17.9686
-18.1907
-18.3928
-18.5717
-18.7245
-18.8487
-18.9424
-19.0041
-19.0328
-19.0281
-18.99
-18.9192
-18.8167
-18.6842
-18.5238
-18.3381
-18.13
-17.903
-17.6607
-17.4072
-17.1467
-16.8838
-16.6229
-16.3689
-16.1264
-15.9001
-15.6943
-15.5133
-15.361
-15.2409
-15.156
-15.109
-15.1017
-15.1358
-15.2119
-15.3302
-15.4902
-15.6908
-15.9302
-16.2058
-16.5147
-16.8532
-17.2171
-17.602
-18.0027
-18.4142
-18.8308
-19.2469
-19.6571
-20.0558
-20.4375
-20.797
-21.1295
-21.4304
-21.6954
-21.9209
-22.1038
-22.2415
-22.3321
-22.3743
-16.1732
-16.1302
-16.05
-15.9338
-15.7832
-15.6003
-15.3876
-15.1481
-14.885
-14.6021
-14.303
-13.992
-13.6732
-13.3508
-13.0293
-12.7128
-12.4057
-12.112
-11.8354
-11.5795
-11.3473
-11.1416
-10.9646
-10.818
-10.7032
-10.6209
-10.5713
-10.5543
-10.5689
-10.614
-10.688
-10.7886
-10.9134
-11.0596
-11.2241
-11.4036
-11.5945
-11.7933
-11.9963
-12.1999
-12.4004
-12.5945
-12.779
-12.9508
-13.1072
-13.2455
-13.3637
-13.4598
-13.5322
-13.5799
-13.6021
-13.5985
-13.569
-13.5142
-13.435
-13.3325
-13.2085
-13.0649
-12.9039
-12.7283
-12.5408
-12.3446
-12.1429
-11.9392
-11.7371
-11.5402
-11.3522
-11.1767
-11.0171
-10.8767
-10.7585
-10.6652
-10.5992
-10.5625
-10.5566
-10.5828
-10.6415
-10.7329
-10.8566
-11.0118
-11.197
-11.4103
-11.6493
-11.9112
-12.1928
-12.4905
-12.8005
-13.1187
-13.4408
-13.7626
-14.0796
-14.3876
-14.6825
-14.9603
-15.2171
-15.4495
-15.6541
-15.8283
-15.9696
-16.0759
-16.1459
-16.1785
-18.5784
-18.4751
-18.2825
-18.0033
-17.6414
-17.2019
-16.6907
-16.115
-15.4827
-14.8023
-14.0831
-13.3348
-12.5675
-11.7914
-11.0167
-10.254
-9.51321
-8.80419
-8.13604
-7.51712
-6.95496
-6.45605
-6.02583
-5.6686
-5.38744
-5.18423
-5.05959
-5.01292
-5.04244
-5.14519
-5.31716
-5.5533
-5.8477
-6.19361
-6.58362
-7.00977
-7.46368
-7.93669
-8.42004
-8.90495
-9.38287
-9.84561
-10.2855
-10.6951
-11.068
-11.398
-11.6798
-11.909
-12.0818
-12.1956
-12.2486
-12.2399
-12.1696
-12.0389
-11.8499
-11.6055
-11.3096
-10.967
-10.5832
-10.1644
-9.71751
-9.24982
-8.76925
-8.28408
-7.80295
-7.33462
-6.88785
-6.47123
-6.09302
-5.76104
-5.48251
-5.26394
-5.11103
-5.02853
-5.02016
-5.08854
-5.23515
-5.46022
-5.76279
-6.14066
-6.59038
-7.10736
-7.68585
-8.31906
-8.99924
-9.7178
-10.4654
-11.2323
-12.0082
-12.7827
-13.5455
-14.2866
-14.9958
-15.6636
-16.281
-16.8395
-17.3313
-17.7499
-18.0892
-18.3447
-18.5127
-18.591
)
;

boundaryField
{
    top
    {
        type            calculated;
        value           nonuniform List<scalar> 
102
(
-9.81
-9.81
-9.81
-9.81
-9.81
-9.81
-9.81
-9.81
-9.81
-9.81
-9.81
-9.81
-9.81
-9.81
-9.81
-9.81
-9.81
-9.81
-9.81
-9.81
-9.81
-9.81
-9.81
-9.81
-9.81
-9.81
-9.81
-9.81
-9.81
-9.81
-9.81
-9.81
-9.81
-9.81
-9.81
-9.81
-9.81
-9.81
-9.81
-9.81
-9.81
-9.81
-9.81
-9.81
-9.81
-9.81
-9.81
-9.81
-9.81
-9.81
-9.81
-9.81
-9.81
-9.81
-9.81
-9.81
-9.81
-9.81
-9.81
-9.81
-9.81
-9.81
-9.81
-9.81
-9.81
-9.81
-9.81
-9.81
-9.81
-9.81
-9.81
-9.81
-9.81
-9.81
-9.81
-9.81
-9.81
-9.81
-9.81
-9.81
-9.81
-9.81
-9.81
-9.81
-9.81
-9.81
-9.81
-9.81
-9.81
-9.81
-9.81
-9.81
-9.81
-9.81
-9.81
-9.81
-9.81
-9.81
-9.81
-9.81
-9.81
-9.81
)
;
    }
    bottom
    {
        type            calculated;
        value           nonuniform List<scalar> 
102
(
-1238.19
-1238.29
-1238.49
-1238.77
-1239.13
-1239.56
-1240.07
-1240.63
-1241.25
-1241.91
-1242.61
-1243.32
-1244.05
-1244.77
-1245.49
-1246.19
-1246.86
-1247.5
-1248.09
-1248.63
-1249.12
-1249.55
-1249.91
-1250.2
-1250.42
-1250.57
-1250.65
-1250.66
-1250.6
-1250.47
-1250.29
-1250.04
-1249.75
-1249.41
-1249.02
-1248.61
-1248.17
-1247.71
-1247.24
-1246.76
-1246.3
-1245.84
-1245.41
-1245.01
-1244.64
-1244.31
-1244.03
-1243.8
-1243.63
-1243.52
-1243.47
-1243.47
-1243.54
-1243.67
-1243.86
-1244.11
-1244.4
-1244.74
-1245.12
-1245.53
-1245.97
-1246.43
-1246.9
-1247.37
-1247.84
-1248.29
-1248.73
-1249.13
-1249.51
-1249.83
-1250.12
-1250.34
-1250.51
-1250.62
-1250.66
-1250.63
-1250.53
-1250.36
-1250.12
-1249.81
-1249.43
-1248.99
-1248.49
-1247.93
-1247.33
-1246.68
-1246
-1245.29
-1244.57
-1243.85
-1243.12
-1242.41
-1241.73
-1241.08
-1240.47
-1239.92
-1239.43
-1239.02
-1238.68
-1238.42
-1238.26
-1238.18
)
;
    }
    frontAndBack
    {
        type            empty;
    }
    left_cyc
    {
        type            cyclic;
    }
    right_cyc
    {