/*--------------------------------*- C++ -*----------------------------------*\
| =========                 |                                                 |
| \\      /  F ield         | OpenFOAM: The Open Source CFD Toolbox           |
|  \\    /   O peration     | Version:  2.3.0                                 |
|   \\  /    A nd           | Web:      www.OpenFOAM.org                      |
|    \\/     M anipulation  |                                                 |
\*---------------------------------------------------------------------------*/
FoamFile
{
    version     2.0;
    format      ascii;
    class       volScalarField;
    location    "2000";
    object      p;
}
// * * * * * * * * * * * * * * * * * * * * * * * * * * * * * * * * * * * * * //

dimensions      [0 2 -2 0 0 0 0];

internalField   nonuniform List<scalar> 
765
(
0
-1186.37
-1097.27
-1122.18
-1109.72
-1098.26
-1078.67
-1051.9
-1017.55
-978.132
-936.465
-894.968
-854.916
-815.992
-777.382
-738.73
-699.989
-661.343
-623.213
-586.257
-551.363
-519.607
-492.176
-470.257
-454.919
-447
-446.997
-454.911
-470.244
-492.159
-519.588
-551.342
-586.235
-623.19
-661.319
-699.965
-738.709
-777.363
-815.973
-854.896
-894.948
-936.449
-978.119
-1017.54
-1051.89
-1078.66
-1098.26
-1109.71
-1122.18
-1097.27
-1186.37
-861.618
-1027.13
-961.339
-961.196
-946.569
-935.825
-919.539
-897.642
-869.963
-836.722
-799.923
-761.484
-722.976
-685.463
-649.226
-614.133
-580.119
-547.282
-515.874
-486.281
-458.993
-434.582
-413.685
-396.997
-385.253
-379.147
-379.144
-385.245
-396.987
-413.675
-434.575
-458.986
-486.271
-515.86
-547.264
-580.1
-614.115
-649.209
-685.445
-722.959
-761.47
-799.913
-836.712
-869.953
-897.638
-919.538
-935.822
-946.568
-961.19
-961.335
-1027.12
-722.216
-798.458
-777.328
-785.73
-780.841
-778.896
-770.122
-751.756
-725.304
-695.398
-663.912
-631.259
-598.11
-565.348
-533.511
-502.745
-473.118
-444.747
-417.824
-392.62
-369.486
-348.849
-331.214
-317.157
-307.29
-302.171
-302.169
-307.284
-317.149
-331.206
-348.841
-369.477
-392.609
-417.81
-444.732
-473.103
-502.731
-533.497
-565.334
-598.097
-631.251
-663.903
-695.387
-725.297
-751.756
-770.119
-778.893
-780.851
-785.725
-777.33
-798.469
-603.741
-637.563
-626.413
-629.523
-627.525
-630.083
-623.581
-604.945
-581.817
-558.428
-533.985
-508.217
-481.578
-454.753
-428.205
-402.169
-376.799
-352.247
-328.707
-306.44
-285.791
-267.197
-251.189
-238.368
-229.349
-224.673
-224.67
-229.344
-238.36
-251.182
-267.19
-285.783
-306.43
-328.695
-352.235
-376.788
-402.159
-428.195
-454.744
-481.573
-508.214
-533.978
-558.419
-581.813
-604.94
-623.572
-630.087
-627.524
-629.525
-626.412
-637.557
-464.105
-479.132
-474.321
-476.572
-477.777
-482.525
-479.346
-466.562
-450.682
-433.52
-414.927
-395.122
-374.478
-353.436
-332.329
-311.372
-290.727
-270.54
-250.984
-232.286
-214.754
-198.793
-184.912
-173.7
-165.764
-161.636
-161.633
-165.758
-173.692
-184.906
-198.788
-214.748
-232.278
-250.975
-270.532
-290.72
-311.366
-332.322
-353.433
-374.478
-395.122
-414.924
-433.521
-450.689
-466.563
-479.348
-482.518
-477.783
-476.571
-474.322
-479.131
-322.648
-329.097
-327.505
-329.656
-332.097
-337.662
-339.457
-333.014
-323.32
-312.206
-299.643
-285.84
-271.069
-255.66
-239.889
-223.952
-207.996
-192.154
-176.572
-161.445
-147.046
-133.744
-122.016
-112.43
-105.582
-101.999
-101.996
-105.576
-112.423
-122.011
-133.74
-147.043
-161.441
-176.567
-192.15
-207.993
-223.947
-239.884
-255.658
-271.069
-285.836
-299.635
-312.201
-323.309
-332.997
-339.484
-337.667
-332.097
-329.657
-327.509
-329.109
-177.863
-181.022
-181.542
-184.288
-187.326
-192.876
-199.054
-199.893
-196.536
-191.408
-184.682
-176.604
-167.431
-157.43
-146.848
-135.866
-124.62
-113.226
-101.804
-90.5126
-79.5704
-69.2858
-60.0679
-52.4181
-46.8835
-43.9608
-43.9583
-46.8774
-52.4118
-60.0639
-69.2841
-79.5697
-90.5118
-101.804
-113.225
-124.618
-135.862
-146.846
-157.433
-167.435
-176.607
-184.69
-191.429
-196.556
-199.896
-199.047
-192.882
-187.332
-184.293
-181.544
-181.015
-32.0107
-33.8938
-35.6399
-39.0376
-42.5054
-47.599
-56.6426
-65.0515
-68.1494
-68.6659
-67.424
-64.7425
-60.881
-56.088
-50.5739
-44.5234
-38.0689
-31.314
-24.3543
-17.3005
-10.301
-3.56713
2.60977
7.85374
11.7287
13.8109
13.8128
11.7329
7.85748
2.6111
-3.56786
-10.3023
-17.3016
-24.3555
-31.3147
-38.0677
-44.5212
-50.5749
-56.094
-60.8871
-64.7454
-67.4277
-68.6653
-68.14
-65.0684
-56.6416
-47.6067
-42.5109
-39.0415
-35.6417
-33.889
115.293
113.882
111.4
107.407
103.201
98.1633
88.4508
74.2808
63.8303
57.6576
53.6773
51.2382
50.0147
49.734
50.1901
51.204
52.6446
54.4181
56.4584
58.7115
61.1236
63.6174
66.0725
68.3061
70.0667
71.0672
71.068
70.0679
68.3061
66.0708
63.615
61.1217
58.7099
56.4562
54.4157
52.6431
51.2023
50.1852
49.7275
50.0135
51.2402
53.6702
57.6477
63.8319
74.2642
88.4489
98.16
103.2
107.407
111.399
113.87
263.807
262.51
259.433
254.691
249.178
242.911
233.175
217.308
200.421
187.899
178.496
170.949
164.697
159.364
154.682
150.465
146.587
142.972
139.591
136.459
133.64
131.218
129.286
127.909
127.088
126.746
126.745
127.086
127.906
129.282
131.215
133.638
136.457
139.586
142.965
146.579
150.455
154.668
159.349
164.687
170.943
178.487
187.894
200.419
217.299
233.173
242.908
249.176
254.689
259.432
262.504
414.212
412.924
409.507
404.23
397.382
388.749
377.547
361.61
341.775
323.235
307.879
294.773
283.13
272.413
262.251
252.399
242.722
233.168
223.761
214.601
205.883
197.878
190.917
185.353
181.495
179.547
179.546
181.492
185.348
190.912
197.874
205.88
214.595
223.753
233.159
242.715
252.393
262.242
272.404
283.125
294.766
307.869
323.234
341.771
361.603
377.544
388.744
397.377
404.225
409.504
412.931
561.153
559.143
553.593
545.012
533.717
520.436
505.968
488.617
467.903
447.033
428.047
410.672
394.383
378.736
363.404
348.151
332.827
317.418
302.024
286.833
272.196
258.572
246.537
236.729
229.774
226.172
226.172
229.771
236.725
246.531
258.566
272.188
286.824
302.016
317.414
332.826
348.148
363.394
378.723
394.371
410.658
428.033
447.031
467.9
488.611
505.965
520.432
533.714
545.009
553.589
559.144
687.884
685.01
677.495
667.249
655.272
642.345
629.182
614.418
596.394
576.012
554.788
533.317
511.807
490.265
468.623
446.804
424.743
402.436
380.067
357.913
336.487
316.432
298.577
283.879
273.327
267.796
267.796
273.325
283.874
298.569
316.422
336.477
357.905
380.06
402.43
424.732
446.784
468.596
490.244
511.798
533.31
554.779
576.008
596.39
614.414
629.181
642.345
655.271
667.248
677.494
684.996
701.798
699.843
694.493
687.197
680.299
674.54
667.54
656.637
641.185
622.537
602.042
580.438
558.121
535.27
511.956
488.206
464.061
439.537
414.845
390.191
366.268
343.881
324.002
307.702
296.051
289.974
289.973
296.049
307.697
323.994
343.873
366.263
390.184
414.833
439.521
464.045
488.193
511.945
535.26
558.109
580.422
602.031
622.535
641.185
656.636
667.54
674.539
680.297
687.195
694.493
699.832
1021.5
1020.8
1018.55
1015.04
1009.31
998.189
980.042
955.024
924
888.714
850.834
811.521
771.516
731.222
690.835
650.451
610.182
570.131
530.652
491.833
454.391
419.068
387.092
360.151
340.296
329.687
329.683
340.286
360.139
387.08
419.056
454.377
491.816
530.636
570.122
610.179
650.443
690.819
731.208
771.512
811.518
850.829
888.713
924.001
955.026
980.043
998.19
1009.31
1015.04
1018.55
1020.81
)
;

boundaryField
{
    top
    {
        type            calculated;
        value           nonuniform List<scalar> 
51
(
77.9532
84.4832
101.013
124.749
152.394
179.364
203.123
223.117
239.408
252.613
263.194
271.358
277.258
281.073
283.047
283.448
282.486
280.088
276.631
270.727
264.908
260.741
259.144
260.391
263.815
267.417
267.418
263.817
260.394
259.148
260.745
264.908
270.722
276.627
280.089
282.491
283.445
283.033
281.06
277.253
271.352
263.187
252.608
239.405
223.114
203.12
179.36
152.389
124.744
101.011
84.503
)
;
    }
    bottom
    {
        type            calculated;
        value           nonuniform List<scalar> 
51
(
-82.9053
-1269.22
-1179.84
-1204.14
-1190.96
-1178.87
-1158.73
-1131.47
-1096.66
-1056.81
-1014.74
-972.854
-932.406
-893.074
-854.029
-814.916
-775.68
-736.507
-697.818
-660.283
-624.807
-592.489
-564.542
-542.189
-526.53
-518.435
-518.432
-526.522
-542.176
-564.525
-592.468
-624.785
-660.26
-697.794
-736.482
-775.656
-814.894
-854.01
-893.055
-932.386
-972.834
-1014.73
-1056.8
-1096.65
-1131.46
-1158.73
-1178.88
-1190.96
-1204.13
-1179.85
-1269.22
)
;
    }
    frontAndBack
    {
        type            empty;
    }
    left_cyc
    {
        type            cyclic;
    }
    right_cyc
    {
        type            cyclic;
    }
}


// ************************************************************************* //
