/*--------------------------------*- C++ -*----------------------------------*\
| =========                 |                                                 |
| \\      /  F ield         | OpenFOAM: The Open Source CFD Toolbox           |
|  \\    /   O peration     | Version:  2.3.0                                 |
|   \\  /    A nd           | Web:      www.OpenFOAM.org                      |
|    \\/     M anipulation  |                                                 |
\*---------------------------------------------------------------------------*/
FoamFile
{
    version     2.0;
    format      ascii;
    class       volScalarField;
    location    "2000";
    object      p_rgh;
}
// * * * * * * * * * * * * * * * * * * * * * * * * * * * * * * * * * * * * * //

dimensions      [0 2 -2 0 0 0 0];

internalField   nonuniform List<scalar> 
765
(
-82.9053
-1269.22
-1179.84
-1204.14
-1190.96
-1178.87
-1158.73
-1131.47
-1096.66
-1056.81
-1014.74
-972.854
-932.406
-893.074
-854.029
-814.916
-775.68
-736.507
-697.818
-660.283
-624.807
-592.489
-564.542
-542.189
-526.53
-518.435
-518.432
-526.522
-542.176
-564.525
-592.468
-624.785
-660.26
-697.794
-736.482
-775.656
-814.894
-854.01
-893.055
-932.386
-972.834
-1014.73
-1056.8
-1096.65
-1131.46
-1158.73
-1178.88
-1190.96
-1204.13
-1179.85
-1269.22
-1110.06
-1274.85
-1206.4
-1200.74
-1180.23
-1164.14
-1143.11
-1116.87
-1085.13
-1048.09
-1007.71
-965.805
-923.831
-882.875
-843.13
-804.362
-766.471
-729.564
-693.939
-660.062
-628.542
-600.1
-575.554
-555.799
-541.785
-534.425
-534.422
-541.775
-555.786
-575.54
-600.088
-628.53
-660.047
-693.92
-729.542
-766.448
-804.34
-843.109
-882.854
-923.811
-965.788
-1007.7
-1048.08
-1085.12
-1116.86
-1143.1
-1164.13
-1180.23
-1200.73
-1206.4
-1274.84
-1135.22
-1209.3
-1180.63
-1175.44
-1156.02
-1140.64
-1119.68
-1089.95
-1052.82
-1013
-972.36
-931.116
-889.685
-848.689
-808.455
-768.996
-730.333
-692.611
-656.121
-621.295
-588.714
-559.101
-533.33
-512.41
-497.435
-489.48
-489.476
-497.425
-512.396
-533.314
-559.084
-588.695
-621.273
-656.096
-692.586
-730.309
-768.973
-808.432
-848.666
-889.665
-931.101
-972.344
-1012.98
-1052.81
-1089.95
-1119.68
-1140.63
-1156.02
-1175.44
-1180.63
-1209.31
-1179.53
-1209.07
-1183.79
-1164.36
-1137.93
-1117.45
-1089.67
-1051.17
-1009.63
-969.355
-929.431
-889.304
-848.957
-808.557
-768.267
-728.141
-688.261
-648.797
-610.046
-572.459
-536.677
-503.564
-474.228
-450.014
-432.424
-422.961
-422.956
-432.412
-449.997
-474.209
-503.544
-536.656
-572.435
-610.02
-648.771
-688.237
-728.118
-768.245
-808.536
-848.94
-889.289
-929.413
-969.335
-1009.62
-1051.16
-1089.65
-1117.45
-1137.92
-1164.36
-1183.79
-1209.06
-1200.53
-1208.93
-1183.74
-1155.11
-1122.59
-1095.02
-1061.81
-1021.24
-979.892
-939.47
-899.519
-859.825
-820.318
-780.707
-740.883
-700.792
-660.441
-619.917
-579.42
-539.324
-500.255
-463.183
-429.503
-401.043
-379.954
-368.445
-368.439
-379.939
-401.022
-429.481
-463.161
-500.231
-539.299
-579.395
-619.893
-660.419
-700.77
-740.862
-780.69
-820.305
-859.812
-899.503
-939.458
-979.886
-1021.23
-1061.8
-1095.01
-1122.59
-1155.1
-1183.73
-1208.93
-1217.76
-1215.75
-1189.07
-1154.1
-1115.55
-1081.33
-1046.13
-1005.77
-965.183
-925.851
-887.206
-848.86
-810.564
-772.131
-733.155
-693.375
-652.618
-610.788
-567.905
-524.202
-480.279
-437.273
-397.02
-362.108
-335.715
-321.146
-321.139
-335.697
-362.083
-396.993
-437.247
-480.254
-524.178
-567.881
-610.767
-652.598
-693.355
-733.135
-772.114
-810.55
-848.843
-887.185
-925.833
-965.159
-1005.74
-1046.15
-1081.32
-1115.54
-1154.09
-1189.07
-1215.76
-1230.01
-1223.54
-1196.68
-1159.48
-1117.32
-1078.14
-1042.81
-1005.72
-967.846
-931.06
-894.773
-858.454
-821.778
-784.482
-746.324
-706.692
-665.138
-621.303
-574.957
-526.151
-475.449
-424.212
-374.869
-331.042
-297.334
-278.579
-278.571
-297.311
-331.012
-374.837
-424.182
-475.421
-526.126
-574.935
-621.283
-665.12
-706.673
-746.308
-784.471
-821.769
-858.444
-894.768
-931.068
-967.854
-1005.71
-1042.79
-1078.13
-1117.32
-1159.48
-1196.68
-1223.53
-1239.72
-1231.44
-1205.36
-1168.85
-1126.99
-1086.39
-1052.14
-1020.56
-986.91
-953.341
-919.804
-885.568
-850.619
-814.232
-776.38
-736.216
-693.01
-646.11
-595.01
-539.561
-480.286
-418.791
-358.174
-303.262
-260.395
-236.374
-236.364
-260.368
-303.227
-358.137
-418.756
-480.254
-539.534
-594.988
-646.091
-692.993
-736.2
-776.369
-814.227
-850.615
-885.562
-919.798
-953.332
-986.891
-1020.56
-1052.13
-1086.39
-1126.99
-1168.85
-1205.35
-1231.43
-1246.38
-1237.71
-1213.56
-1179.97
-1141.32
-1102.35
-1069.25
-1042.87
-1015.21
-985.273
-954.399
-922.392
-888.894
-853.226
-814.673
-772.893
-726.925
-675.872
-619
-555.981
-487.286
-414.709
-341.922
-274.883
-221.729
-191.562
-191.551
-221.698
-274.843
-341.879
-414.668
-487.249
-555.95
-618.977
-675.855
-726.91
-772.882
-814.668
-853.224
-888.889
-922.385
-954.4
-985.278
-1015.2
-1042.88
-1069.24
-1102.34
-1141.32
-1179.96
-1213.55
-1237.72
-1248.81
-1240.6
-1219.28
-1189.94
-1156.26
-1121.35
-1089.75
-1065.05
-1042.43
-1016.29
-987.381
-956.302
-922.931
-886.783
-846.868
-802.506
-752.82
-696.882
-633.89
-563.452
-486.011
-403.446
-319.738
-241.577
-178.524
-141.965
-141.951
-178.49
-241.532
-319.689
-403.399
-485.968
-563.418
-633.867
-696.868
-752.812
-802.506
-846.875
-886.794
-922.938
-956.306
-987.389
-1016.29
-1042.43
-1065.06
-1089.75
-1121.35
-1156.26
-1189.94
-1219.28
-1240.6
-1240.3
-1232.82
-1214.16
-1188.54
-1159.22
-1128.76
-1099.27
-1073.61
-1051.23
-1026.92
-998.556
-966.673
-931.576
-893.169
-850.904
-803.631
-750.156
-689.739
-621.695
-545.691
-462.17
-372.98
-282.106
-196.454
-126.334
-84.832
-84.8167
-126.297
-196.405
-282.053
-372.928
-462.125
-545.657
-621.674
-689.727
-750.149
-803.63
-850.91
-893.177
-931.581
-966.681
-998.568
-1026.93
-1051.23
-1073.62
-1099.27
-1128.76
-1159.23
-1188.54
-1214.16
-1232.81
-1205.67
-1199.36
-1184.02
-1162.9
-1138.53
-1112.1
-1083.86
-1055.99
-1029.19
-1000.38
-967.575
-931.02
-891.091
-847.927
-801.373
-751.144
-695.205
-632.534
-562.702
-485.483
-401.277
-311.74
-220.499
-134.025
-62.4079
-19.2468
-19.2301
-62.3679
-133.973
-220.445
-311.69
-401.235
-485.452
-562.68
-632.519
-695.194
-751.142
-801.382
-847.942
-891.106
-931.039
-967.594
-1000.38
-1029.2
-1056
-1083.87
-1112.11
-1138.54
-1162.91
-1184.02
-1199.36
-1103.28
-1097.71
-1083.71
-1062.71
-1036.37
-1005.85
-971.406
-934.666
-897.444
-859.235
-819.052
-776.764
-732.452
-686.169
-637.828
-587.347
-535.387
-478.683
-416.503
-348.518
-274.943
-197.039
-117.614
-41.8878
21.5795
60.5252
60.5415
21.6174
-41.8412
-117.568
-196.997
-274.908
-348.49
-416.483
-478.672
-535.389
-587.363
-637.855
-686.194
-732.466
-776.777
-819.068
-859.245
-897.454
-934.675
-971.412
-1005.86
-1036.38
-1062.71
-1083.71
-1097.73
-891.691
-884.977
-867.878
-842.302
-808.551
-767.717
-723.14
-677.851
-632.905
-587.826
-542.364
-496.754
-451.267
-406.039
-361.017
-316.074
-271.42
-228.693
-185.932
-139.186
-88.7279
-35.3697
19.3078
72.04
116.968
145.106
145.118
116.995
72.0726
19.3403
-35.3385
-88.6999
-139.166
-185.926
-228.696
-271.425
-316.081
-361.026
-406.051
-451.283
-496.775
-542.381
-587.833
-632.912
-677.858
-723.146
-767.725
-808.559
-842.308
-867.882
-884.989
87.7632
94.2932
110.823
134.559
162.204
189.174
212.933
232.927
249.218
262.423
273.004
281.168
287.068
290.883
292.857
293.258
292.296
289.898
286.441
280.537
274.718
270.551
268.954
270.201
273.625
277.227
277.228
273.627
270.204
268.958
270.555
274.718
280.532
286.437
289.899
292.301
293.255
292.843
290.87
287.063
281.162
272.997
262.418
249.215
232.924
212.93
189.17
162.199
134.554
110.821
94.313
)
;

boundaryField
{
    top
    {
        type            zeroGradient;
    }
    bottom
    {
        type            fixedFluxPressure;
        gradient        uniform 0;
        value           nonuniform List<scalar> 
51
(
-82.9053
-1269.22
-1179.84
-1204.14
-1190.96
-1178.87
-1158.73
-1131.47
-1096.66
-1056.81
-1014.74
-972.854
-932.406
-893.074
-854.029
-814.916
-775.68
-736.507
-697.818
-660.283
-624.807
-592.489
-564.542
-542.189
-526.53
-518.435
-518.432
-526.522
-542.176
-564.525
-592.468
-624.785
-660.26
-697.794
-736.482
-775.656
-814.894
-854.01
-893.055
-932.386
-972.834
-1014.73
-1056.8
-1096.65
-1131.46
-1158.73
-1178.88
-1190.96
-1204.13
-1179.85
-1269.22
)
;
    }
    frontAndBack
    {
        type            empty;
    }
    left_cyc
    {
        type            cyclic;
    }
    right_cyc
    {
        type            cyclic;
    }
}


// ************************************************************************* //
