/*--------------------------------*- C++ -*----------------------------------*\
| =========                 |                                                 |
| \\      /  F ield         | OpenFOAM: The Open Source CFD Toolbox           |
|  \\    /   O peration     | Version:  2.3.0                                 |
|   \\  /    A nd           | Web:      www.OpenFOAM.org                      |
|    \\/     M anipulation  |                                                 |
\*---------------------------------------------------------------------------*/
FoamFile
{
    version     2.0;
    format      ascii;
    class       volScalarField;
    location    "2000";
    object      p_rgh;
}
// * * * * * * * * * * * * * * * * * * * * * * * * * * * * * * * * * * * * * //

dimensions      [0 2 -2 0 0 0 0];

internalField   nonuniform List<scalar> 
3060
(
-1238.19
-1238.29
-1238.49
-1238.77
-1239.13
-1239.56
-1240.07
-1240.63
-1241.25
-1241.91
-1242.61
-1243.32
-1244.05
-1244.77
-1245.49
-1246.19
-1246.86
-1247.5
-1248.09
-1248.63
-1249.12
-1249.55
-1249.91
-1250.2
-1250.42
-1250.57
-1250.65
-1250.66
-1250.6
-1250.47
-1250.29
-1250.04
-1249.75
-1249.41
-1249.02
-1248.61
-1248.17
-1247.71
-1247.24
-1246.76
-1246.3
-1245.84
-1245.41
-1245.01
-1244.64
-1244.31
-1244.03
-1243.8
-1243.63
-1243.52
-1243.47
-1243.47
-1243.54
-1243.67
-1243.86
-1244.11
-1244.4
-1244.74
-1245.12
-1245.53
-1245.97
-1246.43
-1246.9
-1247.37
-1247.84
-1248.29
-1248.73
-1249.13
-1249.51
-1249.83
-1250.12
-1250.34
-1250.51
-1250.62
-1250.66
-1250.63
-1250.53
-1250.36
-1250.12
-1249.81
-1249.43
-1248.99
-1248.49
-1247.93
-1247.33
-1246.68
-1246
-1245.29
-1244.57
-1243.85
-1243.12
-1242.41
-1241.73
-1241.08
-1240.47
-1239.92
-1239.43
-1239.02
-1238.68
-1238.42
-1238.26
-1238.18
-1235.52
-1235.62
-1235.81
-1236.08
-1236.43
-1236.86
-1237.35
-1237.91
-1238.51
-1239.16
-1239.83
-1240.53
-1241.24
-1241.95
-1242.66
-1243.34
-1244
-1244.62
-1245.2
-1245.73
-1246.21
-1246.63
-1246.99
-1247.27
-1247.5
-1247.65
-1247.73
-1247.74
-1247.69
-1247.57
-1247.39
-1247.16
-1246.87
-1246.54
-1246.17
-1245.77
-1245.34
-1244.89
-1244.44
-1243.98
-1243.52
-1243.08
-1242.66
-1242.27
-1241.91
-1241.59
-1241.32
-1241.09
-1240.93
-1240.82
-1240.76
-1240.77
-1240.84
-1240.97
-1241.15
-1241.39
-1241.67
-1242.01
-1242.37
-1242.78
-1243.2
-1243.65
-1244.11
-1244.57
-1245.02
-1245.46
-1245.88
-1246.28
-1246.64
-1246.96
-1247.23
-1247.45
-1247.61
-1247.71
-1247.74
-1247.71
-1247.61
-1247.44
-1247.2
-1246.89
-1246.52
-1246.08
-1245.59
-1245.04
-1244.45
-1243.82
-1243.15
-1242.46
-1241.76
-1241.04
-1240.34
-1239.64
-1238.97
-1238.34
-1237.75
-1237.21
-1236.73
-1236.33
-1236
-1235.75
-1235.58
-1235.51
-1229.79
-1229.89
-1230.08
-1230.36
-1230.72
-1231.15
-1231.66
-1232.22
-1232.83
-1233.49
-1234.18
-1234.89
-1235.61
-1236.34
-1237.05
-1237.75
-1238.41
-1239.05
-1239.64
-1240.18
-1240.66
-1241.09
-1241.45
-1241.74
-1241.96
-1242.12
-1242.2
-1242.21
-1242.16
-1242.04
-1241.86
-1241.62
-1241.33
-1240.99
-1240.61
-1240.2
-1239.77
-1239.32
-1238.85
-1238.38
-1237.92
-1237.47
-1237.04
-1236.64
-1236.28
-1235.95
-1235.67
-1235.45
-1235.28
-1235.16
-1235.11
-1235.12
-1235.19
-1235.32
-1235.51
-1235.75
-1236.04
-1236.38
-1236.75
-1237.16
-1237.6
-1238.05
-1238.52
-1238.98
-1239.44
-1239.89
-1240.32
-1240.72
-1241.09
-1241.41
-1241.69
-1241.91
-1242.07
-1242.18
-1242.21
-1242.18
-1242.08
-1241.9
-1241.66
-1241.35
-1240.97
-1240.53
-1240.03
-1239.47
-1238.87
-1238.23
-1237.55
-1236.85
-1236.14
-1235.41
-1234.69
-1233.99
-1233.3
-1232.66
-1232.06
-1231.51
-1231.03
-1230.61
-1230.28
-1230.02
-1229.86
-1229.78
-1221.23
-1221.34
-1221.53
-1221.82
-1222.18
-1222.62
-1223.14
-1223.71
-1224.34
-1225.01
-1225.71
-1226.44
-1227.18
-1227.92
-1228.65
-1229.36
-1230.04
-1230.69
-1231.3
-1231.85
-1232.35
-1232.78
-1233.15
-1233.45
-1233.68
-1233.84
-1233.92
-1233.93
-1233.87
-1233.75
-1233.56
-1233.32
-1233.02
-1232.67
-1232.29
-1231.87
-1231.42
-1230.95
-1230.48
-1230
-1229.52
-1229.06
-1228.62
-1228.21
-1227.84
-1227.51
-1227.22
-1226.99
-1226.81
-1226.7
-1226.65
-1226.65
-1226.73
-1226.86
-1227.05
-1227.3
-1227.59
-1227.94
-1228.33
-1228.74
-1229.19
-1229.66
-1230.13
-1230.61
-1231.09
-1231.55
-1231.99
-1232.4
-1232.77
-1233.11
-1233.39
-1233.62
-1233.79
-1233.9
-1233.93
-1233.9
-1233.8
-1233.62
-1233.37
-1233.05
-1232.66
-1232.21
-1231.7
-1231.13
-1230.51
-1229.86
-1229.16
-1228.45
-1227.71
-1226.97
-1226.24
-1225.51
-1224.82
-1224.16
-1223.55
-1222.99
-1222.49
-1222.07
-1221.73
-1221.47
-1221.3
-1221.22
-1210.06
-1210.16
-1210.35
-1210.63
-1210.99
-1211.43
-1211.93
-1212.5
-1213.12
-1213.79
-1214.49
-1215.22
-1215.96
-1216.7
-1217.43
-1218.15
-1218.84
-1219.49
-1220.1
-1220.66
-1221.17
-1221.61
-1221.99
-1222.29
-1222.52
-1222.68
-1222.77
-1222.78
-1222.73
-1222.6
-1222.41
-1222.16
-1221.86
-1221.51
-1221.12
-1220.7
-1220.25
-1219.78
-1219.3
-1218.82
-1218.35
-1217.89
-1217.45
-1217.04
-1216.66
-1216.33
-1216.05
-1215.82
-1215.65
-1215.53
-1215.48
-1215.49
-1215.56
-1215.69
-1215.88
-1216.13
-1216.42
-1216.77
-1217.15
-1217.57
-1218.02
-1218.48
-1218.96
-1219.44
-1219.91
-1220.38
-1220.82
-1221.24
-1221.61
-1221.95
-1222.24
-1222.47
-1222.64
-1222.75
-1222.78
-1222.75
-1222.64
-1222.46
-1222.21
-1221.89
-1221.49
-1221.03
-1220.51
-1219.94
-1219.31
-1218.65
-1217.95
-1217.23
-1216.49
-1215.75
-1215.02
-1214.3
-1213.6
-1212.95
-1212.34
-1211.79
-1211.3
-1210.88
-1210.55
-1210.29
-1210.13
-1210.05
-1196.25
-1196.35
-1196.53
-1196.8
-1197.15
-1197.57
-1198.06
-1198.61
-1199.21
-1199.86
-1200.54
-1201.24
-1201.96
-1202.69
-1203.4
-1204.1
-1204.78
-1205.42
-1206.02
-1206.57
-1207.07
-1207.51
-1207.88
-1208.19
-1208.42
-1208.58
-1208.67
-1208.69
-1208.64
-1208.52
-1208.34
-1208.1
-1207.8
-1207.47
-1207.09
-1206.68
-1206.24
-1205.79
-1205.32
-1204.86
-1204.4
-1203.95
-1203.53
-1203.13
-1202.77
-1202.45
-1202.17
-1201.95
-1201.78
-1201.67
-1201.62
-1201.63
-1201.7
-1201.83
-1202.01
-1202.25
-1202.53
-1202.87
-1203.24
-1203.64
-1204.07
-1204.53
-1204.99
-1205.45
-1205.91
-1206.36
-1206.79
-1207.2
-1207.56
-1207.89
-1208.17
-1208.39
-1208.56
-1208.66
-1208.69
-1208.65
-1208.54
-1208.36
-1208.11
-1207.78
-1207.39
-1206.94
-1206.42
-1205.86
-1205.24
-1204.59
-1203.91
-1203.2
-1202.48
-1201.76
-1201.05
-1200.35
-1199.67
-1199.04
-1198.45
-1197.92
-1197.45
-1197.05
-1196.72
-1196.47
-1196.31
-1196.24
-1179.13
-1179.24
-1179.43
-1179.72
-1180.08
-1180.53
-1181.05
-1181.63
-1182.26
-1182.94
-1183.65
-1184.39
-1185.14
-1185.89
-1186.63
-1187.36
-1188.05
-1188.71
-1189.33
-1189.9
-1190.41
-1190.86
-1191.24
-1191.55
-1191.79
-1191.95
-1192.04
-1192.05
-1192
-1191.88
-1191.69
-1191.44
-1191.14
-1190.79
-1190.4
-1189.97
-1189.52
-1189.05
-1188.57
-1188.08
-1187.6
-1187.13
-1186.69
-1186.27
-1185.9
-1185.56
-1185.27
-1185.04
-1184.86
-1184.75
-1184.69
-1184.7
-1184.77
-1184.91
-1185.1
-1185.35
-1185.65
-1186
-1186.39
-1186.81
-1187.26
-1187.74
-1188.22
-1188.7
-1189.18
-1189.65
-1190.09
-1190.51
-1190.89
-1191.23
-1191.51
-1191.74
-1191.92
-1192.02
-1192.06
-1192.02
-1191.91
-1191.72
-1191.47
-1191.14
-1190.74
-1190.27
-1189.75
-1189.16
-1188.53
-1187.86
-1187.16
-1186.43
-1185.68
-1184.93
-1184.18
-1183.45
-1182.75
-1182.08
-1181.46
-1180.9
-1180.4
-1179.98
-1179.63
-1179.37
-1179.2
-1179.12
-1158.77
-1158.89
-1159.11
-1159.42
-1159.84
-1160.33
-1160.91
-1161.56
-1162.27
-1163.02
-1163.82
-1164.64
-1165.48
-1166.31
-1167.14
-1167.94
-1168.71
-1169.44
-1170.12
-1170.74
-1171.3
-1171.78
-1172.2
-1172.53
-1172.78
-1172.95
-1173.04
-1173.05
-1172.97
-1172.82
-1172.6
-1172.32
-1171.97
-1171.57
-1171.13
-1170.64
-1170.13
-1169.6
-1169.06
-1168.51
-1167.97
-1167.44
-1166.94
-1166.48
-1166.05
-1165.67
-1165.35
-1165.09
-1164.89
-1164.76
-1164.7
-1164.71
-1164.79
-1164.94
-1165.16
-1165.44
-1165.77
-1166.17
-1166.6
-1167.08
-1167.59
-1168.12
-1168.66
-1169.21
-1169.75
-1170.28
-1170.78
-1171.26
-1171.69
-1172.07
-1172.4
-1172.67
-1172.87
-1173
-1173.05
-1173.02
-1172.91
-1172.72
-1172.44
-1172.09
-1171.65
-1171.15
-1170.57
-1169.93
-1169.24
-1168.5
-1167.72
-1166.91
-1166.08
-1165.24
-1164.41
-1163.6
-1162.81
-1162.07
-1161.37
-1160.74
-1160.19
-1159.71
-1159.33
-1159.04
-1158.84
-1158.75
-1135.5
-1135.63
-1135.88
-1136.24
-1136.7
-1137.25
-1137.9
-1138.63
-1139.42
-1140.27
-1141.16
-1142.08
-1143.02
-1143.95
-1144.88
-1145.78
-1146.64
-1147.46
-1148.22
-1148.91
-1149.54
-1150.08
-1150.53
-1150.9
-1151.17
-1151.35
-1151.43
-1151.43
-1151.33
-1151.15
-1150.89
-1150.55
-1150.14
-1149.68
-1149.16
-1148.61
-1148.02
-1147.41
-1146.79
-1146.16
-1145.55
-1144.95
-1144.38
-1143.85
-1143.37
-1142.94
-1142.58
-1142.28
-1142.06
-1141.91
-1141.84
-1141.85
-1141.94
-1142.11
-1142.36
-1142.67
-1143.06
-1143.5
-1144
-1144.54
-1145.12
-1145.72
-1146.34
-1146.96
-1147.58
-1148.19
-1148.77
-1149.31
-1149.81
-1150.26
-1150.65
-1150.96
-1151.21
-1151.36
-1151.44
-1151.42
-1151.31
-1151.1
-1150.8
-1150.41
-1149.93
-1149.37
-1148.73
-1148.01
-1147.24
-1146.4
-1145.53
-1144.62
-1143.69
-1142.76
-1141.82
-1140.91
-1140.03
-1139.19
-1138.42
-1137.71
-1137.09
-1136.56
-1136.13
-1135.8
-1135.59
-1135.49
-1109.43
-1109.57
-1109.85
-1110.24
-1110.75
-1111.37
-1112.09
-1112.9
-1113.78
-1114.73
-1115.72
-1116.74
-1117.78
-1118.83
-1119.85
-1120.86
-1121.82
-1122.73
-1123.57
-1124.34
-1125.03
-1125.63
-1126.13
-1126.53
-1126.82
-1127.01
-1127.09
-1127.07
-1126.95
-1126.74
-1126.43
-1126.04
-1125.57
-1125.04
-1124.45
-1123.81
-1123.15
-1122.45
-1121.75
-1121.05
-1120.35
-1119.68
-1119.04
-1118.45
-1117.9
-1117.42
-1117.02
-1116.68
-1116.43
-1116.27
-1116.19
-1116.2
-1116.31
-1116.5
-1116.77
-1117.12
-1117.55
-1118.05
-1118.61
-1119.22
-1119.87
-1120.55
-1121.24
-1121.95
-1122.65
-1123.34
-1124
-1124.62
-1125.19
-1125.71
-1126.15
-1126.52
-1126.8
-1126.99
-1127.09
-1127.08
-1126.97
-1126.75
-1126.42
-1126
-1125.47
-1124.84
-1124.13
-1123.34
-1122.48
-1121.55
-1120.58
-1119.57
-1118.54
-1117.49
-1116.45
-1115.44
-1114.46
-1113.53
-1112.67
-1111.89
-1111.19
-1110.6
-1110.12
-1109.76
-1109.52
-1109.41
-1080.59
-1080.75
-1081.05
-1081.49
-1082.05
-1082.73
-1083.52
-1084.41
-1085.38
-1086.42
-1087.51
-1088.64
-1089.78
-1090.93
-1092.07
-1093.17
-1094.23
-1095.23
-1096.16
-1097.01
-1097.76
-1098.42
-1098.96
-1099.4
-1099.72
-1099.91
-1100
-1099.96
-1099.82
-1099.56
-1099.21
-1098.76
-1098.24
-1097.64
-1096.97
-1096.26
-1095.51
-1094.74
-1093.95
-1093.16
-1092.39
-1091.64
-1090.93
-1090.27
-1089.67
-1089.14
-1088.69
-1088.32
-1088.04
-1087.86
-1087.77
-1087.79
-1087.9
-1088.11
-1088.41
-1088.81
-1089.28
-1089.84
-1090.45
-1091.13
-1091.85
-1092.61
-1093.38
-1094.17
-1094.96
-1095.72
-1096.46
-1097.16
-1097.81
-1098.39
-1098.9
-1099.32
-1099.64
-1099.86
-1099.98
-1099.98
-1099.87
-1099.63
-1099.29
-1098.82
-1098.24
-1097.56
-1096.78
-1095.91
-1094.96
-1093.94
-1092.87
-1091.75
-1090.61
-1089.46
-1088.32
-1087.2
-1086.12
-1085.1
-1084.16
-1083.29
-1082.53
-1081.88
-1081.36
-1080.96
-1080.7
-1080.57
-1049.04
-1049.21
-1049.54
-1050.01
-1050.62
-1051.36
-1052.22
-1053.19
-1054.24
-1055.37
-1056.55
-1057.78
-1059.03
-1060.28
-1061.52
-1062.72
-1063.87
-1064.96
-1065.98
-1066.9
-1067.72
-1068.43
-1069.02
-1069.49
-1069.82
-1070.03
-1070.11
-1070.07
-1069.9
-1069.61
-1069.21
-1068.71
-1068.13
-1067.46
-1066.72
-1065.93
-1065.11
-1064.25
-1063.38
-1062.52
-1061.67
-1060.85
-1060.07
-1059.35
-1058.69
-1058.11
-1057.61
-1057.21
-1056.91
-1056.71
-1056.61
-1056.63
-1056.75
-1056.98
-1057.32
-1057.75
-1058.27
-1058.87
-1059.55
-1060.29
-1061.08
-1061.91
-1062.76
-1063.63
-1064.49
-1065.34
-1066.16
-1066.93
-1067.65
-1068.3
-1068.86
-1069.33
-1069.7
-1069.95
-1070.09
-1070.1
-1069.98
-1069.74
-1069.36
-1068.86
-1068.24
-1067.5
-1066.65
-1065.7
-1064.67
-1063.56
-1062.39
-1061.17
-1059.93
-1058.68
-1057.44
-1056.22
-1055.05
-1053.94
-1052.91
-1051.97
-1051.15
-1050.44
-1049.87
-1049.43
-1049.15
-1049.02
-1014.8
-1014.99
-1015.34
-1015.85
-1016.5
-1017.3
-1018.22
-1019.25
-1020.39
-1021.6
-1022.87
-1024.19
-1025.53
-1026.88
-1028.21
-1029.5
-1030.75
-1031.92
-1033.01
-1034
-1034.88
-1035.64
-1036.28
-1036.77
-1037.13
-1037.35
-1037.43
-1037.37
-1037.18
-1036.86
-1036.42
-1035.87
-1035.23
-1034.49
-1033.69
-1032.83
-1031.93
-1031
-1030.06
-1029.12
-1028.2
-1027.31
-1026.47
-1025.68
-1024.97
-1024.35
-1023.81
-1023.38
-1023.05
-1022.83
-1022.73
-1022.75
-1022.88
-1023.13
-1023.49
-1023.95
-1024.52
-1025.17
-1025.9
-1026.7
-1027.56
-1028.46
-1029.38
-1030.32
-1031.26
-1032.19
-1033.08
-1033.92
-1034.71
-1035.41
-1036.03
-1036.55
-1036.95
-1037.24
-1037.4
-1037.42
-1037.3
-1037.04
-1036.64
-1036.11
-1035.44
-1034.65
-1033.73
-1032.71
-1031.6
-1030.41
-1029.15
-1027.84
-1026.5
-1025.16
-1023.82
-1022.51
-1021.26
-1020.06
-1018.96
-1017.95
-1017.06
-1016.31
-1015.69
-1015.23
-1014.92
-1014.78
-977.915
-978.115
-978.485
-979.022
-979.718
-980.56
-981.538
-982.636
-983.837
-985.124
-986.477
-987.876
-989.302
-990.732
-992.146
-993.524
-994.846
-996.095
-997.254
-998.308
-999.244
-1000.05
-1000.72
-1001.25
-1001.62
-1001.85
-1001.92
-1001.85
-1001.64
-1001.29
-1000.81
-1000.22
-999.524
-998.736
-997.872
-996.947
-995.978
-994.98
-993.97
-992.965
-991.979
-991.029
-990.13
-989.294
-988.537
-987.867
-987.297
-986.834
-986.485
-986.256
-986.149
-986.167
-986.309
-986.573
-986.954
-987.449
-988.048
-988.743
-989.524
-990.378
-991.293
-992.254
-993.247
-994.254
-995.262
-996.253
-997.211
-998.12
-998.963
-999.726
-1000.39
-1000.96
-1001.4
-1001.71
-1001.88
-1001.91
-1001.8
-1001.53
-1001.11
-1000.54
-999.835
-998.991
-998.022
-996.938
-995.753
-994.483
-993.144
-991.755
-990.335
-988.905
-987.485
-986.097
-984.761
-983.496
-982.322
-981.256
-980.314
-979.511
-978.858
-978.366
-978.042
-977.891
-938.411
-938.62
-939.008
-939.571
-940.299
-941.182
-942.206
-943.356
-944.615
-945.964
-947.383
-948.85
-950.346
-951.847
-953.333
-954.78
-956.17
-957.483
-958.7
-959.808
-960.79
-961.637
-962.338
-962.887
-963.279
-963.511
-963.585
-963.503
-963.271
-962.895
-962.386
-961.753
-961.011
-960.174
-959.256
-958.275
-957.247
-956.19
-955.122
-954.059
-953.019
-952.016
-951.068
-950.188
-949.39
-948.686
-948.086
-947.598
-947.232
-946.99
-946.878
-946.897
-947.046
-947.323
-947.725
-948.245
-948.876
-949.608
-950.43
-951.33
-952.295
-953.309
-954.357
-955.422
-956.489
-957.539
-958.555
-959.519
-960.415
-961.226
-961.938
-962.537
-963.01
-963.346
-963.536
-963.575
-963.457
-963.18
-962.744
-962.153
-961.411
-960.526
-959.507
-958.369
-957.124
-955.789
-954.382
-952.922
-951.431
-949.929
-948.44
-946.984
-945.583
-944.258
-943.028
-941.911
-940.924
-940.083
-939.399
-938.884
-938.544
-938.386
-896.318
-896.534
-896.935
-897.517
-898.271
-899.184
-900.244
-901.435
-902.738
-904.134
-905.603
-907.123
-908.673
-910.23
-911.771
-913.274
-914.717
-916.079
-917.344
-918.493
-919.513
-920.391
-921.117
-921.684
-922.087
-922.324
-922.395
-922.304
-922.056
-921.658
-921.121
-920.456
-919.677
-918.798
-917.837
-916.81
-915.735
-914.63
-913.514
-912.405
-911.321
-910.277
-909.29
-908.375
-907.545
-906.813
-906.19
-905.684
-905.303
-905.053
-904.936
-904.956
-905.11
-905.399
-905.816
-906.356
-907.011
-907.772
-908.627
-909.563
-910.567
-911.623
-912.715
-913.828
-914.942
-916.039
-917.102
-918.112
-919.051
-919.903
-920.651
-921.28
-921.779
-922.135
-922.34
-922.386
-922.269
-921.985
-921.536
-920.925
-920.156
-919.238
-918.182
-917
-915.707
-914.321
-912.86
-911.345
-909.798
-908.242
-906.699
-905.191
-903.74
-902.368
-901.094
-899.939
-898.918
-898.047
-897.34
-896.807
-896.456
-896.292
-851.662
-851.882
-852.293
-852.887
-853.657
-854.59
-855.673
-856.889
-858.221
-859.648
-861.151
-862.706
-864.291
-865.885
-867.464
-869.004
-870.484
-871.881
-873.178
-874.357
-875.402
-876.301
-877.044
-877.623
-878.033
-878.272
-878.341
-878.242
-877.981
-877.566
-877.007
-876.318
-875.51
-874.601
-873.607
-872.546
-871.436
-870.297
-869.147
-868.005
-866.89
-865.817
-864.803
-863.864
-863.013
-862.262
-861.623
-861.104
-860.713
-860.457
-860.337
-860.357
-860.516
-860.811
-861.239
-861.793
-862.465
-863.245
-864.122
-865.084
-866.115
-867.201
-868.324
-869.47
-870.619
-871.751
-872.848
-873.892
-874.863
-875.744
-876.519
-877.173
-877.692
-878.064
-878.28
-878.333
-878.217
-877.93
-877.472
-876.847
-876.061
-875.12
-874.037
-872.825
-871.499
-870.078
-868.58
-867.028
-865.443
-863.85
-862.271
-860.729
-859.246
-857.843
-856.542
-855.361
-854.318
-853.428
-852.706
-852.161
-851.803
-851.635
-804.467
-804.689
-805.103
-805.702
-806.478
-807.419
-808.511
-809.737
-811.08
-812.52
-814.036
-815.606
-817.207
-818.817
-820.414
-821.972
-823.469
-824.884
-826.197
-827.39
-828.448
-829.357
-830.108
-830.692
-831.104
-831.342
-831.407
-831.302
-831.032
-830.605
-830.033
-829.327
-828.503
-827.575
-826.561
-825.48
-824.349
-823.19
-822.02
-820.861
-819.728
-818.641
-817.614
-816.662
-815.8
-815.041
-814.394
-813.869
-813.474
-813.215
-813.094
-813.114
-813.275
-813.573
-814.006
-814.566
-815.246
-816.035
-816.924
-817.897
-818.943
-820.044
-821.185
-822.349
-823.517
-824.67
-825.788
-826.851
-827.842
-828.742
-829.534
-830.203
-830.735
-831.118
-831.342
-831.4
-831.287
-831
-830.54
-829.909
-829.114
-828.163
-827.067
-825.839
-824.497
-823.059
-821.543
-819.973
-818.371
-816.761
-815.167
-813.611
-812.114
-810.699
-809.387
-808.196
-807.144
-806.248
-805.519
-804.97
-804.609
-804.44
-754.753
-754.975
-755.386
-755.981
-756.753
-757.688
-758.773
-759.993
-761.328
-762.76
-764.268
-765.831
-767.425
-769.03
-770.622
-772.177
-773.671
-775.084
-776.394
-777.586
-778.641
-779.549
-780.297
-780.878
-781.287
-781.522
-781.583
-781.472
-781.197
-780.765
-780.187
-779.476
-778.645
-777.711
-776.692
-775.605
-774.47
-773.306
-772.134
-770.972
-769.839
-768.752
-767.726
-766.776
-765.916
-765.158
-764.513
-763.99
-763.596
-763.338
-763.217
-763.237
-763.397
-763.695
-764.126
-764.685
-765.363
-766.151
-767.037
-768.009
-769.054
-770.155
-771.297
-772.463
-773.634
-774.791
-775.914
-776.983
-777.98
-778.885
-779.684
-780.359
-780.896
-781.285
-781.514
-781.577
-781.468
-781.184
-780.727
-780.099
-779.306
-778.357
-777.263
-776.038
-774.698
-773.261
-771.749
-770.182
-768.585
-766.982
-765.394
-763.845
-762.357
-760.95
-759.644
-758.46
-757.415
-756.524
-755.8
-755.254
-754.895
-754.727
-702.539
-702.756
-703.158
-703.741
-704.496
-705.412
-706.474
-707.668
-708.976
-710.379
-711.856
-713.387
-714.951
-716.525
-718.089
-719.617
-721.086
-722.476
-723.765
-724.937
-725.975
-726.867
-727.601
-728.171
-728.571
-728.799
-728.854
-728.741
-728.465
-728.034
-727.459
-726.752
-725.928
-725.002
-723.992
-722.916
-721.794
-720.644
-719.486
-718.34
-717.224
-716.154
-715.144
-714.211
-713.366
-712.621
-711.988
-711.474
-711.088
-710.834
-710.716
-710.735
-710.892
-711.185
-711.608
-712.156
-712.822
-713.596
-714.467
-715.423
-716.451
-717.535
-718.66
-719.811
-720.968
-722.112
-723.223
-724.281
-725.268
-726.166
-726.959
-727.629
-728.165
-728.553
-728.784
-728.85
-728.746
-728.47
-728.023
-727.407
-726.628
-725.695
-724.619
-723.414
-722.096
-720.683
-719.196
-717.657
-716.089
-714.516
-712.96
-711.442
-709.983
-708.605
-707.327
-706.168
-705.144
-704.272
-703.563
-703.029
-702.678
-702.513
-647.839
-648.047
-648.434
-648.995
-649.721
-650.602
-651.624
-652.773
-654.032
-655.382
-656.805
-658.28
-659.787
-661.306
-662.815
-664.292
-665.712
-667.056
-668.303
-669.436
-670.44
-671.302
-672.011
-672.56
-672.944
-673.161
-673.211
-673.097
-672.824
-672.401
-671.838
-671.147
-670.343
-669.441
-668.457
-667.41
-666.318
-665.2
-664.076
-662.964
-661.883
-660.848
-659.872
-658.97
-658.153
-657.435
-656.823
-656.328
-655.955
-655.71
-655.596
-655.615
-655.767
-656.049
-656.457
-656.986
-657.629
-658.376
-659.218
-660.142
-661.135
-662.185
-663.275
-664.391
-665.515
-666.627
-667.708
-668.738
-669.7
-670.576
-671.349
-672.005
-672.529
-672.91
-673.139
-673.208
-673.111
-672.848
-672.418
-671.823
-671.071
-670.169
-669.129
-667.963
-666.689
-665.323
-663.885
-662.398
-660.885
-659.368
-657.868
-656.406
-655.001
-653.675
-652.445
-651.33
-650.345
-649.506
-648.824
-648.31
-647.972
-647.814
-590.662
-590.859
-591.224
-591.752
-592.437
-593.268
-594.232
-595.315
-596.502
-597.776
-599.119
-600.512
-601.935
-603.371
-604.801
-606.199
-607.546
-608.82
-610.003
-611.077
-612.029
-612.845
-613.517
-614.036
-614.397
-614.599
-614.642
-614.529
-614.264
-613.857
-613.316
-612.654
-611.883
-611.02
-610.08
-609.08
-608.038
-606.972
-605.901
-604.844
-603.817
-602.835
-601.91
-601.055
-600.282
-599.602
-599.024
-598.556
-598.203
-597.971
-597.864
-597.882
-598.025
-598.292
-598.678
-599.178
-599.786
-600.493
-601.29
-602.165
-603.108
-604.103
-605.139
-606.202
-607.273
-608.333
-609.364
-610.349
-611.269
-612.107
-612.847
-613.476
-613.98
-614.348
-614.57
-614.64
-614.553
-614.306
-613.901
-613.339
-612.627
-611.773
-610.786
-609.681
-608.472
-607.177
-605.814
-604.406
-602.973
-601.539
-600.123
-598.742
-597.417
-596.165
-595.005
-593.954
-593.025
-592.234
-591.591
-591.107
-590.788
-590.639
-531.017
-531.198
-531.534
-532.02
-532.65
-533.414
-534.301
-535.298
-536.391
-537.564
-538.801
-540.084
-541.397
-542.723
-544.044
-545.338
-546.584
-547.764
-548.86
-549.855
-550.735
-551.491
-552.111
-552.589
-552.92
-553.104
-553.139
-553.028
-552.777
-552.392
-551.884
-551.263
-550.542
-549.734
-548.855
-547.921
-546.949
-545.956
-544.96
-543.977
-543.025
-542.114
-541.258
-540.468
-539.754
-539.126
-538.592
-538.159
-537.834
-537.62
-537.521
-537.537
-537.67
-537.916
-538.272
-538.734
-539.296
-539.949
-540.685
-541.495
-542.367
-543.29
-544.252
-545.24
-546.237
-547.225
-548.187
-549.107
-549.966
-550.751
-551.445
-552.035
-552.509
-552.856
-553.068
-553.138
-553.062
-552.837
-552.465
-551.947
-551.289
-550.498
-549.585
-548.561
-547.442
-546.242
-544.981
-543.679
-542.355
-541.032
-539.726
-538.454
-537.233
-536.081
-535.013
-534.045
-533.191
-532.463
-531.872
-531.426
-531.133
-530.996
-468.906
-469.067
-469.366
-469.8
-470.362
-471.044
-471.835
-472.725
-473.7
-474.747
-475.851
-476.998
-478.172
-479.358
-480.543
-481.704
-482.824
-483.884
-484.868
-485.762
-486.553
-487.23
-487.785
-488.212
-488.506
-488.666
-488.692
-488.586
-488.353
-488
-487.535
-486.968
-486.311
-485.576
-484.778
-483.93
-483.049
-482.149
-481.248
-480.362
-479.504
-478.685
-477.917
-477.208
-476.567
-476.004
-475.526
-475.139
-474.847
-474.656
-474.567
-474.582
-474.7
-474.921
-475.24
-475.654
-476.157
-476.742
-477.403
-478.129
-478.913
-479.743
-480.61
-481.502
-482.403
-483.299
-484.172
-485.006
-485.788
-486.501
-487.134
-487.673
-488.107
-488.427
-488.624
-488.693
-488.63
-488.432
-488.101
-487.638
-487.049
-486.34
-485.52
-484.6
-483.594
-482.516
-481.384
-480.215
-479.029
-477.845
-476.677
-475.541
-474.451
-473.423
-472.471
-471.607
-470.845
-470.196
-469.668
-469.271
-469.009
-468.887
-404.329
-404.467
-404.723
-405.094
-405.575
-406.157
-406.834
-407.595
-408.428
-409.324
-410.269
-411.251
-412.258
-413.276
-414.295
-415.296
-416.261
-417.175
-418.023
-418.794
-419.475
-420.057
-420.533
-420.897
-421.146
-421.278
-421.294
-421.195
-420.986
-420.672
-420.261
-419.762
-419.185
-418.541
-417.842
-417.101
-416.331
-415.548
-414.764
-413.994
-413.252
-412.545
-411.882
-411.271
-410.721
-410.236
-409.825
-409.492
-409.242
-409.078
-409.002
-409.014
-409.116
-409.305
-409.579
-409.935
-410.368
-410.871
-411.44
-412.066
-412.742
-413.459
-414.21
-414.984
-415.769
-416.55
-417.312
-418.042
-418.726
-419.352
-419.908
-420.383
-420.767
-421.051
-421.23
-421.297
-421.249
-421.084
-420.803
-420.407
-419.901
-419.291
-418.585
-417.792
-416.925
-415.996
-415.02
-414.014
-412.994
-411.978
-410.977
-410.004
-409.072
-408.192
-407.377
-406.639
-405.987
-405.432
-404.981
-404.641
-404.418
-404.313
-337.279
-337.39
-337.595
-337.893
-338.279
-338.747
-339.291
-339.902
-340.571
-341.291
-342.051
-342.841
-343.652
-344.474
-345.298
-346.109
-346.892
-347.634
-348.322
-348.947
-349.498
-349.967
-350.35
-350.64
-350.836
-350.936
-350.94
-350.85
-350.67
-350.404
-350.058
-349.641
-349.159
-348.624
-348.044
-347.43
-346.794
-346.148
-345.503
-344.871
-344.265
-343.69
-343.151
-342.656
-342.209
-341.817
-341.484
-341.215
-341.013
-340.88
-340.818
-340.828
-340.911
-341.064
-341.285
-341.573
-341.923
-342.331
-342.792
-343.301
-343.85
-344.435
-345.049
-345.685
-346.331
-346.975
-347.605
-348.21
-348.778
-349.299
-349.763
-350.16
-350.484
-350.726
-350.882
-350.945
-350.914
-350.788
-350.565
-350.249
-349.842
-349.349
-348.777
-348.135
-347.431
-346.677
-345.885
-345.07
-344.246
-343.426
-342.62
-341.838
-341.088
-340.382
-339.727
-339.134
-338.611
-338.165
-337.803
-337.53
-337.35
-337.266
-267.739
-267.82
-267.968
-268.184
-268.462
-268.801
-269.193
-269.635
-270.119
-270.639
-271.188
-271.76
-272.348
-272.945
-273.547
-274.141
-274.715
-275.258
-275.762
-276.218
-276.619
-276.959
-277.234
-277.44
-277.575
-277.638
-277.63
-277.551
-277.405
-277.195
-276.926
-276.603
-276.234
-275.825
-275.383
-274.917
-274.436
-273.949
-273.464
-272.991
-272.542
-272.116
-271.719
-271.355
-271.027
-270.74
-270.496
-270.299
-270.151
-270.054
-270.009
-270.016
-270.077
-270.188
-270.351
-270.561
-270.818
-271.117
-271.456
-271.83
-272.235
-272.668
-273.124
-273.601
-274.087
-274.573
-275.05
-275.509
-275.942
-276.341
-276.697
-277.005
-277.258
-277.45
-277.577
-277.637
-277.625
-277.542
-277.387
-277.162
-276.869
-276.511
-276.095
-275.625
-275.11
-274.557
-273.977
-273.38
-272.779
-272.184
-271.6
-271.034
-270.492
-269.981
-269.509
-269.08
-268.702
-268.38
-268.118
-267.921
-267.791
-267.73
-195.876
-195.92
-196.001
-196.119
-196.271
-196.455
-196.669
-196.91
-197.174
-197.457
-197.757
-198.069
-198.391
-198.72
-199.055
-199.388
-199.709
-200.013
-200.294
-200.546
-200.765
-200.948
-201.091
-201.194
-201.254
-201.271
-201.246
-201.179
-201.073
-200.929
-200.751
-200.543
-200.307
-200.049
-199.774
-199.485
-199.19
-198.892
-198.599
-198.317
-198.052
-197.805
-197.576
-197.366
-197.179
-197.015
-196.877
-196.765
-196.682
-196.627
-196.601
-196.605
-196.64
-196.703
-196.795
-196.914
-197.06
-197.231
-197.425
-197.64
-197.874
-198.127
-198.397
-198.682
-198.977
-199.274
-199.568
-199.853
-200.123
-200.375
-200.603
-200.803
-200.972
-201.105
-201.2
-201.255
-201.268
-201.239
-201.167
-201.053
-200.899
-200.706
-200.478
-200.218
-199.93
-199.621
-199.296
-198.962
-198.629
-198.301
-197.982
-197.673
-197.378
-197.099
-196.842
-196.608
-196.402
-196.226
-196.083
-195.975
-195.904
-195.871
-120.288
-120.307
-120.343
-120.395
-120.462
-120.543
-120.637
-120.743
-120.859
-120.983
-121.115
-121.253
-121.396
-121.543
-121.697
-121.851
-122.002
-122.144
-122.274
-122.39
-122.489
-122.569
-122.63
-122.67
-122.689
-122.686
-122.662
-122.617
-122.552
-122.469
-122.37
-122.255
-122.127
-121.989
-121.843
-121.692
-121.538
-121.384
-121.234
-121.092
-120.962
-120.843
-120.734
-120.636
-120.548
-120.471
-120.407
-120.355
-120.317
-120.291
-120.28
-120.282
-120.297
-120.327
-120.369
-120.425
-120.492
-120.572
-120.663
-120.765
-120.877
-120.998
-121.132
-121.277
-121.428
-121.582
-121.735
-121.885
-122.029
-122.164
-122.288
-122.399
-122.494
-122.571
-122.63
-122.67
-122.688
-122.685
-122.66
-122.614
-122.548
-122.462
-122.358
-122.238
-122.105
-121.96
-121.808
-121.653
-121.502
-121.356
-121.214
-121.078
-120.948
-120.826
-120.713
-120.61
-120.519
-120.442
-120.379
-120.332
-120.3
-120.286
-48.0676
-47.9857
-47.8331
-47.6119
-47.3251
-46.9766
-46.5712
-46.1145
-45.6128
-45.073
-44.5023
-43.9089
-43.3009
-42.6873
-42.0779
-41.4823
-40.9046
-40.3511
-39.8283
-39.3422
-38.8985
-38.502
-38.157
-37.8666
-37.6334
-37.4588
-37.3436
-37.2873
-37.2889
-37.3462
-37.4565
-37.6161
-37.8207
-38.0654
-38.3449
-38.6532
-38.9843
-39.3319
-39.6896
-40.0515
-40.4122
-40.7662
-41.1047
-41.4212
-41.71
-41.966
-42.185
-42.3632
-42.4978
-42.5864
-42.6277
-42.6209
-42.5662
-42.4645
-42.3174
-42.1274
-41.8976
-41.632
-41.335
-41.0118
-40.6683
-40.3116
-39.9503
-39.5891
-39.2337
-38.8902
-38.565
-38.2643
-37.9941
-37.7601
-37.5678
-37.4217
-37.326
-37.284
-37.2985
-37.3712
-37.503
-37.694
-37.9433
-38.2492
-38.6089
-39.0189
-39.4748
-39.9716
-40.5034
-41.0642
-41.6473
-42.2469
-42.8586
-43.4714
-44.0761
-44.6639
-45.2267
-45.7566
-46.2464
-46.6893
-47.0794
-47.4112
-47.6801
-47.8826
-48.0158
-48.0777
)
;

boundaryField
{
    top
    {
        type            fixedValue;
        value           uniform 0;
    }
    bottom
    {
        type            fixedFluxPressure;
        gradient        nonuniform List<scalar> 
102
(
0
0
0
0
0
0
0
0
0
0
0
0
0
0
0
0
0
0
0
0
0
0
0
0
0
0
0
0
0
0
0
0
0
0
0
0
0
0
0
0
0
0
0
0
0
0
0
0
0
0
0
0
0
0
0
0
0
0
0
0
0
0
0
0
0
0
0
0
0
0
0
0
0
0
0
0
0
0
0
0
0
0
0
0
0
0
0
0
0
0
0
0
0
0
0
0
0
0
0
0
0
-4.5598e-15
)
;
        value           nonuniform List<scalar> 
102
(
-1238.19
-1238.29
-1238.49
-1238.77
-1239.13
-1239.56
-1240.07
-1240.63
-1241.25
-1241.91
-1242.61
-1243.32
-1244.05
-1244.77
-1245.49
-1246.19
-1246.86
-1247.5
-1248.09
-1248.63
-1249.12
-1249.55
-1249.91
-1250.2
-1250.42
-1250.57
-1250.65
-1250.66
-1250.6
-1250.47
-1250.29
-1250.04
-1249.75
-1249.41
-1249.02
-1248.61
-1248.17
-1247.71
-1247.24
-1246.76
-1246.3
-1245.84
-1245.41
-1245.01
-1244.64
-1244.31
-1244.03
-1243.8
-1243.63
-1243.52
-1243.47
-1243.47
-1243.54
-1243.67
-1243.86
-1244.11
-1244.4
-1244.74
-1245.12
-1245.53
-1245.97
-1246.43
-1246.9
-1247.37
-1247.84
-1248.29
-1248.73
-1249.13
-1249.51
-1249.83
-1250.12
-1250.34
-1250.51
-1250.62
-1250.66
-1250.63
-1250.53
-1250.36
-1250.12
-1249.81
-1249.43
-1248.99
-1248.49
-1247.93
-1247.33
-1246.68
-1246
-1245.29
-1244.57
-1243.85
-1243.12
-1242.41
-1241.73
-1241.08
-1240.47
-1239.92
-1239.43
-1239.02
-1238.68
-1238.42
-1238.26
-1238.18
)
;
    }
    frontAndBack
    {
        type            empty;
    }
    left_cyc
    {
        type            cyclic;
    }
    right_cyc
    {
        type            cyclic;
    }
}


// ************************************************************************* //
