/*--------------------------------*- C++ -*----------------------------------*\
| =========                 |                                                 |
| \\      /  F ield         | OpenFOAM: The Open Source CFD Toolbox           |
|  \\    /   O peration     | Version:  2.3.0                                 |
|   \\  /    A nd           | Web:      www.OpenFOAM.org                      |
|    \\/     M anipulation  |                                                 |
\*---------------------------------------------------------------------------*/
FoamFile
{
    version     2.0;
    format      ascii;
    class       surfaceScalarField;
    location    "2000";
    object      phi;
}
// * * * * * * * * * * * * * * * * * * * * * * * * * * * * * * * * * * * * * //

dimensions      [0 3 -1 0 0 0 0];

internalField   nonuniform List<scalar> 
1464
(
0.332099
0.655613
0.131125
0.200975
0.034043
0.0970842
-0.0141207
0.0481661
-0.0416025
0.0274838
-0.0614233
0.0198233
-0.0783828
0.016961
-0.0925135
0.0141308
-0.102966
0.0104528
-0.109896
0.00692934
-0.114069
0.00417297
-0.116225
0.00215515
-0.116928
0.000702982
-0.116575
-0.00035216
-0.115344
-0.00123043
-0.1132
-0.00214334
-0.109959
-0.00324064
-0.105347
-0.00461263
-0.0990534
-0.00629402
-0.090792
-0.00826157
-0.0803604
-0.0104313
-0.0676983
-0.0126614
-0.0529296
-0.0147678
-0.0363753
-0.0165536
-0.0185294
-0.017846
-5.88535e-06
-0.0185244
0.018518
-0.0185251
0.0363649
-0.0178479
0.0529207
-0.0165561
0.0676911
-0.0147702
0.0803548
-0.0126636
0.0907875
-0.0104334
0.0990499
-0.00826393
0.105345
-0.00629665
0.109959
-0.0046152
0.113202
-0.00324279
0.115346
-0.00214505
0.116578
-0.00123187
0.116931
-0.000353196
0.116229
0.000702732
0.114075
0.00215549
0.109901
0.00417265
0.102972
0.00692757
0.0925197
0.0104512
0.0783903
0.0141306
0.061429
0.0169598
0.041605
0.0198204
0.0141237
0.027483
-0.0340388
0.0481623
-0.131124
0.0970784
0.200973
0.0948472
0.465926
0.0491193
0.246701
-0.0111164
0.157317
-0.0560556
0.0931046
-0.0899048
0.0613351
-0.117309
0.0472284
-0.138757
0.0384086
-0.152744
0.0281182
-0.15985
0.0175583
-0.161937
0.00901582
-0.160978
0.00321352
-0.158548
-0.000274378
-0.155537
-0.00230654
-0.152162
-0.0037264
-0.148271
-0.00512081
-0.143584
-0.00683079
-0.13777
-0.00905508
-0.130483
-0.0118993
-0.121395
-0.015382
-0.110229
-0.0194277
-0.0967991
-0.0238599
-0.0810551
-0.0284046
-0.0631107
-0.0327118
-0.0432673
-0.0363974
-0.0220148
-0.0390996
-6.85562e-06
-0.0405336
0.0220016
-0.0405346
0.0432556
-0.0391023
0.0631008
-0.0364014
0.0810468
-0.0327166
0.0967921
-0.0284099
0.110222
-0.0238655
0.12139
-0.0194332
0.13048
-0.0153871
0.137768
-0.0119036
0.143583
-0.00905854
0.148272
-0.00683348
0.152163
-0.00512281
0.155538
-0.00372761
0.158548
-0.00230708
0.160978
-0.000275074
0.161937
0.00321142
0.159851
0.00901217
0.152748
0.0175546
0.138762
0.028115
0.117314
0.0384047
0.0899104
0.0472259
0.0560591
0.061335
0.0111215
0.0931009
-0.0491145
0.157314
0.246704
0.0436055
0.378718
0.0189739
0.271336
-0.0249846
0.201278
-0.0671174
0.13524
-0.100552
0.0947708
-0.125538
0.0722152
-0.141469
0.0543393
-0.150336
0.0369852
-0.155348
0.0225703
-0.158041
0.0117088
-0.158979
0.00415146
-0.158499
-0.0007542
-0.156861
-0.00394398
-0.154225
-0.00636197
-0.150612
-0.00873323
-0.145907
-0.0115357
-0.139898
-0.0150643
-0.132324
-0.0194733
-0.122918
-0.0247877
-0.111448
-0.0308984
-0.0977512
-0.0375557
-0.0817827
-0.0443725
-0.0636458
-0.0508483
-0.0436245
-0.0564188
-0.022195
-0.0605296
-6.63347e-06
-0.0627226
0.0221822
-0.0627239
0.0436131
-0.0605332
0.0636361
-0.0564243
0.0817745
-0.050855
0.0977442
-0.0443799
0.111442
-0.0375632
0.122914
-0.0309057
0.132321
-0.0247942
0.139896
-0.0194789
0.145906
-0.0150688
0.150612
-0.0115393
0.154225
-0.00873591
0.156862
-0.00636378
0.1585
-0.00394531
0.158979
-0.000755981
0.158041
0.00414851
0.155349
0.0117049
0.150337
0.0225656
0.14147
0.0369792
0.125542
0.0543332
0.10056
0.0722115
0.0671202
0.094764
0.0249924
0.135236
-0.0189655
0.201272
0.271329
0.0155639
0.347586
-0.00385378
0.290753
-0.0346279
0.232054
-0.0669441
0.167558
-0.092906
0.120734
-0.110945
0.0902547
-0.122325
0.0657195
-0.130156
0.044817
-0.135858
0.0282725
-0.139952
0.0158032
-0.142595
0.00679441
-0.143826
0.000476682
-0.143705
-0.00406422
-0.142318
-0.00774842
-0.139707
-0.0113439
-0.135827
-0.0154154
-0.130551
-0.0203409
-0.123694
-0.0263309
-0.115048
-0.0334329
-0.104423
-0.0415236
-0.091678
-0.0503
-0.0767697
-0.0592801
-0.0597912
-0.0678264
-0.0410073
-0.0752027
-0.0208712
-0.0806661
-6.00934e-06
-0.0835884
0.0208597
-0.08359
0.0409972
-0.0806706
0.0597827
-0.0752095
0.0767627
-0.0678347
0.091672
-0.0592891
0.104418
-0.0503091
0.115044
-0.0415322
0.123691
-0.0334405
0.13055
-0.0263375
0.135827
-0.0203463
0.139708
-0.0154199
0.142319
-0.0113474
0.143706
-0.00775111
0.143827
-0.00406664
0.142596
0.000473785
0.139953
0.00679084
0.135859
0.0157991
0.130156
0.0282674
0.122325
0.0448105
0.110947
0.0657138
0.0929094
0.0902477
0.0669492
0.120728
0.0346314
0.16755
0.00385662
0.232048
0.290751
0.00483469
0.337921
-0.00848388
0.304069
-0.0290524
0.252622
-0.052014
0.19052
-0.0706365
0.139357
-0.0835496
0.103169
-0.0929967
0.0751672
-0.100676
0.052497
-0.107027
0.034623
-0.112134
0.0209107
-0.115984
0.0106452
-0.11853
0.00302245
-0.119755
-0.00283813
-0.119689
-0.00781456
-0.118356
-0.0126764
-0.115739
-0.0180324
-0.111762
-0.024318
-0.1063
-0.0317931
-0.0991984
-0.0405341
-0.0903031
-0.0504184
-0.0794937
-0.0611086
-0.0667258
-0.0720472
-0.0520739
-0.0824779
-0.0357699
-0.0915068
-0.0182232
-0.0982133
-4.99373e-06
-0.101807
0.0182138
-0.101809
0.0357619
-0.0982184
0.0520674
-0.0915146
0.0667207
-0.0824874
0.0794894
-0.0720576
0.0902996
-0.061119
0.0991959
-0.0504281
0.106298
-0.0405427
0.111761
-0.0318005
0.115739
-0.0243243
0.118357
-0.0180377
0.11969
-0.0126807
0.119757
-0.00781803
0.11853
-0.00284149
0.115985
0.00301868
0.112135
0.010641
0.107027
0.020906
0.100676
0.0346166
0.092996
0.0524895
0.0835485
0.0751612
0.0706385
0.103162
0.0520151
0.139348
0.029054
0.190511
0.00848354
0.252615
0.304068
0.00277137
0.332365
-0.00227568
0.30912
-0.0128501
0.263199
-0.0269626
0.204634
-0.039649
0.152045
-0.0493034
0.112824
-0.0574558
0.0833201
-0.0647849
0.0598264
-0.0713218
0.0411601
-0.0769824
0.0265716
-0.0816495
0.0153126
-0.0852115
0.00658498
-0.0876049
-0.000444303
-0.0888192
-0.00659996
-0.0888669
-0.0126285
-0.0877462
-0.0191532
-0.08542
-0.0266444
-0.0818121
-0.0354011
-0.0768161
-0.0455297
-0.0703149
-0.056919
-0.0622081
-0.0692146
-0.0524491
-0.0818054
-0.0410869
-0.0938398
-0.0283053
-0.104289
-0.014447
-0.112072
-3.61914e-06
-0.116251
0.0144403
-0.116253
0.0282999
-0.112077
0.041083
-0.104297
0.0524464
-0.0938502
0.062206
-0.0818168
0.0703133
-0.0692259
0.0768152
-0.0569297
0.0818118
-0.0455392
0.0854202
-0.0354092
0.0877469
-0.0266513
0.0888681
-0.0191588
0.0888207
-0.012633
0.0876061
-0.00660356
0.0852118
-0.000447724
0.0816494
0.00658151
0.0769823
0.0153093
0.0713208
0.026568
0.0647839
0.0411555
0.0574567
0.0598208
0.0493001
0.0833106
0.0396462
0.112816
0.0269607
0.152036
0.0128483
0.204625
0.00227243
0.26319
0.30911
0.00528168
0.321785
0.0102234
0.304179
0.00970625
0.263718
0.00381541
0.210527
-0.00398929
0.159851
-0.0112295
0.120065
-0.0180169
0.0901078
-0.024654
0.0664637
-0.0310094
0.0475158
-0.036854
0.0324164
-0.0419905
0.0204494
-0.0462669
0.0108617
-0.0495948
0.00288394
-0.0519455
-0.00424904
-0.0533282
-0.0112456
-0.053759
-0.0187224
-0.053237
-0.0271665
-0.0517335
-0.0369045
-0.0491917
-0.0480711
-0.0455363
-0.0605737
-0.0406924
-0.0740577
-0.0346138
-0.0878833
-0.0273196
-0.101134
-0.0189307
-0.112677
-0.00969825
-0.121305
-1.9008e-06
-0.125947
0.00969495
-0.125949
0.0189286
-0.12131
0.0273187
-0.112686
0.0346138
-0.101145
0.0406926
-0.0878954
0.0455368
-0.07407
0.0491924
-0.0605852
0.0517344
-0.0480812
0.053238
-0.0369131
0.0537603
-0.0271735
0.0533299
-0.0187279
0.0519472
-0.0112498
0.0495959
-0.00425261
0.0462672
0.00288028
0.0419908
0.0108578
0.0368539
0.020445
0.0310076
0.0324104
0.0246505
0.0475085
0.0180133
0.0664582
0.011227
0.0901002
0.00398551
0.120056
-0.00382155
0.159841
-0.00971541
0.210518
-0.0102362
0.26371
0.304176
0.00948968
0.302798
0.0247539
0.288912
0.0340419
0.254429
0.0362275
0.208343
0.0334142
0.162665
0.0286247
0.124855
0.0233058
0.0954271
0.0176142
0.0721554
0.0117601
0.05337
0.00607239
0.0381042
0.000804674
0.0257172
-0.00386981
0.0155364
-0.00785501
0.00686939
-0.0111217
-0.000982101
-0.0136866
-0.00868043
-0.0155898
-0.016819
-0.0168701
-0.0258861
-0.0175497
-0.0362246
-0.0176276
-0.0479929
-0.0170788
-0.0611219
-0.0158633
-0.0752726
-0.0139421
-0.089804
-0.0113036
-0.103772
-0.00799437
-0.115987
-0.00414897
-0.12515
1.12827e-07
-0.130096
0.00414957
-0.130098
0.00799584
-0.125156
0.0113058
-0.115996
0.0139447
-0.103784
0.0158658
-0.0898167
0.0170812
-0.0752854
0.0176299
-0.0611338
0.0175518
-0.0480032
0.0168719
-0.0362331
0.0155917
-0.0258927
0.0136887
-0.016824
0.0111232
-0.00868411
0.00785536
-0.000985416
0.00386911
0.00686579
-0.000805831
0.0155326
-0.00607455
0.0257133
-0.011763
0.0380995
-0.0176162
0.0533645
-0.0233105
0.0721492
-0.0286287
0.0954203
-0.0334204
0.124847
-0.0362368
0.162656
-0.0340546
0.208334
-0.0247697
0.254423
0.288915
0.0138781
0.275023
0.0386386
0.264152
0.0569667
0.236101
0.0670853
0.198224
0.0700546
0.159696
0.0685308
0.126379
0.0648766
0.0990817
0.0602433
0.0767889
0.0551007
0.0585126
0.04984
0.0433649
0.0447438
0.0308134
0.0399801
0.0203001
0.0356328
0.011217
0.0317146
0.00293649
0.0281877
-0.00515319
0.0249814
-0.0136124
0.0220126
-0.022917
0.0192027
-0.0334144
0.0164902
-0.0452801
0.0138395
-0.0584707
0.011245
-0.0726778
0.00872927
-0.0872879
0.00633091
-0.101374
0.00408427
-0.11374
0.00199192
-0.123057
2.30132e-06
-0.128105
-0.00198713
-0.128108
-0.00407911
-0.123063
-0.0063256
-0.113749
-0.00872418
-0.101385
-0.0112403
-0.0873007
-0.0138351
-0.0726905
-0.0164863
-0.0584824
-0.0191992
-0.0452901
-0.0220097
-0.0334225
-0.0249789
-0.0229232
-0.0281857
-0.0136168
-0.0317137
-0.00515635
-0.0356336
0.00293389
-0.0399817
0.0112145
-0.0447455
0.0202976
-0.0498429
0.0308101
-0.0551049
0.0433603
-0.0602467
0.0585079
-0.0648827
0.0767826
-0.0685372
0.0990758
-0.0700631
0.126373
-0.0670964
0.159691
-0.0569798
0.198219
-0.0386529
0.236097
0.264148
0.0176156
0.239757
0.0501742
0.231596
0.0761999
0.210077
0.0936843
0.18074
0.102994
0.150388
0.105944
0.12343
0.104757
0.100269
0.101427
0.0801194
0.0971637
0.0627755
0.0925518
0.0479766
0.0878926
0.0354725
0.0833285
0.0248644
0.0789089
0.0156369
0.0746157
0.0072303
0.0703787
-0.000915574
0.0660904
-0.00932349
0.0616203
-0.0184465
0.0568304
-0.0286243
0.0515911
-0.0400407
0.0457986
-0.052678
0.0393926
-0.0662715
0.0323697
-0.0802648
0.0247891
-0.0937929
0.0167665
-0.105717
0.00845325
-0.114744
4.47025e-06
-0.119656
-0.00844433
-0.119658
-0.0167578
-0.11475
-0.0247808
-0.105726
-0.0323621
-0.0938042
-0.0393858
-0.080277
-0.0457923
-0.0662835
-0.0515855
-0.0526889
-0.0568256
-0.0400501
-0.0616165
-0.0286321
-0.0660874
-0.0184527
-0.0703766
-0.00932823
-0.0746154
-0.000919133
-0.0789107
0.00722739
-0.0833314
0.0156344
-0.0878962
0.0248622
-0.0925568
0.0354697
-0.0971692
0.0479727
-0.101432
0.0627716
-0.104765
0.0801145
-0.105952
0.100265
-0.103004
0.123426
-0.0936979
0.150385
-0.0762161
0.180739
-0.0501927
0.210075
0.23159
0.0200967
0.199534
0.0578426
0.193849
0.089355
0.178566
0.112764
0.157333
0.12806
0.135093
0.136221
0.11527
0.138818
0.0976723
0.137848
0.0810894
0.135157
0.0654664
0.131736
0.0513977
0.127968
0.03924
0.123995
0.028838
0.119846
0.0197867
0.115483
0.0115937
0.110815
0.0037532
0.105704
-0.00421128
0.0999747
-0.0127171
0.0934334
-0.0220829
0.085883
-0.0324904
0.0771491
-0.0439441
0.0671122
-0.0562346
0.0557369
-0.0688894
0.0430959
-0.0811517
0.0293811
-0.0920021
0.0148931
-0.100256
6.41381e-06
-0.10477
-0.0148804
-0.104772
-0.029369
-0.100262
-0.0430848
-0.0920108
-0.0557269
-0.0811621
-0.0671032
-0.0689002
-0.0771411
-0.0562451
-0.0858762
-0.0439538
-0.093428
-0.0324989
-0.0999707
-0.0220901
-0.105701
-0.0127227
-0.110813
-0.00421519
-0.115483
0.00375064
-0.119848
0.0115919
-0.123999
0.0197851
-0.127973
0.0288365
-0.131743
0.0392379
-0.135165
0.0513949
-0.137856
0.0654633
-0.138828
0.0810859
-0.136232
0.0976695
-0.128073
0.115267
-0.11278
0.135091
-0.0893745
0.157332
-0.0578662
0.178566
0.193851
0.0211406
0.157236
0.0611271
0.15386
0.0951652
0.144528
0.121474
0.131025
0.140229
0.11634
0.152624
0.102876
0.15991
0.0903866
0.163381
0.0776186
0.164347
0.0645003
0.163685
0.0520596
0.161902
0.0410232
0.159273
0.0314667
0.15593
0.0231305
0.151902
0.0156232
0.147134
0.00852201
0.141499
0.00142477
0.134803
-0.00602087
0.126811
-0.0140908
0.117269
-0.0229493
0.10594
-0.0326146
0.0926466
-0.0429416
0.0773232
-0.0535658
0.060051
-0.0638795
0.0410895
-0.0730408
0.0208795
-0.080046
8.00922e-06
-0.0838986
-0.0208637
-0.0839005
-0.0410745
-0.0800511
-0.0600371
-0.0730482
-0.0773109
-0.0638881
-0.0926359
-0.0535749
-0.10593
-0.0429505
-0.117262
-0.0326228
-0.126805
-0.0229562
-0.134799
-0.0140962
-0.141496
-0.0060245
-0.147132
0.00142264
-0.151903
0.00852063
-0.155934
0.0156218
-0.159278
0.0231289
-0.161909
0.0314649
-0.163694
0.0410212
-0.164357
0.0520576
-0.163391
0.0644981
-0.159922
0.0776161
-0.152637
0.0903844
-0.140243
0.102874
-0.121491
0.116339
-0.0951841
0.131024
-0.0611486
0.144528
0.153864
0.0198778
0.117463
0.0580397
0.115698
0.0917322
0.110836
0.118978
0.10378
0.139718
0.0956015
0.15564
0.0869545
0.168085
0.0779418
0.177332
0.0683708
0.183436
0.0583962
0.186779
0.0487166
0.187903
0.0399002
0.187266
0.0321038
0.185184
0.0252133
0.181827
0.0189817
0.177235
0.0131154
0.171334
0.00732628
0.163951
0.00136229
0.154834
-0.00497415
0.143693
-0.0118089
0.130237
-0.0191585
0.114244
-0.0269486
0.0956193
-0.0349411
0.0744497
-0.0427101
0.0510492
-0.049641
0.0259776
-0.0549752
9.28726e-06
-0.0579309
-0.0259592
-0.0579322
-0.0510316
-0.0549788
-0.0744335
-0.0496464
-0.0956052
-0.0427166
-0.114232
-0.0349481
-0.130227
-0.0269554
-0.143685
-0.0191644
-0.154828
-0.0118135
-0.163946
-0.00497779
-0.17133
0.0013592
-0.177234
0.00732338
-0.181829
0.0131127
-0.18519
0.0189795
-0.187273
0.0252119
-0.187911
0.0321027
-0.18679
0.0398987
-0.183448
0.048715
-0.177345
0.0583944
-0.168098
0.068369
-0.155654
0.0779405
-0.139734
0.0869535
-0.118995
0.095601
-0.0917496
0.10378
-0.0580574
0.110835
0.115698
0.0172029
0.0830364
0.0508123
0.0820904
0.0821255
0.0795235
0.110049
0.0758575
0.134139
0.0715117
0.154576
0.0665184
0.171595
0.0609228
0.185123
0.0548433
0.195042
0.0484771
0.201567
0.042192
0.205162
0.0363051
0.206321
0.0309461
0.20544
0.0260951
0.20278
0.0216432
0.198454
0.0174421
0.192442
0.0133387
0.184605
0.00919982
0.1747
0.0049298
0.162428
0.000463186
0.147451
-0.00418164
0.129519
-0.00901667
0.108528
-0.01395
0.0845778
-0.018761
0.0580322
-0.0230963
0.0295416
-0.0264854
1.02649e-05
-0.0284
-0.0295213
-0.0284007
-0.058013
-0.0264873
-0.0845604
-0.0230994
-0.108512
-0.0187649
-0.129506
-0.0139541
-0.14744
-0.00902032
-0.162419
-0.00418466
-0.174693
0.000460363
-0.1846
0.00492682
-0.19244
0.00919688
-0.198454
0.0133364
-0.202782
0.0174407
-0.205445
0.0216421
-0.206328
0.0260938
-0.205172
0.0309448
-0.201578
0.036304
-0.195054
0.0421912
-0.185136
0.0484763
-0.17161
0.0548424
-0.154591
0.0609222
-0.134156
0.0665179
-0.110066
0.0715114
-0.0821436
0.0758572
-0.050831
0.0795232
0.0820885
0.0162069
0.0480992
0.0784681
0.106675
0.132368
0.155144
0.1746
0.190409
0.202402
0.210716
0.215744
0.217955
0.217769
0.215487
0.211265
0.205112
0.196915
0.186452
0.17344
0.157533
0.138473
0.116134
0.0905988
0.0622249
0.031698
1.10254e-05
-0.0316765
-0.0622049
-0.0905809
-0.116119
-0.138459
-0.157522
-0.173431
-0.186446
-0.196911
-0.205109
-0.211264
-0.21549
-0.217775
-0.217962
-0.215753
-0.210728
-0.202415
-0.190423
-0.174614
-0.15516
-0.132384
-0.106693
-0.0784871
-0.048119
)
;

boundaryField
{
    top
    {
        type            calculated;
        value           nonuniform List<scalar> 
51
(
0.0506019
0.0501982
0.0491549
0.0476503
0.0458196
0.043742
0.0414675
0.039034
0.0364842
0.0338777
0.0312782
0.028736
0.0262813
0.0239254
0.0216652
0.0194909
0.0173968
0.0153923
0.0134756
0.0117249
0.0100437
0.00838798
0.00677418
0.00527721
0.00404132
0.00328696
0.00328669
0.00404068
0.0052764
0.00677332
0.00838718
0.010043
0.0117243
0.013475
0.0153918
0.0173964
0.0194906
0.0216651
0.0239254
0.0262814
0.0287361
0.0312783
0.0338779
0.0364844
0.0390343
0.0414678
0.0437423
0.0458198
0.0476505
0.049155
0.0501981
)
;
    }
    bottom
    {
        type            calculated;
        value           uniform 0;
    }
    frontAndBack
    {
        type            empty;
        value           nonuniform 0();
    }
    left_cyc
    {
        type            cyclic;
        value           nonuniform List<scalar> 
15
(
0.332097
0.0948379
0.0436042
0.0155583
0.00483578
0.00278243
0.00529039
0.00950364
0.0139018
0.0176395
0.0201166
0.0211622
0.0199003
0.0172232
0.0162248
)
;
    }
    right_cyc
    {
        type            cyclic;
        value           nonuniform List<scalar> 
15
(
-0.332097
-0.0948379
-0.0436042
-0.0155583
-0.00483578
-0.00278243
-0.00529039
-0.00950364
-0.0139018
-0.0176395
-0.0201166
-0.0211622
-0.0199003
-0.0172232
-0.0162248
)
;
    }
}


// ************************************************************************* //
