/*--------------------------------*- C++ -*----------------------------------*\
| =========                 |                                                 |
| \\      /  F ield         | OpenFOAM: The Open Source CFD Toolbox           |
|  \\    /   O peration     | Version:  2.3.0                                 |
|   \\  /    A nd           | Web:      www.OpenFOAM.org                      |
|    \\/     M anipulation  |                                                 |
\*---------------------------------------------------------------------------*/
FoamFile
{
    version     2.0;
    format      ascii;
    class       surfaceScalarField;
    location    "2000";
    object      phi;
}
// * * * * * * * * * * * * * * * * * * * * * * * * * * * * * * * * * * * * * //

dimensions      [0 3 -1 0 0 0 0];

internalField   nonuniform List<scalar> 
5988
(
6.47573e-10
-5.73803e-10
1.21126e-09
-5.63682e-10
1.75605e-09
-5.44798e-10
2.27355e-09
-5.17492e-10
2.75582e-09
-4.82271e-10
3.19561e-09
-4.39789e-10
3.58644e-09
-3.90833e-10
3.92274e-09
-3.36304e-10
4.19994e-09
-2.77198e-10
4.41453e-09
-2.1459e-10
4.56416e-09
-1.49624e-10
4.64765e-09
-8.34957e-11
4.66509e-09
-1.74407e-11
4.61778e-09
4.73178e-11
4.50798e-09
1.098e-10
4.33873e-09
1.69242e-10
4.1138e-09
2.24939e-10
3.83757e-09
2.76223e-10
3.51509e-09
3.22484e-10
3.15191e-09
3.63177e-10
2.75407e-09
3.97844e-10
2.32795e-09
4.26117e-10
1.88023e-09
4.47723e-10
1.41774e-09
4.62486e-10
9.47412e-10
4.70328e-10
4.76147e-10
4.71265e-10
1.07397e-11
4.65407e-10
-4.42213e-10
4.52952e-10
-8.76401e-10
4.34189e-10
-1.28589e-09
4.09485e-10
-1.66517e-09
3.79284e-10
-2.00926e-09
3.44089e-10
-2.31372e-09
3.04463e-10
-2.57474e-09
2.61013e-10
-2.78912e-09
2.14382e-10
-2.95435e-09
1.65234e-10
-3.06859e-09
1.14236e-10
-3.13063e-09
6.20419e-11
-3.13991e-09
9.27562e-12
-3.09647e-09
-4.34338e-11
-3.00124e-09
-9.5237e-11
-2.85599e-09
-1.45247e-10
-2.66336e-09
-1.92632e-10
-2.42673e-09
-2.36633e-10
-2.15016e-09
-2.76566e-10
-1.83833e-09
-3.11824e-10
-1.49646e-09
-3.41879e-10
-1.13017e-09
-3.66283e-10
-7.45497e-10
-3.84677e-10
-3.48707e-10
-3.9679e-10
5.37356e-11
-4.02443e-10
4.55288e-10
-4.01553e-10
8.49421e-10
-3.94133e-10
1.22972e-09
-3.80295e-10
1.58996e-09
-3.60244e-10
1.92424e-09
-3.34276e-10
2.22701e-09
-3.02776e-10
2.49323e-09
-2.66214e-10
2.71837e-09
-2.25141e-10
2.89855e-09
-1.80185e-10
3.0306e-09
-1.32051e-10
3.11212e-09
-8.15167e-11
3.14155e-09
-2.94324e-11
3.11824e-09
2.33144e-11
3.04229e-09
7.5945e-11
2.91446e-09
1.27835e-10
2.7361e-09
1.78354e-10
2.50926e-09
2.26845e-10
2.23662e-09
2.72644e-10
1.92152e-09
3.15092e-10
1.56797e-09
3.53558e-10
1.18052e-09
3.87446e-10
7.64309e-10
4.16211e-10
3.24944e-10
4.39366e-10
-1.31544e-10
4.56487e-10
-5.98772e-10
4.67228e-10
-1.0701e-09
4.71324e-10
-1.53869e-09
4.68599e-10
-1.99766e-09
4.58968e-10
-2.4401e-09
4.4244e-10
-2.85922e-09
4.19116e-10
-3.24841e-09
3.89197e-10
-3.60139e-09
3.5298e-10
-3.91225e-09
3.10855e-10
-4.17555e-09
2.63302e-10
-4.38643e-09
2.10883e-10
-4.54066e-09
1.54223e-10
-4.63465e-09
9.39964e-11
-4.66557e-09
3.0914e-11
-4.63132e-09
-3.42432e-11
-4.53093e-09
-1.00398e-10
-4.36461e-09
-1.66314e-10
-4.13385e-09
-2.30764e-10
-3.84128e-09
-2.92565e-10
-3.49069e-09
-3.50591e-10
-3.08691e-09
-4.03786e-10
-2.63573e-09
-4.51175e-10
-2.14384e-09
-4.91888e-10
-1.61868e-09
-5.25168e-10
-1.06828e-09
-5.50395e-10
-5.01184e-10
-5.67097e-10
-5.74956e-10
1.3808e-09
-1.79729e-09
2.5832e-09
-1.76608e-09
3.74619e-09
-1.70779e-09
4.85216e-09
-1.62346e-09
5.8845e-09
-1.51461e-09
6.82791e-09
-1.38319e-09
7.66865e-09
-1.23158e-09
8.39483e-09
-1.06248e-09
8.99656e-09
-8.78929e-10
9.46617e-09
-6.84192e-10
9.79829e-09
-4.81749e-10
9.99002e-09
-2.75225e-10
1.00409e-08
-6.83304e-11
9.95293e-09
1.35294e-10
9.73023e-09
3.32506e-10
9.37879e-09
5.20684e-10
8.9063e-09
6.97425e-10
8.32202e-09
8.605e-10
7.63663e-09
1.00788e-09
6.86203e-09
1.13777e-09
6.01121e-09
1.24866e-09
5.09801e-09
1.33932e-09
4.1369e-09
1.40883e-09
3.14279e-09
1.4566e-09
2.13078e-09
1.48233e-09
1.11598e-09
1.48607e-09
1.13229e-10
1.46815e-09
-8.63029e-10
1.42921e-09
-1.799e-09
1.37016e-09
-2.68172e-09
1.2922e-09
-3.49919e-09
1.19675e-09
-4.24054e-09
1.08544e-09
-4.89616e-09
9.60084e-10
-5.45779e-09
8.22642e-10
-5.91859e-09
6.75185e-10
-6.27321e-09
5.19856e-10
-6.5178e-09
3.58826e-10
-6.65001e-09
1.94247e-10
-6.66897e-09
2.82335e-11
-6.57533e-09
-1.37066e-10
-6.37147e-09
-2.99098e-10
-6.06149e-09
-4.55233e-10
-5.65114e-09
-6.02976e-10
-5.14775e-09
-7.40026e-10
-4.56002e-09
-8.64297e-10
-3.89791e-09
-9.73935e-10
-3.17246e-09
-1.06733e-09
-2.39562e-09
-1.14312e-09
-1.58007e-09
-1.20022e-09
-7.39042e-10
-1.23781e-09
1.1387e-10
-1.25536e-09
9.64912e-10
-1.25259e-09
1.80035e-09
-1.22957e-09
2.60669e-09
-1.18663e-09
3.37083e-09
-1.12438e-09
4.08027e-09
-1.04372e-09
4.72331e-09
-9.45819e-10
5.2892e-09
-8.32106e-10
5.76832e-09
-7.04259e-10
6.15234e-09
-5.64198e-10
6.43435e-09
-4.14067e-10
6.60906e-09
-2.56223e-10
6.67283e-09
-9.3202e-11
6.62377e-09
7.23678e-11
6.46166e-09
2.38062e-10
6.18774e-09
4.01749e-10
5.80479e-09
5.61311e-10
5.31704e-09
7.14594e-10
4.73025e-09
8.59437e-10
4.05162e-09
9.9372e-10
3.28977e-09
1.1154e-09
2.45465e-09
1.22257e-09
1.5574e-09
1.31346e-09
6.10272e-10
1.38649e-09
-3.7355e-10
1.44031e-09
-1.38011e-09
1.47379e-09
-2.39488e-09
1.48609e-09
-3.40294e-09
1.47666e-09
-4.3892e-09
1.44523e-09
-5.33861e-09
1.39185e-09
-6.23637e-09
1.31688e-09
-7.06818e-09
1.22101e-09
-7.82042e-09
1.10522e-09
-8.48039e-09
9.70822e-10
-9.03648e-09
8.19394e-10
-9.47839e-09
6.52789e-10
-9.79725e-09
4.73084e-10
-9.9858e-09
2.82547e-10
-1.00385e-08
8.36091e-11
-9.95169e-09
-1.21045e-10
-9.72401e-09
-3.2808e-10
-9.35651e-09
-5.33812e-10
-8.85273e-09
-7.34547e-10
-8.2186e-09
-9.26693e-10
-7.46237e-09
-1.10682e-09
-6.59443e-09
-1.27172e-09
-5.62717e-09
-1.41844e-09
-4.57471e-09
-1.54435e-09
-3.45271e-09
-1.64717e-09
-2.27804e-09
-1.72506e-09
-1.06855e-09
-1.77659e-09
-1.80083e-09
1.66947e-09
-3.27652e-09
3.12385e-09
-3.22046e-09
4.53176e-09
-3.11571e-09
5.87236e-09
-2.96406e-09
7.12589e-09
-2.76814e-09
8.27409e-09
-2.53139e-09
9.30045e-09
-2.25793e-09
1.01905e-08
-1.95254e-09
1.09321e-08
-1.62054e-09
1.15156e-08
-1.26773e-09
1.19342e-08
-9.00264e-10
1.21835e-08
-5.24575e-10
1.22624e-08
-1.47204e-10
1.21723e-08
2.25416e-10
1.19173e-08
5.87466e-10
1.15041e-08
9.33865e-10
1.09416e-08
1.25995e-09
1.02407e-08
1.56142e-09
9.41418e-09
1.83438e-09
8.47656e-09
2.07539e-09
7.44368e-09
2.28154e-09
6.33255e-09
2.45045e-09
5.16106e-09
2.58033e-09
3.94765e-09
2.67e-09
2.71109e-09
2.71889e-09
1.47017e-09
2.727e-09
2.43373e-10
2.69495e-09
-9.51332e-10
2.62392e-09
-2.09679e-09
2.51562e-09
-3.17689e-09
2.3723e-09
-4.17676e-09
2.19662e-09
-5.08298e-09
1.99166e-09
-5.88373e-09
1.76084e-09
-6.56892e-09
1.50782e-09
-7.13025e-09
1.23652e-09
-7.56133e-09
9.50936e-10
-7.85768e-09
6.55178e-10
-8.01677e-09
3.53335e-10
-8.03801e-09
4.94741e-11
-7.92279e-09
-2.52288e-10
-7.67448e-09
-5.47404e-10
-7.29844e-09
-8.31277e-10
-6.8019e-09
-1.09952e-09
-6.19387e-09
-1.34805e-09
-5.48497e-09
-1.57319e-09
-4.68725e-09
-1.77165e-09
-3.814e-09
-1.94059e-09
-2.87952e-09
-2.0776e-09
-1.89898e-09
-2.18077e-09
-8.88138e-10
-2.24866e-09
1.36838e-10
-2.28033e-09
1.15959e-09
-2.27535e-09
2.1638e-09
-2.23378e-09
3.13338e-09
-2.15621e-09
4.05274e-09
-2.04373e-09
4.90692e-09
-1.8979e-09
5.68189e-09
-1.72079e-09
6.36469e-09
-1.51491e-09
6.94367e-09
-1.28323e-09
7.40863e-09
-1.02916e-09
7.75104e-09
-7.56485e-10
7.96419e-09
-4.69374e-10
8.04327e-09
-1.72277e-10
7.98544e-09
1.30201e-10
7.78985e-09
4.33652e-10
7.45761e-09
7.33985e-10
6.99179e-09
1.02714e-09
6.39736e-09
1.30902e-09
5.68123e-09
1.57556e-09
4.85217e-09
1.82279e-09
3.92071e-09
2.04686e-09
2.8991e-09
2.24418e-09
1.80114e-09
2.41142e-09
6.42003e-10
2.54563e-09
-5.61919e-10
2.64423e-09
-1.79327e-09
2.70514e-09
-3.03395e-09
2.72677e-09
-4.26539e-09
2.7081e-09
-5.46884e-09
2.64867e-09
-6.6256e-09
2.54861e-09
-7.71737e-09
2.40865e-09
-8.72649e-09
2.23013e-09
-9.63625e-09
2.01499e-09
-1.04312e-08
1.76572e-09
-1.10972e-08
1.48539e-09
-1.16219e-08
1.17754e-09
-1.1995e-08
8.46156e-10
-1.22081e-08
4.95625e-10
-1.22551e-08
1.30681e-10
-1.21327e-08
-2.43491e-10
-1.18399e-08
-6.20836e-10
-1.13789e-08
-9.9486e-10
-1.07544e-08
-1.35904e-09
-9.97407e-09
-1.707e-09
-9.04822e-09
-2.03268e-09
-7.98955e-09
-2.33039e-09
-6.81307e-09
-2.59493e-09
-5.53573e-09
-2.82169e-09
-4.1762e-09
-3.0067e-09
-2.75453e-09
-3.14673e-09
-1.29179e-09
-3.23932e-09
-3.28286e-09
1.63858e-09
-4.72834e-09
3.06678e-09
-4.64866e-09
4.45077e-09
-4.49969e-09
5.77061e-09
-4.28389e-09
7.00734e-09
-4.00488e-09
8.1433e-09
-3.66735e-09
9.16237e-09
-3.277e-09
1.00503e-08
-2.84045e-09
1.07949e-08
-2.36511e-09
1.13862e-08
-1.85907e-09
1.18169e-08
-1.33097e-09
1.20822e-08
-7.89834e-10
1.21798e-08
-2.44852e-10
1.21103e-08
2.9489e-10
1.18769e-08
8.20895e-10
1.14853e-08
1.32549e-09
1.09436e-08
1.80159e-09
1.02624e-08
2.24266e-09
9.45399e-09
2.6428e-09
8.53261e-09
2.99678e-09
7.51401e-09
3.30014e-09
6.41521e-09
3.54925e-09
5.25421e-09
3.74134e-09
4.04965e-09
3.87456e-09
2.82057e-09
3.94796e-09
1.58605e-09
3.96152e-09
3.64905e-10
3.9161e-09
-8.24611e-10
3.81343e-09
-1.96507e-09
3.65608e-09
-3.04013e-09
3.44736e-09
-4.03478e-09
3.19127e-09
-4.93553e-09
2.89241e-09
-5.73056e-09
2.55586e-09
-6.40986e-09
2.18713e-09
-6.96533e-09
1.79199e-09
-7.39084e-09
1.37644e-09
-7.68225e-09
9.46592e-10
-7.83747e-09
5.08557e-10
-7.85644e-09
6.84435e-11
-7.74113e-09
-3.67603e-10
-7.4954e-09
-7.93133e-10
-7.12496e-09
-1.20172e-09
-6.63725e-09
-1.58722e-09
-6.04134e-09
-1.94396e-09
-5.34777e-09
-2.26676e-09
-4.56839e-09
-2.55104e-09
-3.71616e-09
-2.79281e-09
-2.80499e-09
-2.98877e-09
-1.84951e-09
-3.13625e-09
-8.6491e-10
-3.23326e-09
1.33264e-10
-3.27851e-09
1.1293e-09
-3.27139e-09
2.10753e-09
-3.21201e-09
3.05248e-09
-3.10117e-09
3.94911e-09
-2.94036e-09
4.78296e-09
-2.73176e-09
5.54039e-09
-2.47822e-09
6.20872e-09
-2.18324e-09
6.77646e-09
-1.85098e-09
7.23348e-09
-1.48617e-09
7.57113e-09
-1.09414e-09
7.78246e-09
-6.807e-10
7.86225e-09
-2.52071e-10
7.80716e-09
1.85296e-10
7.61576e-09
6.25055e-10
7.28865e-09
1.06109e-09
6.8285e-09
1.48729e-09
6.23995e-09
1.89757e-09
5.52966e-09
2.28585e-09
4.70624e-09
2.64621e-09
3.78017e-09
2.97293e-09
2.7637e-09
3.26065e-09
1.67073e-09
3.5044e-09
5.16601e-10
3.69975e-09
-6.8206e-10
3.84289e-09
-1.90762e-09
3.9307e-09
-3.14166e-09
3.96082e-09
-4.36532e-09
3.93176e-09
-5.55953e-09
3.84288e-09
-6.70536e-09
3.69443e-09
-7.78432e-09
3.48761e-09
-8.77867e-09
3.22448e-09
-9.67171e-09
2.90803e-09
-1.04481e-08
2.54211e-09
-1.10941e-08
2.13136e-09
-1.15977e-08
1.68117e-09
-1.19492e-08
1.1976e-09
-1.21408e-08
6.87296e-10
-1.21676e-08
1.57464e-10
-1.2027e-08
-3.84091e-10
-1.17192e-08
-9.28647e-10
-1.1247e-08
-1.46706e-09
-1.06159e-08
-1.99016e-09
-9.83387e-09
-2.489e-09
-8.91146e-09
-2.95509e-09
-7.86135e-09
-3.38049e-09
-6.6983e-09
-3.75798e-09
-5.43882e-09
-4.08117e-09
-4.10093e-09
-4.34459e-09
-2.70385e-09
-4.5438e-09
-1.26772e-09
-4.67546e-09
-4.73733e-09
1.44229e-09
-6.00617e-09
2.69981e-09
-5.90619e-09
3.91929e-09
-5.71917e-09
5.08354e-09
-5.44814e-09
6.17617e-09
-5.09751e-09
7.18185e-09
-4.67303e-09
8.08654e-09
-4.1817e-09
8.87771e-09
-3.63163e-09
9.54456e-09
-3.03196e-09
1.00782e-08
-2.3927e-09
1.04717e-08
-1.72452e-09
1.07205e-08
-1.03863e-09
1.08221e-08
-3.46432e-10
1.07763e-08
3.40713e-10
1.05852e-08
1.01197e-09
1.02534e-08
1.65731e-09
9.78757e-09
2.26742e-09
9.19655e-09
2.83368e-09
8.49106e-09
3.34829e-09
7.68352e-09
3.80432e-09
6.78782e-09
4.19584e-09
5.81908e-09
4.51799e-09
4.79338e-09
4.76704e-09
3.72747e-09
4.94046e-09
2.6385e-09
5.03694e-09
1.54367e-09
5.05635e-09
4.5998e-10
4.99979e-09
-5.96074e-10
4.86949e-09
-1.60877e-09
4.66877e-09
-2.56338e-09
4.40198e-09
-3.44644e-09
4.07433e-09
-4.24587e-09
3.69184e-09
-4.95117e-09
3.26116e-09
-5.55351e-09
2.78946e-09
-6.04582e-09
2.28429e-09
-6.42283e-09
1.75346e-09
-6.68113e-09
1.2049e-09
-6.81916e-09
6.46582e-10
-6.83719e-09
8.64718e-11
-6.73731e-09
-4.67482e-10
-6.52325e-09
-1.00719e-09
-6.20029e-09
-1.52468e-09
-5.77515e-09
-2.01237e-09
-5.2559e-09
-2.46321e-09
-4.65184e-09
-2.87082e-09
-3.97336e-09
-3.22952e-09
-3.23177e-09
-3.53441e-09
-2.43914e-09
-3.7814e-09
-1.60817e-09
-3.96721e-09
-7.5202e-10
-4.08941e-09
1.1587e-10
-4.1464e-09
9.81917e-10
-4.13744e-09
1.83256e-09
-4.06265e-09
2.65443e-09
-3.92303e-09
3.43447e-09
-3.7204e-09
4.16016e-09
-3.45745e-09
4.81962e-09
-3.13767e-09
5.40179e-09
-2.76541e-09
5.89657e-09
-2.34576e-09
6.295e-09
-1.8846e-09
6.58936e-09
-1.38851e-09
6.77333e-09
-8.64671e-10
6.84206e-09
-3.20794e-10
6.79224e-09
2.35111e-10
6.62229e-09
7.9501e-10
6.33241e-09
1.35097e-09
5.92467e-09
1.89504e-09
5.40297e-09
2.41926e-09
4.77306e-09
2.91576e-09
4.04247e-09
3.3768e-09
3.22047e-09
3.79494e-09
2.31796e-09
4.16315e-09
1.3474e-09
4.47496e-09
3.22581e-10
4.72457e-09
-7.41522e-10
4.907e-09
-1.82898e-09
5.01816e-09
-2.92317e-09
5.05501e-09
-4.00705e-09
5.01563e-09
-5.0634e-09
4.89924e-09
-6.07521e-09
4.70624e-09
-7.02588e-09
4.43828e-09
-7.89959e-09
4.09818e-09
-8.68152e-09
3.68996e-09
-9.35815e-09
3.21875e-09
-9.9175e-09
2.69071e-09
-1.03493e-08
2.113e-09
-1.06453e-08
1.49361e-09
-1.07993e-08
8.41298e-10
-1.08074e-08
1.65545e-10
-1.0668e-08
-5.23479e-10
-1.03819e-08
-1.21475e-09
-9.95213e-09
-1.89686e-09
-9.38386e-09
-2.55842e-09
-8.6845e-09
-3.18837e-09
-7.86342e-09
-3.77617e-09
-6.93188e-09
-4.31203e-09
-5.9028e-09
-4.78706e-09
-4.79056e-09
-5.19341e-09
-3.61076e-09
-5.52439e-09
-2.38002e-09
-5.77455e-09
-1.11567e-09
-5.9398e-09
-6.01745e-09
1.23125e-09
-7.09695e-09
2.30473e-09
-6.97967e-09
3.34582e-09
-6.76026e-09
4.33992e-09
-6.44223e-09
5.27312e-09
-6.03071e-09
6.13246e-09
-5.53237e-09
6.90607e-09
-4.95531e-09
7.5834e-09
-4.30896e-09
8.15536e-09
-3.60393e-09
8.61447e-09
-2.85181e-09
8.95496e-09
-2.06501e-09
9.17285e-09
-1.25652e-09
9.26603e-09
-4.39611e-10
9.23426e-09
3.72485e-10
9.07924e-09
1.16699e-09
8.80467e-09
1.93189e-09
8.41612e-09
2.65597e-09
7.92094e-09
3.32885e-09
7.32813e-09
3.9411e-09
6.64813e-09
4.48432e-09
5.89266e-09
4.95131e-09
5.07448e-09
5.33616e-09
4.20721e-09
5.63431e-09
3.30503e-09
5.84264e-09
2.38246e-09
5.9595e-09
1.45411e-09
5.9847e-09
5.34404e-10
5.9195e-09
-3.62649e-10
5.76654e-09
-1.22368e-09
5.5298e-09
-2.03616e-09
5.21446e-09
-2.78862e-09
4.82679e-09
-3.47076e-09
4.37398e-09
-4.07362e-09
3.86402e-09
-4.58963e-09
3.30548e-09
-5.01275e-09
2.70742e-09
-5.33847e-09
2.07918e-09
-5.56384e-09
1.43027e-09
-5.68751e-09
7.70249e-10
-5.70969e-09
1.08649e-10
-5.63212e-09
-5.45054e-10
-5.45793e-09
-1.18138e-09
-5.19155e-09
-1.79106e-09
-4.83864e-09
-2.36528e-09
-4.40598e-09
-2.89587e-09
-3.90141e-09
-3.37539e-09
-3.33366e-09
-3.79726e-09
-2.71231e-09
-4.15576e-09
-2.04758e-09
-4.44613e-09
-1.35025e-09
-4.66455e-09
-6.31486e-10
-4.80817e-09
9.72694e-11
-4.87515e-09
8.24459e-10
-4.86462e-09
1.53854e-09
-4.77674e-09
2.22815e-09
-4.61263e-09
2.8822e-09
-4.37445e-09
3.49006e-09
-4.06531e-09
4.04168e-09
-3.68929e-09
4.52771e-09
-3.25144e-09
4.93965e-09
-2.7577e-09
5.26996e-09
-2.21491e-09
5.51214e-09
-1.63069e-09
5.66089e-09
-1.01342e-09
5.71212e-09
-3.72022e-10
5.66307e-09
2.84162e-10
5.51241e-09
9.45671e-10
5.26034e-09
1.60303e-09
4.90866e-09
2.24672e-09
4.46071e-09
2.86721e-09
3.92142e-09
3.45505e-09
3.29724e-09
4.00098e-09
2.59609e-09
4.49609e-09
1.82728e-09
4.93195e-09
1.00143e-09
5.30082e-09
1.30277e-10
5.59573e-09
-7.73432e-10
5.8107e-09
-1.69616e-09
5.94089e-09
-2.62379e-09
5.98264e-09
-3.54185e-09
5.93369e-09
-4.43575e-09
5.79314e-09
-5.29106e-09
5.56155e-09
-6.09373e-09
5.24095e-09
-6.83038e-09
4.83483e-09
-7.4885e-09
4.34808e-09
-8.05669e-09
3.78694e-09
-8.52488e-09
3.1589e-09
-8.88448e-09
2.47261e-09
-9.1286e-09
1.73772e-09
-9.25212e-09
9.64817e-10
-9.25185e-09
1.6528e-10
-9.1266e-09
-6.48732e-10
-8.87707e-09
-1.46428e-09
-8.50585e-09
-2.26808e-09
-8.01737e-09
-3.04691e-09
-7.41782e-09
-3.78792e-09
-6.7151e-09
-4.47889e-09
-5.91868e-09
-5.10846e-09
-5.03944e-09
-5.6663e-09
-4.08955e-09
-6.14331e-09
-3.08221e-09
-6.53172e-09
-2.03153e-09
-6.82523e-09
-9.52239e-10
-7.01909e-09
-7.11017e-09
1.04841e-09
-8.02565e-09
1.96235e-09
-7.89361e-09
2.84865e-09
-7.64656e-09
3.69487e-09
-7.28846e-09
4.48921e-09
-6.82505e-09
5.22068e-09
-6.26383e-09
5.87927e-09
-5.61389e-09
6.4561e-09
-4.8858e-09
6.94359e-09
-4.09141e-09
7.33549e-09
-3.24371e-09
7.62706e-09
-2.35658e-09
7.81505e-09
-1.44451e-09
7.89776e-09
-5.22325e-10
7.87509e-09
3.95154e-10
7.74855e-09
1.29353e-09
7.52127e-09
2.15917e-09
7.19798e-09
2.97926e-09
6.78488e-09
3.74195e-09
6.28952e-09
4.43645e-09
5.72068e-09
5.05316e-09
5.08815e-09
5.58384e-09
4.40259e-09
6.02172e-09
3.67535e-09
6.36155e-09
2.91824e-09
6.59976e-09
2.14334e-09
6.7344e-09
1.36281e-09
6.76523e-09
5.88663e-10
6.69364e-09
-1.67408e-10
6.52261e-09
-8.94221e-10
6.25661e-09
-1.58127e-09
5.90151e-09
-2.21887e-09
5.46439e-09
-2.7983e-09
4.95342e-09
-3.31192e-09
4.37763e-09
-3.75323e-09
3.74679e-09
-4.11698e-09
3.07117e-09
-4.3992e-09
2.3614e-09
-4.59725e-09
1.62831e-09
-4.70981e-09
8.82814e-10
-4.73693e-09
1.35762e-10
-4.67991e-09
-6.0207e-10
-4.54127e-09
-1.32001e-09
-4.32464e-09
-2.00769e-09
-4.03469e-09
-2.65523e-09
-3.67708e-09
-3.25348e-09
-3.25835e-09
-3.79412e-09
-2.78588e-09
-4.26973e-09
-2.26775e-09
-4.6739e-09
-1.71263e-09
-5.00125e-09
-1.12968e-09
-5.24749e-09
-5.28431e-10
-5.40942e-09
8.13538e-11
-5.48494e-09
6.89804e-10
-5.47307e-09
1.28706e-09
-5.374e-09
1.86343e-09
-5.189e-09
2.40946e-09
-4.92048e-09
2.91612e-09
-4.57197e-09
3.37489e-09
-4.14806e-09
3.77788e-09
-3.65443e-09
4.11794e-09
-3.09776e-09
4.38876e-09
-2.48572e-09
4.58494e-09
-1.82687e-09
4.7021e-09
-1.13057e-09
4.7369e-09
-4.06828e-10
4.68717e-09
3.33898e-10
4.55191e-09
1.08093e-09
4.33147e-09
1.82347e-09
4.0275e-09
2.55069e-09
3.643e-09
3.25171e-09
3.18228e-09
3.91577e-09
2.65093e-09
4.53233e-09
2.05573e-09
5.09128e-09
1.40463e-09
5.58306e-09
7.06582e-10
5.99886e-09
-2.85035e-11
6.33081e-09
-7.89947e-10
6.57215e-09
-1.56643e-09
6.71737e-09
-2.34619e-09
6.7624e-09
-3.11715e-09
6.70465e-09
-3.86719e-09
6.54318e-09
-4.58429e-09
6.27865e-09
-5.25675e-09
5.91341e-09
-5.8734e-09
5.45149e-09
-6.42381e-09
4.89848e-09
-6.89842e-09
4.26155e-09
-7.28878e-09
3.54926e-09
-7.58768e-09
2.7715e-09
-7.78927e-09
1.93932e-09
-7.88925e-09
1.06479e-09
-7.88487e-09
1.609e-10
-7.77505e-09
-7.58552e-10
-7.5603e-09
-1.67902e-09
-7.2427e-09
-2.58567e-09
-6.82589e-09
-3.46372e-09
-6.31499e-09
-4.29882e-09
-5.71657e-09
-5.07731e-09
-5.03857e-09
-5.78646e-09
-4.29014e-09
-6.41472e-09
-3.48156e-09
-6.95189e-09
-2.62403e-09
-7.38925e-09
-1.72954e-09
-7.71972e-09
-8.10645e-10
-7.93799e-09
-8.04052e-09
8.8206e-10
-8.80689e-09
1.65091e-09
-8.66246e-09
2.39658e-09
-8.39222e-09
3.10863e-09
-8.00051e-09
3.77719e-09
-7.49361e-09
4.39307e-09
-6.87972e-09
4.94794e-09
-6.16876e-09
5.43442e-09
-5.37227e-09
5.8462e-09
-4.50319e-09
6.17814e-09
-3.57565e-09
6.4263e-09
-2.60474e-09
6.58802e-09
-1.60623e-09
6.66191e-09
-5.96215e-10
6.64789e-09
4.09174e-10
6.54721e-09
1.39421e-09
6.36249e-09
2.34389e-09
6.09763e-09
3.24413e-09
5.75776e-09
4.08182e-09
5.34916e-09
4.84505e-09
4.87907e-09
5.52325e-09
4.35559e-09
6.10732e-09
3.78754e-09
6.58977e-09
3.18428e-09
6.96482e-09
2.55555e-09
7.22849e-09
1.91132e-09
7.37863e-09
1.26162e-09
7.41493e-09
6.16402e-10
7.33887e-09
-1.4669e-11
7.15368e-09
-6.223e-10
6.86424e-09
-1.19773e-09
6.47694e-09
-1.73287e-09
5.99952e-09
-2.22036e-09
5.44091e-09
-2.65374e-09
4.81102e-09
-3.02749e-09
4.12053e-09
-3.33708e-09
3.38076e-09
-3.57908e-09
2.60339e-09
-3.75114e-09
1.80038e-09
-3.85207e-09
9.8374e-10
-3.88177e-09
1.65467e-10
-3.84126e-09
-6.42578e-10
-3.73256e-09
-1.42872e-09
-3.55862e-09
-2.18163e-09
-3.32329e-09
-2.89056e-09
-3.03125e-09
-3.54552e-09
-2.68794e-09
-4.13742e-09
-2.29951e-09
-4.65816e-09
-1.8727e-09
-5.1007e-09
-1.41479e-09
-5.45917e-09
-9.33462e-10
-5.72882e-09
-4.36728e-10
-5.90615e-09
6.71959e-11
-5.98886e-09
5.69999e-10
-5.97588e-09
1.06338e-09
-5.86738e-09
1.53918e-09
-5.6648e-09
1.98947e-09
-5.37077e-09
2.40665e-09
-4.98915e-09
2.7836e-09
-4.52501e-09
3.11373e-09
-3.98455e-09
3.39107e-09
-3.37511e-09
3.6104e-09
-2.70505e-09
3.76726e-09
-1.98373e-09
3.85803e-09
-1.22135e-09
3.88002e-09
-4.28813e-10
3.83147e-09
3.8245e-10
3.71166e-09
1.20073e-09
3.52099e-09
2.01415e-09
3.26095e-09
2.81073e-09
2.93418e-09
3.57848e-09
2.5444e-09
4.30554e-09
2.09641e-09
4.98033e-09
1.59597e-09
5.59172e-09
1.04979e-09
6.12924e-09
4.65402e-10
6.58324e-09
-1.48909e-10
6.94512e-09
-7.8425e-10
7.20749e-09
-1.43123e-09
7.36435e-09
-2.0801e-09
7.41127e-09
-2.7209e-09
7.34546e-09
-3.34362e-09
7.16589e-09
-3.93832e-09
6.87335e-09
-4.49538e-09
6.47047e-09
-5.00556e-09
5.96166e-09
-5.46022e-09
5.35315e-09
-5.85149e-09
4.65282e-09
-6.17235e-09
3.87013e-09
-6.41684e-09
3.01599e-09
-6.58011e-09
2.10259e-09
-6.65858e-09
1.14326e-09
-6.65e-09
1.52321e-10
-6.55346e-09
-8.55093e-10
-6.36937e-09
-1.86311e-09
-6.09944e-09
-2.8556e-09
-5.74667e-09
-3.8165e-09
-5.31528e-09
-4.73021e-09
-4.81072e-09
-5.58186e-09
-4.23957e-09
-6.35761e-09
-3.60946e-09
-7.04484e-09
-2.92895e-09
-7.6324e-09
-2.2074e-09
-8.11079e-09
-1.45486e-09
-8.47227e-09
-6.8183e-10
-8.71101e-09
-8.82317e-09
7.2562e-10
-9.44949e-09
1.35809e-09
-9.29493e-09
1.9716e-09
-9.00574e-09
2.55766e-09
-8.58657e-09
3.1082e-09
-8.04415e-09
3.61574e-09
-7.38726e-09
4.07349e-09
-6.62651e-09
4.47545e-09
-5.77423e-09
4.8165e-09
-4.84424e-09
5.09244e-09
-3.8516e-09
5.30009e-09
-2.81239e-09
5.43724e-09
-1.74338e-09
5.50275e-09
-6.61724e-10
5.49651e-09
4.15411e-10
5.4195e-09
1.47121e-09
5.2738e-09
2.4896e-09
5.06253e-09
3.4554e-09
4.78983e-09
4.35452e-09
4.46074e-09
5.17414e-09
4.08113e-09
5.90286e-09
3.65755e-09
6.5309e-09
3.19712e-09
7.05019e-09
2.70742e-09
7.45452e-09
2.19633e-09
7.73958e-09
1.67193e-09
7.90303e-09
1.14235e-09
7.94451e-09
6.15658e-10
7.86556e-09
9.97369e-11
7.6696e-09
-3.97839e-10
7.36182e-09
-8.699e-10
6.949e-09
-1.30979e-09
6.43942e-09
-1.71146e-09
5.84258e-09
-2.06953e-09
5.16909e-09
-2.37941e-09
4.43041e-09
-2.63731e-09
3.63866e-09
-2.84033e-09
2.80641e-09
-2.98647e-09
1.94651e-09
-3.07466e-09
1.07193e-09
-3.10478e-09
1.95587e-10
-3.0776e-09
-6.69763e-10
-2.99471e-09
-1.5116e-09
-2.85851e-09
-2.31783e-09
-2.6721e-09
-3.07696e-09
-2.43929e-09
-3.77833e-09
-2.16451e-09
-4.41221e-09
-1.85275e-09
-4.96991e-09
-1.50954e-09
-5.44392e-09
-1.14082e-09
-5.82789e-09
-7.52885e-10
-6.11676e-09
-3.52308e-10
-6.30673e-09
5.41733e-11
-6.39534e-09
4.59736e-10
-6.38144e-09
8.57572e-10
-6.26522e-09
1.24098e-09
-6.04821e-09
1.60346e-09
-5.73325e-09
1.9388e-09
-5.32449e-09
2.24116e-09
-4.82738e-09
2.50518e-09
-4.24857e-09
2.72598e-09
-3.59592e-09
2.89932e-09
-2.87839e-09
3.02158e-09
-2.10599e-09
3.08984e-09
-1.28961e-09
3.10192e-09
-4.40894e-10
3.05644e-09
4.27929e-10
2.95287e-09
1.3043e-09
2.7916e-09
2.17543e-09
2.57392e-09
3.0284e-09
2.30208e-09
3.85031e-09
1.97923e-09
4.62839e-09
1.60936e-09
5.3502e-09
1.19727e-09
6.00381e-09
7.48525e-10
6.57799e-09
2.69329e-10
7.06244e-09
-2.33524e-10
7.44798e-09
-7.52757e-10
7.72672e-09
-1.28071e-09
7.89231e-09
-1.80947e-09
7.94002e-09
-2.33092e-09
7.86691e-09
-2.83697e-09
7.67193e-09
-3.31957e-09
7.35595e-09
-3.77092e-09
6.92181e-09
-4.18355e-09
6.3743e-09
-4.55048e-09
5.72009e-09
-4.86534e-09
4.96767e-09
-5.12247e-09
4.12725e-09
-5.31704e-09
3.21056e-09
-5.44519e-09
2.23073e-09
-5.50403e-09
1.20211e-09
-5.49179e-09
1.40078e-10
-5.40776e-09
-9.39117e-10
-5.25233e-09
-2.01855e-09
-5.0269e-09
-3.08102e-09
-4.73393e-09
-4.10947e-09
-4.37687e-09
-5.08728e-09
-3.96013e-09
-5.9986e-09
-3.48907e-09
-6.82866e-09
-2.9699e-09
-7.56401e-09
-2.40958e-09
-8.19272e-09
-1.81575e-09
-8.70462e-09
-1.1966e-09
-9.09143e-09
-5.60716e-10
-9.34689e-09
-9.46691e-09
5.76756e-10
-9.96017e-09
1.07947e-09
-9.79764e-09
1.56728e-09
-9.49356e-09
2.03352e-09
-9.0528e-09
2.47184e-09
-8.48248e-09
2.87638e-09
-7.7918e-09
3.24181e-09
-6.99194e-09
3.56341e-09
-6.09583e-09
3.83716e-09
-5.11798e-09
4.05975e-09
-4.07419e-09
4.22864e-09
-2.98128e-09
4.34208e-09
-1.85682e-09
4.3991e-09
-7.18745e-10
4.39956e-09
4.14954e-10
4.34415e-09
1.52662e-09
4.23442e-09
2.59933e-09
4.07277e-09
3.61705e-09
3.86238e-09
4.56491e-09
3.60717e-09
5.42935e-09
3.31169e-09
6.19834e-09
2.98105e-09
6.86154e-09
2.62082e-09
7.41042e-09
2.23693e-09
7.83841e-09
1.83554e-09
8.14096e-09
1.42301e-09
8.31557e-09
1.00571e-09
8.3618e-09
5.90005e-10
8.28126e-09
1.821e-10
8.07751e-09
-2.12008e-10
7.75592e-09
-5.8663e-10
7.32362e-09
-9.36467e-10
6.78925e-09
-1.25668e-09
6.16279e-09
-1.54296e-09
5.45538e-09
-1.79161e-09
4.67906e-09
-1.99955e-09
3.8466e-09
-2.16443e-09
2.97129e-09
-2.28461e-09
2.06669e-09
-2.3592e-09
1.14652e-09
-2.38805e-09
2.24441e-10
-2.37175e-09
-6.86059e-10
-2.31155e-09
-1.5718e-09
-2.20931e-09
-2.42007e-09
-2.06748e-09
-3.21879e-09
-1.88904e-09
-3.95677e-09
-1.67748e-09
-4.62377e-09
-1.43673e-09
-5.21066e-09
-1.17114e-09
-5.70951e-09
-8.85396e-10
-6.11363e-09
-5.84472e-10
-6.41768e-09
-2.73553e-10
-6.61765e-09
4.20348e-11
-6.71093e-09
3.56898e-10
-6.6963e-09
6.65656e-10
-6.57398e-09
9.63014e-10
-6.34556e-09
1.24384e-09
-6.01407e-09
1.50323e-09
-5.58388e-09
1.73658e-09
-5.06073e-09
1.93966e-09
-4.45165e-09
2.10865e-09
-3.7649e-09
2.2402e-09
-3.00994e-09
2.33146e-09
-2.19725e-09
2.38014e-09
-1.33829e-09
2.38455e-09
-4.45303e-10
2.34361e-09
4.68869e-10
2.25693e-09
1.39098e-09
2.12486e-09
2.30751e-09
1.94847e-09
3.20479e-09
1.7296e-09
4.06918e-09
1.4708e-09
4.88719e-09
1.17531e-09
5.64569e-09
8.46994e-10
6.33212e-09
4.90299e-10
6.93468e-09
1.10188e-10
7.44255e-09
-2.87936e-10
7.8461e-09
-6.98304e-10
8.13709e-09
-1.11486e-09
8.30887e-09
-1.53136e-09
8.35651e-09
-1.94142e-09
8.27698e-09
-2.33869e-09
8.0692e-09
-2.71685e-09
7.73411e-09
-3.06979e-09
7.27475e-09
-3.39168e-09
6.69618e-09
-3.67705e-09
6.00546e-09
-3.92095e-09
5.21157e-09
-4.11896e-09
4.32527e-09
-4.26737e-09
3.35897e-09
-4.36318e-09
2.32654e-09
-4.40422e-09
1.24315e-09
-4.38916e-09
1.25013e-10
-4.31752e-09
-1.01076e-09
-4.18966e-09
-2.14641e-09
-4.00674e-09
-3.26394e-09
-3.77074e-09
-4.34548e-09
-3.48437e-09
-5.37364e-09
-3.15113e-09
-6.33184e-09
-2.77523e-09
-7.20457e-09
-2.36153e-09
-7.97771e-09
-1.9155e-09
-8.63875e-09
-1.44315e-09
-9.17698e-09
-9.50896e-10
-9.58368e-09
-4.45496e-10
-9.85229e-09
-9.97848e-09
4.33958e-10
-1.03443e-08
8.12218e-10
-1.01759e-08
1.17947e-09
-9.86081e-09
1.53078e-09
-9.40411e-09
1.86147e-09
-8.81317e-09
2.1672e-09
-8.09753e-09
2.44402e-09
-7.26876e-09
2.68845e-09
-6.34026e-09
2.89749e-09
-5.32702e-09
3.06867e-09
-4.24536e-09
3.20005e-09
-3.11267e-09
3.29028e-09
-1.94705e-09
3.33856e-09
-7.67024e-10
3.34469e-09
4.08824e-10
3.30908e-09
1.56223e-09
3.2328e-09
2.67561e-09
3.11752e-09
3.73233e-09
2.96553e-09
4.71689e-09
2.77968e-09
5.6152e-09
2.5633e-09
6.41473e-09
2.32013e-09
7.1047e-09
2.0543e-09
7.67626e-09
1.77017e-09
8.12254e-09
1.47234e-09
8.43879e-09
1.16551e-09
8.6224e-09
8.54445e-10
8.67287e-09
5.43885e-10
8.59182e-09
2.38489e-10
8.3829e-09
-5.724e-11
8.05165e-09
-3.39012e-10
7.6054e-09
-6.02818e-10
7.05306e-09
-8.44981e-10
6.40496e-09
-1.06222e-09
5.67262e-09
-1.2517e-09
4.86853e-09
-1.41106e-09
4.00596e-09
-1.53848e-09
3.09871e-09
-1.63271e-09
2.16091e-09
-1.69303e-09
1.20684e-09
-1.71933e-09
2.50741e-10
-1.71203e-09
-6.93356e-10
-1.67207e-09
-1.61176e-09
-1.60084e-09
-2.4913e-09
-1.50015e-09
-3.31948e-09
-1.37224e-09
-4.08469e-09
-1.21968e-09
-4.77633e-09
-1.04541e-09
-5.38493e-09
-8.52661e-10
-5.90226e-09
-6.4491e-10
-6.32138e-09
-4.25858e-10
-6.63673e-09
-1.99363e-10
-6.84414e-09
3.06081e-11
-6.9409e-09
2.60043e-10
-6.92574e-09
4.84933e-10
-6.79887e-09
7.01339e-10
-6.56197e-09
9.0544e-10
-6.21817e-09
1.09359e-09
-5.77203e-09
1.26237e-09
-5.22951e-09
1.40864e-09
-4.59791e-09
1.52954e-09
-3.88581e-09
1.62259e-09
-3.10299e-09
1.68568e-09
-2.26034e-09
1.71709e-09
-1.3697e-09
1.71556e-09
-4.43767e-10
1.68028e-09
5.04151e-10
1.61097e-09
1.46029e-09
1.5079e-09
2.41057e-09
1.37194e-09
3.34076e-09
1.20448e-09
4.23664e-09
1.0075e-09
5.08417e-09
7.83468e-10
5.86972e-09
5.35354e-10
6.58024e-09
2.66542e-10
7.20349e-09
-1.92027e-11
7.7283e-09
-3.17795e-10
8.14469e-09
-6.24888e-10
8.44418e-09
-9.35935e-10
8.61992e-09
-1.24625e-09
8.66683e-09
-1.5511e-09
8.58182e-09
-1.84571e-09
8.36381e-09
-2.12541e-09
8.01382e-09
-2.38567e-09
7.53501e-09
-2.62216e-09
6.93268e-09
-2.83088e-09
6.21418e-09
-3.00817e-09
5.38886e-09
-3.15082e-09
4.46792e-09
-3.25613e-09
3.46428e-09
-3.32196e-09
2.39237e-09
-3.34679e-09
1.26798e-09
-3.32973e-09
1.07955e-10
-3.27054e-09
-1.06995e-09
-3.16956e-09
-2.24738e-09
-3.02775e-09
-3.40575e-09
-2.84661e-09
-4.52662e-09
-2.6282e-09
-5.59205e-09
-2.37514e-09
-6.5849e-09
-2.09054e-09
-7.48916e-09
-1.77803e-09
-8.29023e-09
-1.44163e-09
-8.97514e-09
-1.08579e-09
-9.53282e-09
-7.15248e-10
-9.95422e-09
-3.34998e-10
-1.02325e-08
-1.03633e-08
2.96213e-10
-1.06064e-08
5.5443e-10
-1.04341e-08
8.05381e-10
-1.01118e-08
1.04581e-09
-9.64454e-09
1.27262e-09
-9.03998e-09
1.48294e-09
-8.30785e-09
1.67416e-09
-7.45999e-09
1.84396e-09
-6.51006e-09
1.99032e-09
-5.47338e-09
2.11156e-09
-4.3666e-09
2.20633e-09
-3.20744e-09
2.27364e-09
-2.01436e-09
2.31286e-09
-8.0624e-10
2.32372e-09
3.97959e-10
2.30638e-09
1.57957e-09
2.26141e-09
2.72058e-09
2.18982e-09
3.80392e-09
2.09304e-09
4.81367e-09
1.97291e-09
5.73534e-09
1.83157e-09
6.55606e-09
1.67152e-09
7.26476e-09
1.49546e-09
7.85231e-09
1.30632e-09
8.31167e-09
1.10718e-09
8.63794e-09
9.01191e-10
8.82838e-09
6.91583e-10
8.88248e-09
4.81574e-10
8.80183e-09
2.74337e-10
8.59014e-09
7.29557e-11
8.25303e-09
-1.19619e-10
7.79797e-09
-3.00613e-10
7.23405e-09
-4.67475e-10
6.57182e-09
-6.17914e-10
5.82306e-09
-7.4994e-10
5.00056e-09
-8.61901e-10
4.11793e-09
-9.52511e-10
3.18932e-09
-1.02088e-09
2.22928e-09
-1.06651e-09
1.25247e-09
-1.08931e-09
2.73547e-10
-1.08959e-09
-6.93079e-10
-1.06798e-09
-1.63338e-09
-1.02543e-09
-2.53385e-09
-9.63175e-10
-3.38173e-09
-8.82712e-10
-4.16515e-09
-7.85777e-10
-4.87326e-09
-6.74328e-10
-5.49638e-09
-5.50523e-10
-6.02607e-09
-4.16689e-10
-6.45522e-09
-2.75299e-10
-6.77812e-09
-1.2893e-10
-6.99051e-09
1.97658e-11
-7.0896e-09
1.68104e-10
-7.07408e-09
3.13407e-10
-6.94417e-09
4.53037e-10
-6.7016e-09
5.84443e-10
-6.34958e-09
7.05189e-10
-5.89278e-09
8.12989e-10
-5.33731e-09
9.05737e-10
-4.69066e-09
9.81532e-10
-3.9616e-09
1.0387e-09