/*--------------------------------*- C++ -*----------------------------------*\
| =========                 |                                                 |
| \\      /  F ield         | OpenFOAM: The Open Source CFD Toolbox           |
|  \\    /   O peration     | Version:  2.3.0                                 |
|   \\  /    A nd           | Web:      www.OpenFOAM.org                      |
|    \\/     M anipulation  |                                                 |
\*---------------------------------------------------------------------------*/
FoamFile
{
    version     2.0;
    format      ascii;
    class       volScalarField;
    location    "2000";
    object      T;
}
// * * * * * * * * * * * * * * * * * * * * * * * * * * * * * * * * * * * * * //

dimensions      [0 0 0 1 0 0 0];

internalField   nonuniform List<scalar> 
765
(
36.4557
36.4315
36.3106
36.0405
35.7276
35.4536
35.2122
34.994
34.7931
34.6063
34.4294
34.2573
34.0842
33.905
33.7146
33.5125
33.2962
33.0648
32.8201
32.5666
32.3115
32.0651
31.8399
31.6497
31.509
31.4316
31.4315
31.5088
31.6495
31.8396
32.0649
32.3112
32.5663
32.8198
33.0645
33.2959
33.5123
33.7144
33.9048
34.084
34.2571
34.4293
34.6061
34.793
34.9939
35.212
35.4535
35.7275
36.0404
36.3106
36.4315
36.4157
36.311
35.9223
35.1166
34.2578
33.4767
32.7842
32.1505
31.5579
31.0031
30.4801
29.9741
29.4681
28.9654
28.4532
27.9166
27.3506
26.7564
26.1407
25.5153
24.8973
24.3088
23.776
23.3283
22.9969
22.8138
22.8137
22.9966
23.3279
23.7755
24.3082
24.8967
25.5146
26.1399
26.7557
27.35
27.916
28.4527
28.9649
29.4676
29.9737
30.4796
31.0027
31.5575
32.1501
32.7838
33.4764
34.2575
35.1164
35.9222
36.311
36.3221
36.1328
35.4729
34.2822
33.0086
31.8316
30.7648
29.7691
28.8336
27.9654
27.1633
26.4107
25.6852
24.9638
24.2283
23.4668
22.6753
21.8561
21.018
20.1751
19.3475
18.5613
17.8486
17.2474
16.7999
16.5515
16.5513
16.7996
17.2468
17.8479
18.5605
19.3467
20.1742
21.0171
21.8553
22.6744
23.4661
24.2276
24.9631
25.6846
26.4101
27.1627
27.9648
28.833
29.7686
30.7643
31.8312
33.0082
34.2819
35.4727
36.1328
36.1709
35.9034
35.0194
33.6087
32.0802
30.6387
29.3073
28.0644
26.9123
25.8555
24.8868
23.9883
23.1306
22.2813
21.4214
20.5398
19.6319
18.6988
17.747
16.7884
15.8416
14.933
14.0991
13.3863
12.8499
12.5504
12.5502
12.8495
13.3857
14.0983
14.9322
15.8407
16.7875
17.7461
18.6979
19.631
20.539
21.4206
22.2805
23.1299
23.9877
24.8861
25.8548
26.9117
28.0638
29.3067
30.6382
32.0797
33.6083
35.0191
35.9033
35.9827
35.6602
34.6681
33.1653
31.5242
29.9515
28.4896
27.1377
25.8981
24.7661
23.7267
22.7588
21.8408
20.9371
20.0262
19.095
18.136
17.1462
16.1271
15.0858
14.0376
13.0102
12.0466
11.2072
10.5671
10.2079
10.2078
10.5667
11.2066
12.0459
13.0094
14.0368
15.0849
16.1263
17.1454
18.1352
19.0942
20.0255
20.9364
21.8401
22.7582
23.7261
24.7655
25.8975
27.1371
28.489
29.951
31.5237
33.1649
34.6679
35.6601
35.7849
35.4483
34.4491
32.9709
31.3391
29.7548
28.2818
26.9313
25.701
24.5775
23.5389
22.5617
21.6249
20.7082
19.7842
18.8348
17.8473
16.8125
15.7254
14.5876
13.412
12.2292
11.0934
10.0849
9.30671
8.86928
8.8691
9.30623
10.0842
11.0925
12.2283
13.4111
14.5867
15.7246
16.8118
17.8466
18.8342
19.7836
20.7076
21.6244
22.5611
23.5384
24.5769
25.7005
26.9308
28.2813
29.7543
31.3387
32.9705
34.4488
35.4482
35.5923
35.268
34.3456
32.9997
31.4769
29.9698
28.5713
27.2934
26.1305
25.0638
24.0678
23.1163
22.1897
21.27
20.341
19.3757
18.3545
17.2615
16.0848
14.8209
13.4813
12.1015
10.7496
9.53071
8.58147
8.04807
8.04786
8.58091
9.5299
10.7487
12.1005
13.4804
14.8201
16.0841
17.2609
18.354
19.3752
20.3405
21.2696
22.1893
23.1159
24.0674
25.0634
26.13
27.293
28.5709
29.9694
31.4765
32.9994
34.3454
35.268
35.4084
35.1116
34.2989
33.1338
31.8103
30.476
29.2118
28.044
26.971
25.9758
25.0327
24.1113
23.2036
22.281
21.3368
20.3406
19.2675
18.0953
16.8064
15.3932
13.8668
12.2678
10.6781
9.22782
8.08924
7.44863
7.44838
8.08859
9.22689
10.6771
12.2667
13.8658
15.3924
16.8057
18.0947
19.267
20.3402
21.3364
22.2807
23.2033
24.1111
25.0324
25.9755
26.9708
28.0437
29.2115
30.4757
31.8101
33.1336
34.2988
35.1115
35.2265
34.9667
34.2804
33.3121
32.2081
31.074
29.9709
28.9263
27.9444
27.014
26.116
25.2285
24.3339
23.4077
22.4262
21.3758
20.2286
18.9589
17.5462
15.9806
14.2728
12.4672
10.6551
8.9854
7.66125
6.9098
6.90952
7.6605
8.98436
10.6539
12.466
14.2718
15.9798
17.5456
18.9584
20.2282
21.3755
22.4259
23.4075
24.3338
25.2284
26.1159
27.0139
27.9442
28.9262
29.9708
31.0738
32.2079
33.312
34.2803
34.9666
35.0131
34.7938
34.2315
33.4458
32.5423
31.5931
30.6402
29.705
28.7941
27.903
27.0198
26.1293
25.2159
24.2597
23.2316
22.1117
20.8769
19.5041
17.974
16.278
14.4278
12.4686
10.4944
8.66086
7.18839
6.33772
6.3374
7.18756
8.65974
10.4932
12.4675
14.4268
16.2772
17.9734
19.5036
20.8766
22.1115
23.2314
24.2596
25.2159
26.1293
27.0197
27.9029
28.7941
29.705
30.6401
31.593
32.5422
33.4458
34.2314
34.7938
34.6517
34.4687
34.0082
33.3638
32.6096
31.7941
30.9454
30.0778
29.1973
28.3037
27.3917
26.4534
25.4785
24.4539
23.3605
22.169
20.8518
19.3924
17.777
16.0007
14.0769
12.0497
10.0091
8.10663
6.56367
5.65741
5.65707
6.56281
8.10549
10.0079
12.0485
14.0759
15.9999
17.7764
19.392
20.8515
22.1688
23.3604
24.4539
25.4785
26.4534
27.3918
28.3037
29.1973
30.0778
30.9454
31.7941
32.6096
33.3638
34.0082
34.4687
33.7897
33.6313
33.2334
32.6678
31.9886
31.2324
30.4191
29.5579
28.6531
27.7069
26.7207
25.6937
24.6231
23.5032
22.3246
21.0776
19.7205
18.2336
16.6106
14.8508
12.9685
11.004
9.03722
7.20367
5.70738
4.81686
4.81653
5.70656
7.2026
9.03608
11.0029
12.9675
14.8501
16.61
18.2332
19.7203
21.0775
22.3246
23.5032
24.6232
25.6938
26.7208
27.707
28.6531
29.558
30.4192
31.2324
31.9887
32.6678
33.2334
33.6313
31.5244
31.3765
30.9995
30.4521
29.7808
29.0196
28.1855
27.2832
26.3153
25.2888
24.2129
23.0958
21.9427
20.7544
19.5283
18.2615
16.9647
15.5804
14.0991
12.5199
10.8555
9.13923
7.4349
5.85065
4.55384
3.77462
3.77433
4.55315
5.84975
7.43394
9.13832
10.8547
12.5193
14.0987
15.5801
16.9645
18.2615
19.5283
20.7544
21.9427
23.096
24.213
25.2889
26.3154
27.2833
28.1856
29.0197
29.7809
30.4522
30.9995
31.3766
25.9932
25.8525
25.4884
24.9551
24.2957
23.5398
22.7031
21.7916
20.8118
19.778
18.708
17.6177
16.5177
15.4134
14.3048
13.1904
12.0743
10.9834
9.88917
8.7309
7.52428
6.29551
5.08604
3.9662
3.04836
2.4933
2.49309
3.04788
3.96557
5.08538
6.29489
7.52374
8.73047
9.88887
10.9832
12.0742
13.1903
14.3048
15.4134
16.5178
17.6178
18.7081
19.7781
20.8119
21.7917
22.7032
23.5399
24.2958
24.9552
25.4884
25.8525
14.2459
14.1366
13.853
13.4415
12.9375
12.3621
11.7292
11.0494
10.3348
9.60238
8.87044
8.15339
7.46007
6.79386
6.15407
5.53808
4.94439
4.37571
3.83164
3.33452
2.8569
2.38634
1.92752
1.50177
1.15019
0.935548
0.93547
1.15001
1.50154
1.92727
2.38611
2.8567
3.33435
3.83148
4.37556
4.94428
5.53801
6.15404
6.79385
7.46008
8.15342
8.87048
9.60243
10.3348
11.0494
11.7293
12.3622
12.9375
13.4415
13.8531
14.1366
)
;

boundaryField
{
    top
    {
        type            fixedValue;
        value           uniform 0;
    }
    bottom
    {
        type            fixedValue;
        value           uniform 36.5;
    }
    frontAndBack
    {
        type            empty;
    }
    left_cyc
    {
        type            cyclic;
    }
    right_cyc
    {
        type            cyclic;
    }
}


// ************************************************************************* //
