/*--------------------------------*- C++ -*----------------------------------*\
| =========                 |                                                 |
| \\      /  F ield         | OpenFOAM: The Open Source CFD Toolbox           |
|  \\    /   O peration     | Version:  2.3.0                                 |
|   \\  /    A nd           | Web:      www.OpenFOAM.org                      |
|    \\/     M anipulation  |                                                 |
\*---------------------------------------------------------------------------*/
FoamFile
{
    version     2.0;
    format      ascii;
    class       volScalarField;
    location    "2000";
    object      T;
}
// * * * * * * * * * * * * * * * * * * * * * * * * * * * * * * * * * * * * * //

dimensions      [0 0 0 1 0 0 0];

internalField   nonuniform List<scalar> 
765
(
31.4589
31.5783
31.789
32.0792
32.4394
32.8611
33.3267
33.7652
34.1895
34.6007
34.977
35.2755
35.4365
35.3975
35.1785
34.8441
34.4483
34.0265
33.5908
33.1215
32.666
32.2684
31.9421
31.6966
31.5433
31.4966
31.5689
31.744
32.0085
32.3515
32.7633
33.2277
33.6866
34.12
34.5384
34.9248
35.2393
35.4246
35.4164
35.2198
34.8999
34.5131
34.0979
33.6708
33.2222
32.7648
32.3558
32.0101
31.7362
31.5442
31.4461
23.0693
23.3533
23.8516
24.5364
25.3867
26.3869
27.5182
28.7424
29.9715
31.1555
32.2237
33.0676
33.5342
33.4195
32.7927
31.8492
30.7191
29.5023
28.2599
27.0375
25.9464
25.008
24.2393
23.6601
23.2967
23.1853
23.3575
23.7721
24.3958
25.2038
26.1768
27.2956
28.5295
29.7736
30.9784
32.0776
32.9654
33.4991
33.4742
32.9089
32.0063
30.9047
29.7077
28.4784
27.2641
26.1582
25.1892
24.3733
23.7269
23.2722
23.0388
17.1232
17.5063
18.1749
19.087
20.2133
21.5375
23.0517
24.7437
26.5471
28.3553
30.0041
31.2984
32.0106
31.8359
30.8792
29.4267
27.6847
25.8478
24.0618
22.4205
20.9735
19.7322
18.7112
17.9366
17.4477
17.2977
17.5297
18.0871
18.92
19.9919
21.2797
22.7698
24.4489
26.2551
28.0853
29.7805
31.1438
31.9577
31.9187
31.0558
29.6683
27.9683
26.1501
24.3649
22.708
21.2341
19.952
18.8704
18.0081
17.3971
17.0821
13.3828
13.8354
14.6193
15.6724
16.9513
18.4372
20.1346
22.0624
24.1805
26.3525
28.3684
29.9607
30.822
30.6138
29.4478
27.6594
25.5436
23.3538
21.277
19.4333
17.8124
16.41
15.2387
14.3359
13.7602
13.5837
13.8573
14.5127
15.4804
16.7059
18.1577
19.8287
21.728
23.839
26.0292
28.0952
29.773
30.7599
30.7126
29.6635
27.9542
25.8833
23.7081
21.6221
19.7474
18.0977
16.6566
15.4242
14.4249
13.7068
13.3345
11.1805
11.7058
12.6071
13.7927
15.1931
16.7768
18.5546
20.5721
22.8014
25.1065
27.2647
28.9724
29.8798
29.6642
28.423
26.5033
24.2451
21.9283
19.7465
17.8154
16.1001
14.5808
13.2765
12.2472
11.5821
11.3789
11.6949
12.4509
13.5493
14.906
16.4697
18.2319
20.2215
22.442
24.7632
26.9719
28.7719
29.8162
29.7675
28.6546
26.8197
24.6064
22.3025
20.1109
18.151
16.4186
14.8744
13.5165
12.3855
11.557
11.1249
9.87418
10.4902
11.5395
12.8908
14.4366
16.1205
17.9466
19.9717
22.1757
24.4446
26.5661
28.2352
29.1052
28.9006
27.6973
25.8138
23.5913
21.3058
19.1348
17.1679
15.3694
13.7174
12.25
11.0626
10.2864
10.0504
10.4185
11.2999
12.5615
14.0771
15.7632
17.5963
19.6105
21.8145
24.1026
26.2755
28.0384
29.0453
29.0004
27.9265
26.1292
23.9527
21.6844
19.5141
17.5379
15.746
14.0906
12.5802
11.2836
10.3162
9.80973
9.01579
9.74044
10.9695
12.5257
14.2564
16.0703
17.9514
19.9429
22.0405
24.1646
26.1305
27.6594
28.4409
28.257
27.1628
25.4259
23.355
21.1983
19.1009
17.1144
15.2126
13.3924
11.7227
10.3433
9.43358
9.15866
9.58876
10.621
12.0815
13.7954
15.6371
17.5554
19.5665
21.6823
23.8343
25.8545
27.4757
28.387
28.3494
27.3792
25.7277
23.7066
21.5775
19.5013
17.5387
15.6745
13.8751
12.172
10.6716
9.53604
8.94078
8.34049
9.18365
10.6072
12.3879
14.3279
16.2981
18.2563
20.1979
22.1492
24.0674
25.809
27.1456
27.8227
27.6595
26.7029
25.1719
23.3184
21.3416
19.3448
17.3386
15.3087
13.2963
11.4041
9.81668
8.76212
8.44403
8.9424
10.1381
11.8143
13.7478
15.7696
17.7972
19.7973
21.7916
23.7519
25.5526
26.9779
27.7742
27.7448
26.9025
25.4551
23.6582
21.7249
19.7766
17.8356
15.8756
13.9059
11.9866
10.264
8.94621
8.25368
7.70385
8.66539
10.2714
12.2584
14.3932
16.5121
18.5299
20.4183
22.2253
23.9366
25.4521
26.5986
27.1761
27.0314
26.2064
24.8788
23.2426
21.4433
19.5441
17.5289
15.39
13.2001
11.1041
9.32406
8.12816
7.7633
8.33376
9.68649
11.5615
13.6966
15.8855
18.0014
19.9843
21.8603
23.6303
25.2119
26.4447
27.1322
27.1107
26.3918
25.1474
23.5767
21.8397
20.0173
18.1058
16.0645
13.9332
11.8134
9.88624
8.39586
7.60388
7.00753
8.05759
9.78886
11.9138
14.1827
16.4109
18.4808
20.338
22.0359
23.5775
24.9
25.8812
26.3714
26.2416
25.5297
24.3758
22.9204
21.2611
19.4311
17.4033
15.1789
12.865
10.633
8.72333
7.42577
7.02331
7.65036
9.11385
11.1218
13.3923
15.6998
17.8888
19.8641
21.6532
23.2706
24.6684
25.7366
26.3307
26.317
25.7061
24.6377
23.2591
21.6813
19.9525
18.0564
15.9458
13.6965
11.4399
9.37569
7.76503
6.8966
6.1841
7.2624
9.02162
11.1728
13.4718
15.7319
17.8181
19.657
21.2854
22.7087
23.8882
24.7426
25.1636
25.0442
24.4182
23.3936
22.0674
20.5017
18.715
16.6885
14.4394
12.0971
9.8406
7.90598
6.58065
6.16347
6.81134
8.30256
10.3349
12.6308
14.9674
17.1784
19.1435
20.8776
22.3915
23.6566
24.6014
25.1244
25.1182
24.5922
23.658
22.4202
20.9517
19.2816
17.3977
15.2628
12.9798
10.6937
8.6031
6.96352
6.06849
5.19007
6.21011
7.86088
9.87814
12.0472
14.2025
16.2153
18.0047
19.5722
20.9099
21.9884
22.7517
23.1218
23.0087
22.4436
21.5101
20.2753
18.7828
17.0523
15.0906
12.9378
10.722
8.60416
6.79181
5.54337
5.14552
5.76162
7.16363
9.06696
11.2244
13.4402
15.5621
17.4682
19.1442
20.5804
21.7521
22.6099
23.0826
23.0831
22.6192
21.781
20.6426
19.2544
17.641
15.8092
13.7533
11.5814
9.42827
7.46875
5.92851
5.07931
3.99641
4.85241
6.22797
7.9088
9.73035
11.5707
13.3364
14.9592
16.3956
17.6158
18.5873
19.2651
19.5895
19.4839
18.9772
18.1366
17.0139
15.6479
14.0714
12.3248
10.47
8.60003
6.83269
5.32435
4.28045
3.94429
4.46357
5.63383
7.21747
9.02052
10.8967
12.7352
14.4469
15.9784
17.2923
18.3555
19.1266
19.5511
19.5564
19.1485
18.402
17.3733
16.1043
14.6262
12.9709
11.1813
9.33588
7.53269
5.90136
4.61682
3.90246
2.58546
3.16644
4.09202
5.21864
6.44461
7.70454
8.96124
10.1842
11.2961
12.2523
13.0159
13.5476
13.8008
13.715
13.3144
12.6518
11.7694
10.7057
9.50323
8.22618
6.94035
5.67595
4.49114
3.47868
2.77294
2.54342
2.89719
3.68667
4.74838
5.95758
7.22992
8.5138
9.78464
10.9609
11.9873
12.824
13.4323
13.7684
13.7752
13.4563
12.8703
12.0617
11.0688
9.92835
8.68766
7.43118
6.17615
4.9657
3.87245
3.00699
2.52107
0.946342
1.1581
1.48948
1.8852
2.31017
2.74981
3.21393
3.71681
4.19353
4.61402
4.95529
5.19499
5.30935
5.27011
5.0887
4.79093
4.39974
3.9383
3.43414
2.93576
2.48021
2.04228
1.62884
1.26917
1.01373
0.9295
1.05901
1.34359
1.71898
2.13929
2.57976
3.03848
3.54911
4.04749
4.49548
4.86784
5.14179
5.29422
5.29769
5.15362
4.88977
4.52939
4.09464
3.60871
3.10338
2.65118
2.2164
1.7966
1.41132
1.10026
0.922603
)
;

boundaryField
{
    top
    {
        type            fixedValue;
        value           uniform 0;
    }
    bottom
    {
        type            fixedValue;
        value           uniform 36.5;
    }
    frontAndBack
    {
        type            empty;
    }
    left_cyc
    {
        type            cyclic;
    }
    right_cyc
    {
        type            cyclic;
    }
}


// ************************************************************************* //
