/*--------------------------------*- C++ -*----------------------------------*\
| =========                 |                                                 |
| \\      /  F ield         | OpenFOAM: The Open Source CFD Toolbox           |
|  \\    /   O peration     | Version:  2.3.0                                 |
|   \\  /    A nd           | Web:      www.OpenFOAM.org                      |
|    \\/     M anipulation  |                                                 |
\*---------------------------------------------------------------------------*/
FoamFile
{
    version     2.0;
    format      ascii;
    class       volScalarField;
    location    "2000";
    object      T;
}
// * * * * * * * * * * * * * * * * * * * * * * * * * * * * * * * * * * * * * //

dimensions      [0 0 0 1 0 0 0];

internalField   nonuniform List<scalar> 
3060
(
35.8604
35.8608
35.8615
35.8625
35.8639
35.8655
35.8673
35.8694
35.8717
35.8741
35.8766
35.8792
35.8817
35.8843
35.8867
35.889
35.8912
35.8932
35.8951
35.8968
35.8983
35.8996
35.9007
35.9015
35.902
35.9023
35.9024
35.9022
35.9018
35.9012
35.9004
35.8993
35.8981
35.8968
35.8953
35.8937
35.8921
35.8904
35.8886
35.8868
35.885
35.8832
35.8815
35.8799
35.8785
35.8772
35.8761
35.8752
35.8745
35.8741
35.8739
35.8739
35.8742
35.8747
35.8754
35.8764
35.8775
35.8789
35.8803
35.882
35.8837
35.8855
35.8873
35.8891
35.8908
35.8926
35.8942
35.8957
35.8972
35.8985
35.8996
35.9006
35.9014
35.902
35.9023
35.9024
35.9023
35.9019
35.9013
35.9004
35.8993
35.8979
35.8964
35.8946
35.8927
35.8906
35.8884
35.886
35.8836
35.881
35.8785
35.8759
35.8734
35.871
35.8688
35.8668
35.865
35.8635
35.8622
35.8613
35.8607
35.8604
34.5817
34.5828
34.5849
34.588
34.5919
34.5967
34.6023
34.6085
34.6152
34.6224
34.6299
34.6376
34.6454
34.6529
34.6603
34.6673
34.6739
34.6801
34.6858
34.6909
34.6955
34.6993
34.7025
34.7049
34.7066
34.7076
34.7078
34.7073
34.706
34.7041
34.7016
34.6984
34.6948
34.6907
34.6863
34.6815
34.6765
34.6712
34.6659
34.6605
34.655
34.6497
34.6446
34.6399
34.6356
34.6318
34.6285
34.6259
34.6239
34.6225
34.6219
34.622
34.6228
34.6244
34.6265
34.6294
34.6328
34.6368
34.6412
34.646
34.6512
34.6565
34.662
34.6674
34.6727
34.6779
34.6829
34.6875
34.6919
34.6959
34.6994
34.7023
34.7047
34.7064
34.7075
34.7078
34.7074
34.7062
34.7043
34.7017
34.6983
34.6942
34.6895
34.6842
34.6784
34.6721
34.6653
34.6583
34.6509
34.6432
34.6355
34.6278
34.6204
34.6133
34.6067
34.6007
34.5953
34.5908
34.5871
34.5843
34.5824
34.5815
33.3043
33.3062
33.3096
33.3147
33.3212
33.3291
33.3382
33.3484
33.3596
33.3714
33.3839
33.3966
33.4094
33.422
33.4342
33.446
33.4571
33.4675
33.477
33.4856
33.4932
33.4997
33.505
33.5091
33.512
33.5136
33.5139
33.513
33.5109
33.5077
33.5034
33.4981
33.492
33.4852
33.4777
33.4696
33.4612
33.4525
33.4435
33.4345
33.4254
33.4167
33.4083
33.4005
33.3933
33.387
33.3817
33.3773
33.374
33.3718
33.3708
33.371
33.3723
33.3748
33.3784
33.3831
33.3887
33.3953
33.4026
33.4106
33.4191
33.428
33.437
33.4461
33.455
33.4636
33.4719
33.4798
33.4872
33.4938
33.4997
33.5046
33.5086
33.5115
33.5133
33.5139
33.5132
33.5113
33.5081
33.5036
33.498
33.4912
33.4833
33.4744
33.4646
33.454
33.4428
33.4309
33.4186
33.4059
33.3931
33.3804
33.3681
33.3564
33.3455
33.3356
33.3268
33.3193
33.3131
33.3085
33.3055
33.304
32.0294
32.0319
32.0367
32.0436
32.0526
32.0635
32.076
32.0901
32.1054
32.1218
32.1389
32.1565
32.1742
32.1917
32.2087
32.2251
32.2406
32.2552
32.2686
32.2806
32.2913
32.3004
32.3078
32.3136
32.3175
32.3197
32.3202
32.3189
32.316
32.3114
32.3054
32.2981
32.2895
32.2799
32.2694
32.2581
32.2463
32.2341
32.2216
32.209
32.1966
32.1844
32.1729
32.1621
32.1523
32.1436
32.1362
32.1302
32.1257
32.1227
32.1213
32.1215
32.1234
32.1268
32.1318
32.1382
32.146
32.155
32.1651
32.1761
32.1878
32.2001
32.2126
32.2252
32.2376
32.2497
32.2613
32.2724
32.2827
32.292
32.3002
32.3072
32.3128
32.3169
32.3194
32.3202
32.3192
32.3165
32.3121
32.3059
32.298
32.2884
32.2774
32.2649
32.2512
32.2364
32.2206
32.2041
32.1869
32.1693
32.1516
32.1341
32.1172
32.1011
32.0861
32.0724
32.0603
32.05
32.0415
32.0352
32.031
32.029
30.7579
30.7611
30.7671
30.7758
30.7871
30.8007
30.8164
30.8341
30.8534
30.874
30.8955
30.9176
30.94
30.9622
30.9838
31.0046
31.0244
31.0429
31.06
31.0754
31.089
31.1006
31.1101
31.1175
31.1226
31.1254
31.1259
31.1243
31.1205
31.1148
31.1071
31.0977
31.0867
31.0745
31.061
31.0467
31.0316
31.0161
31.0002
30.9843
30.9686
30.9533
30.9387
30.9252
30.9129
30.902
30.8927
30.8851
30.8794
30.8757
30.8739
30.8742
30.8765
30.8808
30.8871
30.8952
30.9049
30.9162
30.9289
30.9428
30.9576
30.973
30.9888
31.0047
31.0205
31.0359
31.0508
31.0649
31.078
31.0899
31.1004
31.1093
31.1165
31.1217
31.1249
31.1259
31.1247
31.1213
31.1156
31.1076
31.0975
31.0854
31.0713
31.0554
31.0379
31.019
30.9989
30.9778
30.956
30.9338
30.9115
30.8895
30.8682
30.8479
30.8291
30.8119
30.7967
30.7837
30.7732
30.7652
30.7599
30.7575
29.4905
29.4943
29.5015
29.5118
29.5251
29.5413
29.56
29.581
29.6039
29.6284
29.654
29.6803
29.707
29.7335
29.7594
29.7844
29.8082
29.8305
29.851
29.8696
29.886
29.9
29.9115
29.9203
29.9264
29.9298
29.9305
29.9286
29.924
29.9171
29.9078
29.8965
29.8834
29.8686
29.8524
29.8352
29.8171
29.7984
29.7794
29.7604
29.7416
29.7234
29.7061
29.69
29.6754
29.6624
29.6514
29.6424
29.6356
29.6312
29.6291
29.6294
29.6322
29.6373
29.6447
29.6543
29.6659
29.6794
29.6945
29.7109
29.7285
29.7469
29.7658
29.7848
29.8037
29.8222
29.8401
29.8571
29.8728
29.8872
29.8998
29.9106
29.9192
29.9255
29.9293
29.9305
29.9291
29.9249
29.918
29.9084
29.8963
29.8816
29.8646
29.8455
29.8244
29.8017
29.7775
29.7523
29.7262
29.6996
29.673
29.6468
29.6215
29.5974
29.575
29.5546
29.5366
29.5212
29.5086
29.4992
29.4929
29.49
28.2277
28.2321
28.2402
28.252
28.2673
28.2857
28.3071
28.3311
28.3573
28.3853
28.4146
28.4448
28.4754
28.5058
28.5356
28.5644
28.5919
28.6177
28.6415
28.663
28.6819
28.6981
28.7114
28.7216
28.7287
28.7327
28.7335
28.7313
28.7261
28.7181
28.7074
28.6943
28.6791
28.6621
28.6434
28.6234
28.6026
28.581
28.5592
28.5373
28.5158
28.4949
28.4751
28.4567
28.4399
28.4251
28.4125
28.4022
28.3945
28.3894
28.387
28.3874
28.3906
28.3964
28.4049
28.4159
28.4291
28.4445
28.4618
28.4806
28.5008
28.5218
28.5435
28.5654
28.5871
28.6085
28.6291
28.6487
28.667
28.6835
28.6982
28.7106
28.7205
28.7277
28.7321
28.7335
28.7318
28.727
28.719
28.7079
28.6938
28.6768
28.6571
28.635
28.6107
28.5844
28.5565
28.5274
28.4974
28.4669
28.4364
28.4064
28.3774
28.3499
28.3243
28.301
28.2803
28.2627
28.2484
28.2376
28.2305
28.2271
26.9698
26.9746
26.9837
26.9968
27.0137
27.0343
27.058
27.0847
27.1138
27.1449
27.1776
27.2112
27.2452
27.2792
27.3126
27.3448
27.3756
27.4045
27.4312
27.4553
27.4766
27.4948
27.5098
27.5213
27.5293
27.5338
27.5348
27.5323
27.5265
27.5175
27.5056
27.4909
27.4739
27.4547
27.4338
27.4115
27.3881
27.364
27.3396
27.3152
27.2911
27.2679
27.2459
27.2254
27.2067
27.1903
27.1762
27.1648
27.1562
27.1505
27.1479
27.1484
27.1519
27.1584
27.1678
27.18
27.1947
27.2118
27.231
27.252
27.2744
27.2979
27.3221
27.3465
27.3708
27.3947
27.4179
27.4398
27.4602
27.4788
27.4952
27.5091
27.5202
27.5283
27.5332
27.5347
27.5328
27.5273
27.5183
27.5058
27.49
27.4709
27.4488
27.424
27.3966
27.3672
27.336
27.3034
27.2698
27.2358
27.2018
27.1684
27.1362
27.1056
27.0771
27.0512
27.0283
27.0087
26.9928
26.9808
26.9729
26.9692
25.7171
25.7224
25.7322
25.7464
25.7648
25.7872
25.813
25.842
25.8736
25.9075
25.943
25.9796
26.0168
26.0538
26.0903
26.1256
26.1593
26.191
26.2202
26.2467
26.2701
26.2901
26.3065
26.3191
26.328
26.3329
26.334
26.3313
26.325
26.3152
26.3022
26.2861
26.2675
26.2465
26.2236
26.1992
26.1736
26.1472
26.1205
26.0939
26.0677
26.0424
26.0184
25.9961
25.9758
25.9579
25.9426
25.9302
25.9209
25.9147
25.9119
25.9124
25.9162
25.9232
25.9335
25.9467
25.9628
25.9814
26.0022
26.0251
26.0495
26.0751
26.1014
26.1281
26.1547
26.1809
26.2062
26.2302
26.2526
26.2729
26.2908
26.306
26.3182
26.327
26.3323
26.334
26.3318
26.3258
26.3159
26.3021
26.2847
26.2638
26.2395
26.2123
26.1823
26.15
26.1159
26.0802
26.0436
26.0064
25.9694
25.9331
25.898
25.8647
25.8337
25.8056
25.7807
25.7594
25.7421
25.7291
25.7205
25.7164
24.4698
24.4755
24.486
24.5012
24.5208
24.5446
24.5722
24.6031
24.637
24.6731
24.7111
24.7502
24.79
24.8297
24.8688
24.9067
24.9429
24.977
25.0085
25.037
25.0621
25.0837
25.1014
25.1151
25.1246
25.13
25.1312
25.1284
25.1216
25.1111
25.0971
25.0799
25.0599
25.0374
25.0128
24.9865
24.959
24.9307
24.9021
24.8736
24.8455
24.8185
24.7928
24.7689
24.7473
24.7282
24.7118
24.6986
24.6886
24.682
24.679
24.6795
24.6836
24.6911
24.702
24.7162
24.7333
24.7532
24.7755
24.7999
24.826
24.8534
24.8816
24.9102
24.9388
24.9668
24.994
25.0198
25.0439
25.0657
25.0849
25.1012
25.1143
25.1238
25.1294
25.1311
25.1288
25.1222
25.1115
25.0967
25.0779
25.0554
25.0293
24.9999
24.9677
24.933
24.8963
24.858
24.8187
24.7789
24.7393
24.7005
24.6629
24.6274
24.5943
24.5643
24.5377
24.515
24.4965
24.4826
24.4734
24.4691
23.2282
23.2341
23.2451
23.2611
23.2817
23.3068
23.3358
23.3683
23.4039
23.4419
23.4819
23.5231
23.565
23.6069
23.6482
23.6883
23.7266
23.7626
23.796
23.8261
23.8528
23.8757
23.8945
23.909
23.9192
23.9249
23.9263
23.9233
23.9162
23.9051
23.8903
23.8722
23.851
23.8272
23.8012
23.7734
23.7444
23.7145
23.6843
23.6542
23.6246
23.5961
23.5691
23.544
23.5212
23.501
23.4839
23.4699
23.4594
23.4525
23.4493
23.4499
23.4541
23.4621
23.4736
23.4884
23.5065
23.5274
23.5509
23.5766
23.604
23.6329
23.6627
23.6928
23.723
23.7527
23.7814
23.8087
23.8341
23.8571
23.8775
23.8947
23.9085
23.9184
23.9244
23.9262
23.9236
23.9166
23.9052
23.8895
23.8696
23.8456
23.818
23.7869
23.7528
23.7161
23.6772
23.6368
23.5953
23.5534
23.5116
23.4707
23.4312
23.3938
23.359
23.3274
23.2995
23.2756
23.2562
23.2416
23.232
23.2275
21.9922
21.9984
22.0098
22.0264
22.0478
22.0737
22.1038
22.1376
22.1745
22.214
22.2555
22.2984
22.3419
22.3855
22.4285
22.4703
22.5102
22.5479
22.5827
22.6142
22.6421
22.666
22.6857
22.7009
22.7116
22.7176
22.7191
22.716
22.7086
22.6971
22.6818
22.6628
22.6408
22.616
22.5889
22.5599
22.5296
22.4985
22.467
22.4357
22.4049
22.3753
22.3472
22.3211
22.2975
22.2766
22.2588
22.2443
22.2334
22.2262
22.2229
22.2235
22.2279
22.2361
22.2481
22.2635
22.2822
22.3039
22.3283
22.355
22.3835
22.4135
22.4445
22.4759
22.5073
22.5382
22.5682
22.5966
22.6231
22.6472
22.6684
22.6863
22.7006
22.711
22.7172
22.719
22.7162
22.7089
22.6969
22.6805
22.6596
22.6346
22.6057
22.5732
22.5376
22.4993
22.4588
22.4166
22.3734
22.3298
22.2864
22.2439
22.2029
22.164
22.128
22.0952
22.0662
22.0414
22.0213
22.0062
21.9962
21.9915
20.7621
20.7684
20.7801
20.797
20.819
20.8456
20.8764
20.911
20.9489
20.9894
21.0319
21.0759
21.1207
21.1655
21.2097
21.2527
21.2939
21.3327
21.3686
21.4012
21.4299
21.4546
21.475
21.4907
21.5018
21.5081
21.5096
21.5066
21.499
21.4872
21.4713
21.4519
21.4292
21.4036
21.3757
21.3459
21.3147
21.2827
21.2503
21.2181
21.1865
21.156
21.1272
21.1004
21.0762
21.0547
21.0365
21.0217
21.0105
21.0031
20.9997
21.0003
21.0048
21.0133
21.0255
21.0413
21.0605
21.0828
21.1078
21.1352
21.1645
21.1953
21.2271
21.2594
21.2918
21.3236
21.3544
21.3837
21.411
21.4358
21.4576
21.476
21.4907
21.5014
21.5077
21.5095
21.5066
21.499
21.4866
21.4696
21.448
21.4222
21.3923
21.3588
21.3221
21.2826
21.2409
21.1975
21.1531
21.1082
21.0636
21.02
20.978
20.9381
20.9011
20.8675
20.8378
20.8125
20.7919
20.7763
20.7661
20.7613
19.5377
19.544
19.5559
19.5731
19.5953
19.6222
19.6535
19.6886
19.727
19.7681
19.8113
19.8559
19.9013
19.9469
19.9919
20.0357
20.0776
20.1171
20.1538
20.187
20.2164
20.2416
20.2624
20.2785
20.2898
20.2963
20.2979
20.2948
20.2872
20.2751
20.2591
20.2393
20.2162
20.1902
20.1617
20.1314
20.0997
20.067
20.0341
20.0013
19.9692
19.9383
19.909
19.8819
19.8573
19.8355
19.817
19.802
19.7907
19.7832
19.7798
19.7803
19.7849
19.7935
19.8059
19.8219
19.8414
19.864
19.8894
19.9171
19.9469
19.9782
20.0105
20.0434
20.0763
20.1087
20.14
20.1699
20.1976
20.2229
20.2451
20.2638
20.2788
20.2896
20.296
20.2978
20.2948
20.287
20.2743
20.2569
20.2348
20.2085
20.178
20.1438
20.1063
20.0661
20.0236
19.9794
19.9342
19.8887
19.8434
19.7991
19.7565
19.7161
19.6786
19.6445
19.6144
19.5887
19.5678
19.5521
19.5417
19.5369
18.319
18.3254
18.3373
18.3545
18.3768
18.4038
18.4351
18.4703
18.5088
18.55
18.5934
18.6382
18.6839
18.7297
18.775
18.8191
18.8613
18.9012
18.9381
18.9717
19.0013
19.0268
19.0478
19.0641
19.0756
19.0822
19.0839
19.0808
19.0732
19.0611
19.0449
19.025
19.0017
18.9755
18.9469
18.9163
18.8844
18.8515
18.8184
18.7854
18.7531
18.7221
18.6927
18.6654
18.6407
18.6189
18.6003
18.5852
18.5739
18.5664
18.5629
18.5635
18.5681
18.5767
18.5892
18.6053
18.6248
18.6474
18.6729
18.7008
18.7307
18.7621
18.7946
18.8277
18.8608
18.8934
18.925
18.9551
18.9831
19.0084
19.0308
19.0497
19.0647
19.0756
19.082
19.0837
19.0807
19.0727
19.0599
19.0423
19.02
18.9934
18.9626
18.9281
18.8903
18.8497
18.8069
18.7625
18.717
18.6712
18.6257
18.5812
18.5384
18.4979
18.4603
18.4261
18.3959
18.3701
18.3492
18.3334
18.3231
18.3182
17.1059
17.1123
17.1241
17.1411
17.1633
17.1901
17.2212
17.2561
17.2943
17.3353
17.3784
17.4229
17.4683
17.5139
17.559
17.6029
17.6451
17.6849
17.7218
17.7552
17.7849
17.8104
17.8314
17.8477
17.8592
17.8658
17.8676
17.8646
17.857
17.845
17.8288
17.809
17.7858
17.7597
17.7312
17.7007
17.6688
17.6361
17.6031
17.5703
17.5382
17.5073
17.4781
17.451
17.4264
17.4048
17.3863
17.3713
17.3601
17.3527
17.3492
17.3498
17.3544
17.3629
17.3752
17.3912
17.4106
17.4331
17.4584
17.4861
17.5159
17.5471
17.5794
17.6124
17.6454
17.6779
17.7094
17.7393
17.7672
17.7925
17.8148
17.8336
17.8486
17.8594
17.8658
17.8674
17.8643
17.8563
17.8435
17.8258
17.8036
17.7769
17.7462
17.7117
17.674
17.6335
17.5908
17.5465
17.5013
17.4557
17.4105
17.3663
17.3237
17.2835
17.2461
17.2122
17.1822
17.1567
17.1359
17.1203
17.11
17.1052
15.8984
15.9046
15.9162
15.933
15.9547
15.981
16.0116
16.0459
16.0835
16.1237
16.1661
16.2099
16.2546
16.2994
16.3439
16.3872
16.4289
16.4682
16.5046
16.5377
16.567
16.5922
16.613
16.6292
16.6407
16.6472
16.649
16.6461
16.6386
16.6268
16.6109
16.5913
16.5684
16.5427
16.5145
16.4845
16.453
16.4208
16.3882
16.3559
16.3242
16.2938
16.2651
16.2385
16.2143
16.193
16.1749
16.1602
16.1491
16.1418
16.1385
16.139
16.1435
16.1519
16.164
16.1797
16.1988
16.2209
16.2458
16.2731
16.3023
16.3331
16.3649
16.3974
16.4299
16.462
16.493
16.5226
16.5501
16.5751
16.5971
16.6156
16.6304
16.641
16.6472
16.6489
16.6457
16.6378
16.625
16.6075
16.5855
16.5591
16.5287
16.4947
16.4574
16.4174
16.3753
16.3316
16.287
16.2421
16.1976
16.1542
16.1124
16.0728
16.0361
16.0028
15.9733
15.9482
15.9279
15.9125
15.9024
15.8976
14.6962
14.7022
14.7135
14.7298
14.7509
14.7765
14.8062
14.8395
14.8761
14.9152
14.9564
14.9991
15.0426
15.0863
15.1297
15.172
15.2126
15.251
15.2867
15.3191
15.3478
15.3725
15.3928
15.4087
15.4199
15.4264
15.4282
15.4254
15.4181
15.4066
15.3911
15.372
15.3496
15.3245
15.297
15.2676
15.2369
15.2055
15.1737
15.1421
15.1113
15.0817
15.0538
15.0278
15.0044
14.9837
14.966
14.9517
14.9409
14.9339
14.9306
14.9311
14.9355
14.9436
14.9554
14.9707
14.9892
15.0108
15.035
15.0615
15.09
15.1199
15.151
15.1826
15.2143
15.2456
15.276
15.3048
15.3317
15.3561
15.3776
15.3957
15.4101
15.4204
15.4265
15.428
15.4249
15.4171
15.4046
15.3874
15.3659
15.34
15.3103
15.277
15.2405
15.2015
15.1604
15.1177
15.0742
15.0305
14.9872
14.9449
14.9042
14.8657
14.83
14.7976
14.769
14.7446
14.7248
14.7099
14.7001
14.6955
13.4991
13.5049
13.5157
13.5314
13.5517
13.5763
13.6048
13.6369
13.672
13.7097
13.7493
13.7904
13.8323
13.8745
13.9163
13.9572
13.9964
14.0335
14.068
14.0993
14.1271
14.151
14.1708
14.1862
14.1971
14.2034
14.2052
14.2025
14.1955
14.1844
14.1694
14.151
14.1294
14.1051
14.0785
14.0502
14.0205
13.9901
13.9595
13.9291
13.8994
13.8708
13.8439
13.819
13.7964
13.7765
13.7595
13.7457
13.7354
13.7286
13.7254
13.7259
13.7302
13.738
13.7493
13.764
13.7818
13.8025
13.8258
13.8514
13.8788
13.9076
13.9375
13.9681
13.9987
14.0289
14.0582
14.0861
14.1121
14.1356
14.1564
14.1739
14.1877
14.1977
14.2035
14.205
14.2019
14.1943
14.1822
14.1656
14.1446
14.1196
14.0908
14.0586
14.0234
13.9856
13.9459
13.9048
13.8628
13.8207
13.7789
13.7382
13.6991
13.6621
13.6277
13.5966
13.5691
13.5457
13.5266
13.5123
13.5028
13.4984
12.3069
12.3124
12.3227
12.3376
12.3569
12.3802
12.4073
12.4378
12.4712
12.507
12.5447
12.5838
12.6236
12.6638
12.7037
12.7427
12.7802
12.8156
12.8486
12.8785
12.9051
12.928
12.9469
12.9617
12.9721
12.9782
12.98
12.9774
12.9708
12.9602
12.9459
12.9283
12.9077
12.8845
12.8591
12.8321
12.8038
12.7748
12.7455
12.7165
12.6882
12.6611
12.6355
12.6118
12.5903
12.5713
12.5552
12.5422
12.5323
12.5258
12.5228
12.5233
12.5273
12.5348
12.5456
12.5595
12.5765
12.5961
12.6183
12.6426
12.6686
12.6961
12.7246
12.7537
12.7829
12.8118
12.8398
12.8664
12.8912
12.9137
12.9335
12.9501
12.9634
12.9729
12.9784
12.9798
12.9768
12.9695
12.9578
12.9419
12.9219
12.8979
12.8704
12.8396
12.8059
12.7699
12.7319
12.6927
12.6527
12.6125
12.5728
12.5341
12.4969
12.4617
12.4291
12.3995
12.3734
12.3511
12.333
12.3194
12.3104
12.3063
11.1193
11.1245
11.1341
11.1481
11.1661
11.188
11.2135
11.242
11.2733
11.3069
11.3423
11.379
11.4165
11.4543
11.4918
11.5285
11.5638
11.5973
11.6284
11.6567
11.6818
11.7034
11.7213
11.7353
11.7452
11.751
11.7527
11.7503
11.744
11.7341
11.7206
11.704
11.6846
11.6627
11.6388
11.6133
11.5866
11.5593
11.5318
11.5045
11.4779
11.4524
11.4283
11.4061
11.3859
11.3682
11.353
11.3408
11.3315
11.3255
11.3227
11.3231
11.3269
11.3339
11.344
11.3571
11.3729
11.3914
11.4122
11.435
11.4595
11.4853
11.5121
11.5395
11.567
11.5942
11.6206
11.6456
11.669
11.6902
11.7089
11.7246
11.7371
11.746
11.7512
11.7525
11.7496
11.7427
11.7316
11.7166
11.6976
11.675
11.649
11.6199
11.5881
11.5541
11.5184
11.4814
11.4438
11.4061
11.3688
11.3324
11.2975
11.2645
11.2339
11.2061
11.1816
11.1608
11.1438
11.131
11.1226
11.1187
9.93603
9.94081
9.9497
9.96258
9.97926
9.99949
10.023
10.0494
10.0783
10.1094
10.1421
10.176
10.2107
10.2457
10.2805
10.3146
10.3474
10.3785
10.4074
10.4338
10.4572
10.4773
10.494
10.507
10.5163
10.5217
10.5233
10.5211
10.5153
10.5061
10.4936
10.4781
10.4601
10.4398
10.4176
10.3939
10.3691
10.3437
10.3182
10.2929
10.2682
10.2446
10.2224
10.2018
10.1832
10.1667
10.1528
10.1414
10.1329
10.1273
10.1247
10.1251
10.1286
10.1351
10.1444
10.1565
10.1712
10.1882
10.2074
10.2285
10.2512
10.2751
10.2999
10.3253
10.3509
10.3761
10.4006
10.4239
10.4456
10.4653
10.4827
10.4973
10.5089
10.5172
10.522
10.5231
10.5204
10.5139
10.5036
10.4896
10.4719
10.4509
10.4266
10.3996
10.37
10.3384
10.3052
10.2709
10.236
10.2011
10.1665
10.1329
10.1006
10.0701
10.0418
10.0162
9.99358
9.9743
9.95865
9.94685
9.93909
9.93546
8.75671
8.76105
8.76911
8.7808
8.79594
8.8143
8.83562
8.85959
8.88586
8.91406
8.9438
8.97467
9.00624
9.0381
9.06984
9.10094
9.13093
9.15934
9.18578
9.20986
9.23126
9.24972
9.265
9.27694
9.28543
9.29041
9.2919
9.28995
9.28467
9.27622
9.26483
9.25074
9.23425
9.21568
9.19538
9.17373
9.15112
9.12796
9.10464
9.08159
9.05918
9.0377
9.01747
8.99876
8.98183
8.96692
8.95424
8.94395
8.93621
8.93113
8.92876
8.92916
8.9323
8.93815
8.94663
8.95761
8.97095
8.98645
9.0039
9.02306
9.04367
9.06543
9.08804
9.1112
9.1345
9.15754
9.1799
9.20119
9.22103
9.23903
9.25487
9.26822
9.2788
9.28637
9.29072
9.29172
9.28925
9.28329
9.27383
9.26095
9.24478
9.22549
9.20333
9.17857
9.15157
9.12269
9.09237
9.06106
9.02926
8.99744
8.96603
8.93545
8.9061
8.8784
8.85273
8.82947
8.80894
8.79144
8.77723
8.76653
8.75948
8.75619
7.581
7.58486
7.59202
7.60241
7.61585
7.63217
7.65111
7.67242
7.69577
7.72085
7.7473
7.77477
7.8029
7.83131
7.85964
7.88744
7.91426
7.9397
7.96337
7.98495
8.00414
8.02069
8.0344
8.04512
8.05276
8.05725
8.05861
8.05688
8.05217
8.04463
8.03443
8.02183
8.00707
7.99045
7.97229
7.95292
7.9327
7.91199
7.89116
7.87058
7.85061
7.83148
7.81348
7.79684
7.78179
7.76853
7.75726
7.74812
7.74124
7.73672
7.73462
7.73497
7.73777
7.74297
7.7505
7.76026
7.77211
7.78589
7.80141
7.81846
7.8368
7.85618
7.87634
7.89702
7.91784
7.93844
7.95844
7.97749
7.99524
8.01135
8.02552
8.03747
8.04693
8.05369
8.05757
8.05843
8.0562
8.05083
8.04233
8.03077
8.01626
7.99896
7.9791
7.95692
7.93273
7.90689
7.87978
7.8518
7.82342
7.79506
7.76709
7.73987
7.71376
7.68913
7.66632
7.64564
7.6274
7.61186
7.59924
7.58973
7.58347
7.58054
6.40855
6.41188
6.41807
6.42705
6.43868
6.45278
6.46916
6.48759
6.50779
6.52949
6.55239
6.57619
6.60057
6.62523
6.64986
6.67405
6.69741
6.71959
6.74024
6.75907
6.77582
6.79028
6.80226
6.81164
6.81832
6.82226
6.82346
6.82198
6.81789
6.81132
6.80244
6.79146
6.7786
6.76411
6.74828
6.73141
6.71379
6.69576
6.67764
6.65976
6.64243
6.62586
6.61027
6.59587
6.58284
6.57138
6.56163
6.55373
6.54778
6.54387
6.54206
6.54236
6.54478
6.54927
6.55579
6.56422
6.57448
6.5864
6.59983
6.61458
6.63047
6.64727
6.66477
6.68274
6.70086
6.71879
6.73622
6.75282
6.76829
6.78233
6.79468
6.80508
6.81332
6.8192
6.82257
6.82331
6.82134
6.81663
6.80919
6.79909
6.78641
6.7713
6.75396
6.7346
6.71351
6.69099
6.66738
6.64304
6.61838
6.59378
6.56953
6.54596
6.52336
6.50205
6.48231
6.46443
6.44866
6.43522
6.42431
6.41609
6.41068
6.40815
5.23895
5.24173
5.24689
5.25437
5.26406
5.27581
5.28947
5.30483
5.32167
5.33977
5.35888
5.37875
5.39913
5.41976
5.44041
5.46072
5.48035
5.499
5.51638
5.53223
5.54634
5.55852
5.56863
5.57654
5.58218
5.58552
5.58655
5.58531
5.58188
5.57637
5.56891
5.55967
5.54886
5.53668
5.52337
5.50918
5.49438
5.47924
5.46403
5.44904
5.43455
5.42071
5.4077
5.39568
5.38482
5.37527
5.36714
5.36056
5.3556
5.35234
5.35083
5.35108
5.3531
5.35684
5.36227
5.3693
5.37785
5.38779
5.39899
5.4113
5.42456
5.4386
5.45324
5.46831
5.48352
5.49859
5.51323
5.52719
5.54019
5.552
5.56238
5.57113
5.57805
5.58299
5.58581
5.58641
5.58474
5.58075
5.57448
5.56595
5.55526
5.54253
5.52792
5.51163
5.49389
5.47495
5.45511
5.43469
5.41402
5.39344
5.37319
5.35351
5.33466
5.31688
5.30043
5.28552
5.27238
5.26118
5.25209
5.24524
5.24073
5.23862
4.07182
4.07401
4.07809
4.084
4.09165
4.10093
4.11171
4.12385
4.13715
4.15146
4.16657
4.18229
4.19843
4.21479
4.23121
4.24738
4.26304
4.27792
4.29179
4.30446
4.31574
4.32548
4.33356
4.33989
4.34441
4.34709
4.34793
4.34696
4.34423
4.33984
4.33389
4.32652
4.31789
4.30818
4.29756
4.28624
4.27444
4.26237
4.25026
4.23834
4.22686
4.21591
4.20562
4.19612
4.18754
4.17999
4.17358
4.16838
4.16446
4.16189
4.1607
4.1609
4.16249
4.16545
4.16973
4.17528
4.18203
4.18988
4.19873
4.20847
4.21896
4.23008
4.24169
4.25368
4.26579
4.2778
4.28947
4.30061
4.31098
4.3204
4.32868
4.33566
4.34118
4.34511
4.34735
4.34782
4.34647
4.34327
4.33824
4.33142
4.32287
4.31269
4.30102
4.28801
4.27384
4.25873
4.24291
4.22666
4.21024
4.19392
4.17789
4.16232
4.14742
4.13337
4.12037
4.1086
4.09821
4.08937
4.08219
4.07678
4.07322
4.07156
2.90674
2.90833
2.91127
2.91554
2.92107
2.92778
2.93558
2.94435
2.95398
2.96433
2.97526
2.98664
2.99834
3.01022
3.02219
3.034
3.04544
3.05634
3.0665
3.07578
3.08405
3.09119
3.09712
3.10177
3.10509
3.10706
3.10769
3.10698
3.10499
3.10178
3.09744
3.09205
3.08574
3.07863
3.07086
3.06258
3.05395
3.04513
3.03628
3.0276
3.01926
3.01132
3.00388
2.99701
2.9908
2.98535
2.98071
2.97695
2.97413
2.97227
2.97141
2.97155
2.9727
2.97484
2.97793
2.98195
2.98682
2.9925
2.9989
3.00594
3.01354
3.0216
3.03004
3.03878
3.04763
3.0564
3.06494
3.07309
3.08068
3.08757
3.09363
3.09873
3.10276
3.10564
3.10727
3.1076
3.1066
3.10425
3.10056
3.09555
3.08928
3.08181
3.07326
3.06372
3.05335
3.04229
3.03073
3.01886
3.00692
2.99507
2.98345
2.97218
2.9614
2.95124
2.94184
2.93333
2.92582
2.91943
2.91424
2.91033
2.90776
2.90656
1.7433
1.74426
1.74604
1.74862
1.75197
1.75603
1.76074
1.76605
1.77187
1.77814
1.78476
1.79165
1.79875
1.80597
1.81327
1.82051
1.82754
1.83424
1.84049
1.8462
1.85129
1.85569
1.85935
1.86221
1.86426
1.86549
1.86588
1.86545
1.86423
1.86227
1.8596
1.85629
1.85241
1.84804
1.84327
1.83819
1.83288
1.82747
1.82204
1.81673
1.81165
1.80684
1.80233
1.79817
1.79442
1.79112
1.78831
1.78604
1.78433
1.78321
1.78269
1.78278
1.78347
1.78476
1.78664
1.78906
1.79201
1.79544
1.79931
1.80358
1.80818
1.81307
1.81822
1.82357
1.829
1.83439
1.83964
1.84464
1.8493
1.85354
1.85726
1.86039
1.86287
1.86463
1.86562
1.86582
1.8652
1.86375
1.86147
1.85838
1.85451
1.84992
1.84465
1.83878
1.8324
1.8256
1.8185
1.81123
1.80395
1.79676
1.78972
1.78289
1.77637
1.77022
1.76453
1.75938
1.75484
1.75097
1.74783
1.74547
1.74391
1.74319
0.581065
0.581385
0.581978
0.582839
0.583953
0.585304
0.586875
0.588642
0.590582
0.592669
0.594874
0.597173
0.599539
0.601952
0.604405
0.606887
0.609308
0.611618
0.613775
0.615748
0.617506
0.619027
0.620292
0.621285
0.621996
0.622422
0.622561
0.622419
0.622004
0.621329
0.620413
0.619277
0.617944
0.616442
0.6148
0.613051
0.611227
0.609364
0.6075
0.605673
0.603932
0.602318
0.600814
0.59943
0.598181
0.597084
0.59615
0.595395
0.594826
0.594452
0.594279
0.594308
0.594539
0.594969
0.595592
0.596399
0.597381
0.598523
0.599811
0.60123
0.602766
0.604415
0.606185
0.608026
0.609892
0.611746
0.613551
0.615272
0.616876
0.618331
0.619611
0.620686
0.621536
0.622138
0.622478
0.622541
0.622322
0.621816
0.621025
0.619956
0.618619
0.617031
0.615211
0.613185
0.610983
0.60864
0.606197
0.603713
0.601276
0.598876
0.596527
0.594253
0.592078
0.59003
0.588135
0.586421
0.584909
0.583621
0.582576
0.581789
0.581271
0.581029
)
;

boundaryField
{
    top
    {
        type            fixedValue;
        value           uniform 0;
    }
    bottom
    {
        type            fixedValue;
        value           uniform 36.5;
    }
    frontAndBack
    {
        type            empty;
    }
    left_cyc
    {
        type            cyclic;
    }
    right_cyc
    {
        type            cyclic;
    }
}


// ************************************************************************* //
