/*--------------------------------*- C++ -*----------------------------------*\
| =========                 |                                                 |
| \\      /  F ield         | OpenFOAM: The Open Source CFD Toolbox           |
|  \\    /   O peration     | Version:  2.3.0                                 |
|   \\  /    A nd           | Web:      www.OpenFOAM.org                      |
|    \\/     M anipulation  |                                                 |
\*---------------------------------------------------------------------------*/
FoamFile
{
    version     2.0;
    format      ascii;
    class       volScalarField;
    location    "2000";
    object      T;
}
// * * * * * * * * * * * * * * * * * * * * * * * * * * * * * * * * * * * * * //

dimensions      [0 0 0 1 0 0 0];

internalField   nonuniform List<scalar> 
765
(
40.2506
40.3546
40.3616
40.3405
40.3859
40.5877
40.8298
41.1604
41.5861
41.7112
41.1589
40.6472
40.2796
39.9856
39.7403
39.7013
39.794
39.9288
40.0361
40.0696
39.9992
39.8479
39.6475
39.4028
39.1073
38.7469
38.3004
37.7402
37.0361
36.163
35.1076
33.8577
32.335
30.9847
29.8695
28.9214
28.2503
28.072
28.8837
30.2781
32.2419
34.0249
35.4173
36.5236
37.4043
38.1053
38.6676
39.1239
39.4978
39.8057
40.0567
33.8315
34.0876
34.2465
34.3717
34.5744
34.9618
35.6757
36.8686
38.4349
39.0553
37.3423
35.6171
34.4031
33.6824
33.2887
33.1468
33.1542
33.2029
33.213
33.1346
32.947
32.6224
32.1766
31.6465
31.0395
30.351
29.5646
28.6473
27.5414
26.1587
24.3944
22.2828
20.4769
19.0624
17.9005
17.0076
16.5515
16.7752
17.9623
19.7111
21.7672
23.8766
25.7448
27.2983
28.6156
29.7236
30.6829
31.5225
32.2565
32.8899
33.42
29.5179
29.8668
30.1556
30.4238
30.751
31.275
32.3308
34.1109
36.4342
37.4482
35.0574
32.5496
30.7818
29.7522
29.2715
28.9935
28.8029
28.6285
28.426
28.1665
27.8346
27.428
26.9306
26.3323
25.6474
24.8817
24.0346
23.0952
22.0376
20.8276
19.4664
18.049
16.6153
15.2402
14.0092
13.0927
12.7387
13.2011
14.6458
16.8381
19.1356
21.0477
22.5064
23.6488
24.6152
25.5274
26.3909
27.1887
27.9132
28.554
29.0968
27.759
28.1028
28.4209
28.7223
29.0524
29.5925
30.6869
32.6241
35.2403
36.4672
33.8393
31.0318
29.1421
28.1093
27.6214
27.3159
27.0183
26.6945
26.3434
25.9662
25.5616
25.1276
24.6621
24.1662
23.6397
23.0836
22.4881
21.8308
21.0749
20.1704
19.0662
17.7431
16.2359
14.6329
13.0895
11.8947
11.4084
11.9484
13.6128
16.2113
18.9942
21.2899
22.897
23.9612
24.6795
25.2147
25.673
26.1197
26.5665
26.9956
27.391
27.7739
28.0479
28.314
28.5562
28.8029
29.2304
30.1632
31.9942
34.5952
35.8815
33.3108
30.4967
28.7235
27.8836
27.5267
27.3128
27.0449
26.7046
26.3222
25.9282
25.541
25.1685
24.8115
24.4675
24.1291
23.7825
23.402
22.9455
22.3514
21.5405
20.4269
18.9487
17.1348
15.121
13.1105
11.4888
10.7341
11.2569
13.1414
16.0431
19.3203
22.1198
24.0766
25.3007
26.0084
26.4095
26.6582
26.8537
27.0471
27.2655
27.5095
28.5542
28.7568
28.9461
29.0955
29.2415
29.5038
30.2428
31.8903
34.3117
35.5449
33.2151
30.5371
28.9128
28.2744
28.1208
28.0346
27.8864
27.6278
27.296
26.9393
26.5936
26.2782
25.9995
25.7541
25.53
25.3047
25.0403
24.6794
24.1429
23.3337
22.1496
20.5004
18.3643
15.9027
13.3857
11.2855
10.1961
10.641
12.7162
15.9524
19.5853
22.8254
25.1251
26.578
27.3783
27.7718
27.9481
28.0366
28.1141
28.2206
28.3689
29.5112
29.657
29.771
29.8399
29.8884
30.0648
30.7
32.1207
34.1932
35.2924
33.321
30.9876
29.5127
28.9161
28.8336
28.8666
28.8612
28.7364
28.5114
28.2302
27.9354
27.6574
27.412
27.2025
27.0202
26.8415
26.6231
26.2965
25.7683
24.9278
23.6671
21.8796
19.4933
16.6458
13.6664
11.1051
9.66091
9.98987
12.2193
15.7833
19.7719
23.2643
25.8241
27.5005
28.4229
28.8694
29.05
29.1184
29.1692
29.248
29.3659
30.4074
30.504
30.5687
30.6104
30.6501
30.8309
31.3719
32.4993
34.1324
35.0736
33.4738
31.6019
30.372
29.81
29.6661
29.6848
29.7005
29.6731
29.5699
29.3975
29.1801
28.9452
28.7148
28.5013
28.3054
28.1114
27.8791
27.5362
26.9793
26.0851
24.7529
22.8638
20.3137
17.1818
13.8333
10.878
9.09253
9.28332
11.6201
15.4448
19.7611
23.4947
26.1912
27.9606
29.0185
29.5815
29.8486
29.9797
30.0743
30.1761
30.2915
31.1458
31.2381
31.3071
31.3588
31.4387
31.6334
32.0781
32.9183
34.1169
34.88
33.6393
32.2343
31.2768
30.7797
30.5822
30.5274
30.5004
30.4552
30.3793
30.2636
30.1088
29.9225
29.7146
29.4931
29.2591
29.0009
28.6848
28.2481
27.5997
26.635
25.2475
23.3093
20.69
17.3978
13.8068
10.5648
8.47563
8.51606
10.9037
14.8727
19.4011
23.3165
26.1291
28.0101
29.2098
29.9264
30.336
30.5827
30.7577
30.9038
31.0333
31.6397
31.7773
31.8964
32.0086
32.1418
32.3471
32.7048
33.3024
34.1263
34.7017
33.7873
32.7919
32.0852
31.6681
31.442
31.3122
31.2137
31.1114
30.9888
30.8405
30.6642
30.4599
30.2288
29.9709
29.6787
29.3344
28.9038
28.3316
27.5457
26.4693
25.0151
23.0439
20.3835
17.0151
13.3637
10.0284
7.78426
7.67672
10.0513
14.0043
18.5396
22.5651
25.4951
27.501
28.8694
29.7767
30.3668
30.7641
31.0547
31.2857
31.4775
31.6078
31.8669
32.1036
32.3258
32.5476
32.7957
33.1127
33.5461
34.0912
34.4885
33.8474
33.1654
32.6432
32.2751
32.0042
31.7779
31.5621
31.3391
31.1012
30.8448
30.5671
30.2658
29.9388
29.5839
29.1933
28.7315
28.1626
27.4387
26.5069
25.3215
23.818
21.8346
19.1843
15.9064
12.4106
9.18074
6.93218
6.73931
9.02749
12.7741
17.046
21.0391
24.0617
26.1655
27.6871
28.7844
29.57
30.1511
30.6098
30.9939
31.3208
30.3933
30.8624
31.3005
31.7131
32.1057
32.4864
32.8687
33.2674
33.6714
33.9372
33.4874
32.9775
32.5138
32.0956
31.7003
31.3098
30.915
30.5124
30.0996
29.6721
29.2241
28.7504
28.2502
27.7237
27.1668
26.5681
25.8633
25.0179
23.9933
22.7618
21.2754
19.3718
16.91
13.9823
10.869
7.95515
5.87372
5.66741
7.7742
11.1325
14.9154
18.5428
21.4549
23.5771
25.1713
26.3866
27.327
28.0906
28.75
29.3482
29.8882
26.8236
27.5346
28.2091
28.8541
29.4729
30.0636
30.6185
31.1219
31.5359
31.7481
31.3894
30.8826
30.3299
29.7561
29.1718
28.5842
27.9977
27.4124
26.8228
26.2195
25.5919
24.9341
24.2524
23.5567
22.844
22.1088
21.3309
20.4723
19.5063
18.3932
17.0798
15.4739
13.4858
11.15
8.65361
6.29068
4.57263
4.41215
6.19366
8.95405
12.0091
14.9186
17.3591
19.2582
20.7156
21.868
22.8396
23.7065
24.4993
25.2808
26.0702
19.6404
20.402
21.1369
21.8477
22.5328
23.1843
23.7856
24.3065
24.6935
24.8475
24.6104
24.1117
23.5512
22.9555
22.3421
21.7224
21.1023
20.4826
19.8596
19.2254
18.5705
17.8895
17.1909
16.4895
15.7889
15.0879
14.4107
13.7162
12.9866
12.1886
11.2742
10.1821
8.86626
7.34433
5.71671
4.15854
3.00724
2.92165
4.1735
6.05837
8.11481
10.0692
11.7371
13.0588
14.0961
14.9473
15.6967
16.4422
17.2304
18.0387
18.8501
7.96641
8.38403
8.79507
9.19815
9.58861
9.9569
10.2874
10.5576
10.7379
10.7928
10.6859
10.4324
10.1214
9.78234
9.4275
9.06724
8.708
8.3524
7.99981
7.64713
7.29073
6.93059
6.57322
6.2231
5.87825
5.53735
5.20771
4.91331
4.6305
4.33964
4.02142
3.65574
3.22544
2.72466
2.16943
1.61135
1.18175
1.16451
1.66962
2.38743
3.12546
3.79242
4.35278
4.81159
5.20117
5.56418
5.94122
6.32011
6.71159
7.12063
7.54322
)
;

boundaryField
{
    top
    {
        type            fixedValue;
        value           uniform 0;
    }
    bottom
    {
        type            fixedValue;
        value           uniform 43.8;
    }
    frontAndBack
    {
        type            empty;
    }
    left_cyc
    {
        type            cyclic;
    }
    right_cyc
    {
        type            cyclic;
    }
}


// ************************************************************************* //
