/*--------------------------------*- C++ -*----------------------------------*\
| =========                 |                                                 |
| \\      /  F ield         | OpenFOAM: The Open Source CFD Toolbox           |
|  \\    /   O peration     | Version:  2.3.0                                 |
|   \\  /    A nd           | Web:      www.OpenFOAM.org                      |
|    \\/     M anipulation  |                                                 |
\*---------------------------------------------------------------------------*/
FoamFile
{
    version     2.0;
    format      ascii;
    class       volVectorField;
    location    "2000";
    object      U;
}
// * * * * * * * * * * * * * * * * * * * * * * * * * * * * * * * * * * * * * //

dimensions      [0 1 -1 0 0 0 0];

internalField   nonuniform List<vector> 
3060
(
(0.0110294 0 -0.00507451)
(0.0284129 0 -0.00498267)
(0.0453525 0 -0.00481161)
(0.061585 0 -0.00456447)
(0.0768603 0 -0.00424599)
(0.0909463 0 -0.00386235)
(0.103633 0 -0.00342092)
(0.114735 0 -0.00293007)
(0.124099 0 -0.00239901)
(0.131599 0 -0.00183768)
(0.137148 0 -0.00125663)
(0.14069 0 -0.000667118)
(0.142209 0 -8.11434e-05)
(0.141728 0 0.000489149)
(0.139304 0 0.00103544)
(0.135019 0 0.00155243)
(0.128977 0 0.00203499)
(0.121302 0 0.00247795)
(0.112139 0 0.00287634)
(0.10165 0 0.0032257)
(0.0900109 0 0.00352228)
(0.0774122 0 0.00376307)
(0.0640533 0 0.00394592)
(0.0501404 0 0.00406946)
(0.0358838 0 0.00413314)
(0.0214945 0 0.0041372)
(0.00718179 0 0.00408259)
(-0.00684992 0 0.00397106)
(-0.0204035 0 0.00380506)
(-0.033292 0 0.00358777)
(-0.0453407 0 0.00332295)
(-0.0563894 0 0.0030149)
(-0.0662943 0 0.0026684)
(-0.0749294 0 0.00228863)
(-0.0821878 0 0.0018811)
(-0.0879826 0 0.00145145)
(-0.0922474 0 0.00100526)
(-0.0949359 0 0.000547704)
(-0.0960212 0 8.33091e-05)
(-0.0954939 0 -0.000383513)
(-0.0933671 0 -0.000844525)
(-0.0896817 0 -0.00129085)
(-0.0845055 0 -0.00171446)
(-0.0779307 0 -0.00210826)
(-0.0700713 0 -0.00246598)
(-0.0610614 0 -0.00278206)
(-0.0510521 0 -0.00305168)
(-0.0402095 0 -0.00327075)
(-0.0287121 0 -0.00343595)
(-0.0167479 0 -0.00354479)
(-0.00451193 0 -0.00359558)
(0.00779688 0 -0.00358755)
(0.0199784 0 -0.00352083)
(0.0318347 0 -0.00339646)
(0.0431723 0 -0.00321635)
(0.0538056 0 -0.00298324)
(0.0635596 0 -0.00270067)
(0.072272 0 -0.00237293)
(0.0797963 0 -0.00200506)
(0.086004 0 -0.0016028)
(0.0907868 0 -0.00117265)
(0.0940592 0 -0.00072195)
(0.0957607 0 -0.000258993)
(0.0958583 0 0.000207317)
(0.0943452 0 0.000669969)
(0.0912356 0 0.00112457)
(0.0865617 0 0.00156643)
(0.0803751 0 0.00199026)
(0.0727476 0 0.00239048)
(0.0637715 0 0.00276149)
(0.0535586 0 0.00309787)
(0.0422396 0 0.00339456)
(0.0299627 0 0.00364692)
(0.0168916 0 0.00385079)
(0.00320426 0 0.00400257)
(-0.0109099 0 0.00409927)
(-0.0252518 0 0.00413862)
(-0.0396159 0 0.0041191)
(-0.0537927 0 0.00403993)
(-0.0675712 0 0.00390106)
(-0.0807425 0 0.00370327)
(-0.0931021 0 0.0034481)
(-0.104453 0 0.00313794)
(-0.114609 0 0.00277598)
(-0.123396 0 0.00236615)
(-0.130658 0 0.00191306)
(-0.136255 0 0.00142175)
(-0.140069 0 0.000897373)
(-0.142001 0 0.000344949)
(-0.141973 0 -0.000230082)
(-0.139937 0 -0.000817818)
(-0.13588 0 -0.00140601)
(-0.129827 0 -0.00198283)
(-0.121843 0 -0.00253723)
(-0.112024 0 -0.00305882)
(-0.100504 0 -0.00353785)
(-0.0874439 0 -0.00396531)
(-0.0730357 0 -0.00433308)
(-0.0574951 0 -0.00463409)
(-0.0410589 0 -0.0048625)
(-0.023981 0 -0.00501386)
(-0.00652705 0 -0.00508513)
(0.0234305 0 -0.0318481)
(0.0603668 0 -0.031288)
(0.0963814 0 -0.030243)
(0.130927 0 -0.0287317)
(0.163482 0 -0.0267821)
(0.193561 0 -0.0244302)
(0.22072 0 -0.0217192)
(0.24457 0 -0.0186988)
(0.264779 0 -0.0154239)
(0.281078 0 -0.0119539)
(0.29327 0 -0.00835183)
(0.301228 0 -0.00468366)
(0.304901 0 -0.00101736)
(0.304312 0 0.00258017)
(0.299558 0 0.00605413)
(0.290792 0 0.00936112)
(0.278224 0 0.0124613)
(0.262111 0 0.0153172)
(0.242757 0 0.0178945)
(0.220505 0 0.0201626)
(0.195736 0 0.0220959)
(0.168857 0 0.0236735)
(0.140299 0 0.0248801)
(0.11051 0 0.0257057)
(0.0799478 0 0.0261459)
(0.0490713 0 0.0262014)
(0.018337 0 0.0258782)
(-0.0118089 0 0.0251874)
(-0.0409364 0 0.024145)
(-0.0686378 0 0.0227715)
(-0.0945328 0 0.0210916)
(-0.118273 0 0.0191336)
(-0.139547 0 0.0169287)
(-0.158083 0 0.0145108)
(-0.173649 0 0.0119159)
(-0.186061 0 0.00918109)
(-0.195179 0 0.00634367)
(-0.200909 0 0.00344028)
(-0.2032 0 0.000506223)
(-0.202049 0 -0.00242261)
(-0.197501 0 -0.00529962)
(-0.189655 0 -0.00807613)
(-0.178661 0 -0.0107063)
(-0.164717 0 -0.0131482)
(-0.14807 0 -0.015364)
(-0.129003 0 -0.0173202)
(-0.107836 0 -0.0189874)
(-0.0849202 0 -0.020341)
(-0.0606313 0 -0.0213611)
(-0.035364 0 -0.0220329)
(-0.00952721 0 -0.0223463)
(0.0164621 0 -0.0222968)
(0.042185 0 -0.0218852)
(0.0672263 0 -0.0211177)
(0.0911805 0 -0.0200054)
(0.113657 0 -0.0185648)
(0.134288 0 -0.0168172)
(0.152731 0 -0.0147886)
(0.168674 0 -0.0125093)
(0.181844 0 -0.0100141)
(0.192009 0 -0.0073421)
(0.198982 0 -0.00453619)
(0.202628 0 -0.00164315)
(0.202863 0 0.00128841)
(0.199655 0 0.00421528)
(0.193022 0 0.00710193)
(0.183023 0 0.00991279)
(0.169766 0 0.0126111)
(0.153404 0 0.0151596)
(0.134133 0 0.0175216)
(0.112194 0 0.0196618)
(0.0878707 0 0.021547)
(0.0614838 0 0.0231467)
(0.0333897 0 0.0244336)
(0.00397588 0 0.0253844)
(-0.0263443 0 0.0259795)
(-0.0571368 0 0.0262042)
(-0.0879531 0 0.0260489)
(-0.118336 0 0.0255088)
(-0.147827 0 0.0245846)
(-0.175971 0 0.0232822)
(-0.202324 0 0.0216127)
(-0.226463 0 0.0195931)
(-0.247985 0 0.0172452)
(-0.266522 0 0.014596)
(-0.281738 0 0.011677)
(-0.293343 0 0.00852343)
(-0.30109 0 0.00517312)
(-0.304785 0 0.0016663)
(-0.304286 0 -0.00195253)
(-0.299516 0 -0.00562376)
(-0.290469 0 -0.0092797)
(-0.277215 0 -0.0128528)
(-0.259899 0 -0.0162777)
(-0.238736 0 -0.0194923)
(-0.214012 0 -0.0224384)
(-0.186073 0 -0.0250622)
(-0.155322 0 -0.0273158)
(-0.122215 0 -0.0291576)
(-0.0872463 0 -0.0305534)
(-0.050945 0 -0.0314774)
(-0.0138637 0 -0.031912)
(0.028299 0 -0.0763113)
(0.072919 0 -0.0749935)
(0.116454 0 -0.0725321)
(0.158259 0 -0.0689702)
(0.197715 0 -0.0643706)
(0.234245 0 -0.058815)
(0.26732 0 -0.0524021)
(0.296467 0 -0.0452453)
(0.321282 0 -0.0374712)
(0.341433 0 -0.0292173)
(0.356667 0 -0.0206298)
(0.366816 0 -0.011861)
(0.371795 0 -0.00306674)
(0.371609 0 0.00560041)
(0.366342 0 0.0140058)
(0.356158 0 0.0220349)
(0.341295 0 0.0295829)
(0.322053 0 0.036553)
(0.298794 0 0.042857)
(0.271933 0 0.0484173)
(0.241931 0 0.0531679)
(0.209288 0 0.0570552)
(0.174537 0 0.0600394)
(0.138229 0 0.0620939)
(0.100931 0 0.0632061)
(0.0632153 0 0.063377)
(0.0256493 0 0.0626206)
(-0.0112119 0 0.0609641)
(-0.0468335 0 0.0584471)
(-0.0807089 0 0.0551204)
(-0.112366 0 0.0510453)
(-0.141375 0 0.0462921)
(-0.167352 0 0.0409388)
(-0.189961 0 0.0350697)
(-0.208924 0 0.0287738)
(-0.224018 0 0.0221434)
(-0.235076 0 0.0152719)
(-0.241993 0 0.00825253)
(-0.24472 0 0.0011772)
(-0.24327 0 -0.00586047)
(-0.237714 0 -0.0127529)
(-0.228186 0 -0.0193901)
(-0.214878 0 -0.0256671)
(-0.198037 0 -0.0314872)
(-0.177961 0 -0.0367624)
(-0.154998 0 -0.0414148)
(-0.129532 0 -0.0453766)
(-0.101984 0 -0.0485908)
(-0.0728023 0 -0.0510118)
(-0.0424583 0 -0.0526052)
(-0.0114379 0 -0.0533485)
(0.0197637 0 -0.0532312)
(0.0506489 0 -0.0522552)
(0.0807245 0 -0.0504344)
(0.109508 0 -0.0477945)
(0.136535 0 -0.0443733)
(0.161363 0 -0.0402197)
(0.183581 0 -0.0353936)
(0.202814 0 -0.0299656)
(0.21873 0 -0.0240167)
(0.231044 0 -0.0176371)
(0.239522 0 -0.0109259)
(0.243989 0 -0.00398965)
(0.244329 0 0.00306167)
(0.240486 0 0.010125)
(0.232465 0 0.0171074)
(0.220329 0 0.0239168)
(0.2042 0 0.0304603)
(0.184259 0 0.0366448)
(0.160745 0 0.042379)
(0.133951 0 0.0475752)
(0.104224 0 0.052151)
(0.0719619 0 0.0560305)
(0.0376045 0 0.0591459)
(0.00163291 0 0.0614386)
(-0.035439 0 0.0628608)
(-0.0730714 0 0.0633761)
(-0.110706 0 0.0629609)
(-0.147774 0 0.0616044)
(-0.183706 0 0.0593092)
(-0.217938 0 0.0560914)
(-0.249923 0 0.0519808)
(-0.279138 0 0.047021)
(-0.305092 0 0.0412683)
(-0.327337 0 0.0347919)
(-0.34547 0 0.0276718)
(-0.359146 0 0.0199985)
(-0.368078 0 0.0118703)
(-0.37205 0 0.00339376)
(-0.370915 0 -0.00531415)
(-0.364609 0 -0.0141117)
(-0.353149 0 -0.0228447)
(-0.336641 0 -0.0313577)
(-0.315275 0 -0.0395)
(-0.289324 0 -0.0471273)
(-0.259138 0 -0.0541049)
(-0.22514 0 -0.0603093)
(-0.187815 0 -0.0656306)
(-0.147707 0 -0.0699743)
(-0.105404 0 -0.073263)
(-0.0615317 0 -0.0754383)
(-0.0167417 0 -0.0764609)
(0.0277495 0 -0.122019)
(0.0715131 0 -0.119943)
(0.114246 0 -0.116063)
(0.155334 0 -0.110444)
(0.194186 0 -0.103184)
(0.230245 0 -0.094408)
(0.262997 0 -0.0842666)
(0.291981 0 -0.0729355)
(0.316795 0 -0.0606103)
(0.337101 0 -0.0475043)
(0.352637 0 -0.0338444)
(0.363216 0 -0.0198669)
(0.368732 0 -0.0058125)
(0.369157 0 0.00808216)
(0.364547 0 0.0215994)
(0.355037 0 0.0345464)
(0.340839 0 0.0467457)
(0.322236 0 0.0580339)
(0.299573 0 0.0682631)
(0.273257 0 0.0773028)
(0.243742 0 0.0850415)
(0.211528 0 0.0913888)
(0.177146 0 0.0962761)
(0.141155 0 0.0996574)
(0.104128 0 0.10151)
(0.0666455 0 0.101833)
(0.0292842 0 0.100651)
(-0.0073915 0 0.0980051)
(-0.0428381 0 0.0939619)
(-0.0765415 0 0.0886049)
(-0.108025 0 0.0820353)
(-0.136853 0 0.074369)
(-0.162643 0 0.0657347)
(-0.185061 0 0.0562714)
(-0.203832 0 0.0461255)
(-0.21874 0 0.0354491)
(-0.229629 0 0.0243963)
(-0.236403 0 0.0131221)
(-0.239032 0 0.00178067)
(-0.237543 0 -0.00947195)
(-0.232026 0 -0.0204678)
(-0.222627 0 -0.0310378)
(-0.209547 0 -0.0410207)
(-0.193037 0 -0.0502664)
(-0.173396 0 -0.0586387)
(-0.150963 0 -0.0660166)
(-0.126118 0 -0.072295)
(-0.0992687 0 -0.0773858)
(-0.0708493 0 -0.0812184)
(-0.0413135 0 -0.0837401)
(-0.0111286 0 -0.0849163)
(0.0192301 0 -0.0847308)
(0.0492854 0 -0.0831865)
(0.0785637 0 -0.0803047)
(0.106601 0 -0.0761252)
(0.132949 0 -0.0707059)
(0.157179 0 -0.0641223)
(0.178892 0 -0.0564674)
(0.19772 0 -0.0478507)
(0.213333 0 -0.0383976)
(0.225445 0 -0.028248)
(0.233819 0 -0.0175552)
(0.23827 0 -0.00648299)
(0.238666 0 0.00479944)
(0.234935 0 0.016128)
(0.227064 0 0.0273476)
(0.215102 0 0.0383041)
(0.199161 0 0.0488431)
(0.179412 0 0.0588112)
(0.156088 0 0.0680581)
(0.129479 0 0.0764395)
(0.0999302 0 0.0838193)
(0.0678404 0 0.0900723)
(0.0336545 0 0.0950866)
(-0.00214072 0 0.0987656)
(-0.0390237 0 0.10103)
(-0.0764456 0 0.101822)
(-0.113839 0 0.101101)
(-0.150626 0 0.0988523)
(-0.186228 0 0.0950807)
(-0.220075 0 0.0898154)
(-0.251618 0 0.0831079)
(-0.280331 0 0.0750323)
(-0.305727 0 0.0656844)
(-0.327363 0 0.0551802)
(-0.34485 0 0.0436547)
(-0.357856 0 0.0312594)
(-0.366116 0 0.0181607)
(-0.369439 0 0.00453899)
(-0.367708 0 -0.00940911)
(-0.360889 0 -0.0234587)
(-0.349029 0 -0.037371)
(-0.332255 0 -0.0509059)
(-0.310773 0 -0.0638292)
(-0.284863 0 -0.0759173)
(-0.254881 0 -0.0869611)
(-0.221243 0 -0.0967698)
(-0.184426 0 -0.105174)
(-0.144953 0 -0.112028)
(-0.103391 0 -0.117215)
(-0.0603376 0 -0.120643)
(-0.016413 0 -0.122255)
(0.0244438 0 -0.165161)
(0.0629976 0 -0.162396)
(0.100664 0 -0.157225)
(0.136911 0 -0.149734)
(0.17123 0 -0.140045)
(0.203136 0 -0.128319)
(0.232185 0 -0.11475)
(0.257971 0 -0.099566)
(0.28014 0 -0.0830215)
(0.298391 0 -0.0653952)
(0.312486 0 -0.0469851)
(0.322248 0 -0.0281029)
(0.327569 0 -0.00906642)
(0.328408 0 0.00980943)
(0.324795 0 0.0282267)
(0.316829 0 0.0459129)
(0.304683 0 0.0626157)
(0.288592 0 0.0781028)
(0.268854 0 0.0921638)
(0.245821 0 0.104613)
(0.219893 0 0.11529)
(0.191511 0 0.124067)
(0.16115 0 0.130844)
(0.129311 0 0.135554)
(0.0965089 0 0.138162)
(0.063267 0 0.138668)
(0.0301064 0 0.137099)
(-0.00246286 0 0.133518)
(-0.03395 0 0.128014)
(-0.0638916 0 0.120705)
(-0.0918581 0 0.111731)
(-0.117461 0 0.101254)
(-0.140355 0 0.0894553)
(-0.160248 0 0.076528)
(-0.176897 0 0.062677)
(-0.190114 0 0.0481142)
(-0.199768 0 0.0330551)
(-0.205783 0 0.0177166)
(-0.208139 0 0.00231544)
(-0.206872 0 -0.012931)
(-0.202072 0 -0.0277984)
(-0.193876 0 -0.0420646)
(-0.182467 0 -0.0555176)
(-0.168069 0 -0.0679607)
(-0.150948 0 -0.0792153)
(-0.131403 0 -0.0891231)
(-0.109764 0 -0.097547)
(-0.086388 0 -0.104373)
(-0.0616515 0 -0.109508)
(-0.0359483 0 -0.112886)
(-0.00968308 0 -0.114461)
(0.0167326 0 -0.114213)
(0.0428857 0 -0.112145)
(0.0683662 0 -0.108285)
(0.0927719 0 -0.102683)
(0.115714 0 -0.095416)
(0.13682 0 -0.0865807)
(0.15574 0 -0.0762983)
(0.172154 0 -0.0647117)
(0.185771 0 -0.051985)
(0.196337 0 -0.0383018)
(0.203638 0 -0.0238631)
(0.207503 0 -0.00888399)
(0.20781 0 0.0064124)
(0.204482 0 0.0218042)
(0.197498 0 0.0370748)
(0.186893 0 0.0520077)
(0.172758 0 0.0663868)
(0.155239 0 0.0799978)
(0.134539 0 0.092631)
(0.110914 0 0.104085)
(0.0846694 0 0.114169)
(0.0561623 0 0.122709)
(0.0257917 0 0.129548)
(-0.00600404 0 0.134551)
(-0.0387542 0 0.137609)
(-0.0719632 0 0.138638)
(-0.105118 0 0.137587)
(-0.137697 0 0.134433)
(-0.169179 0 0.129187)
(-0.199052 0 0.121892)
(-0.226823 0 0.112622)
(-0.252025 0 0.101485)
(-0.274228 0 0.0886177)
(-0.293043 0 0.0741855)
(-0.308132 0 0.0583805)
(-0.319214 0 0.0414182)
(-0.326067 0 0.0235356)
(-0.32854 0 0.00498905)
(-0.326549 0 -0.0139445)
(-0.320083 0 -0.0329608)
(-0.309199 0 -0.0517431)
(-0.294023 0 -0.0699744)
(-0.274748 0 -0.0873462)
(-0.251627 0 -0.103565)
(-0.224976 0 -0.118358)
(-0.195161 0 -0.131476)
(-0.162599 0 -0.142701)
(-0.127744 0 -0.151847)
(-0.091088 0 -0.15876)
(-0.0531461 0 -0.163328)
(-0.0144536 0 -0.165473)
(0.0209295 0 -0.200112)
(0.0539362 0 -0.196797)
(0.0861844 0 -0.190597)
(0.117221 0 -0.181609)
(0.14661 0 -0.16998)
(0.173942 0 -0.155897)
(0.198838 0 -0.139589)
(0.220957 0 -0.121324)
(0.239997 0 -0.101402)
(0.255708 0 -0.0801508)
(0.267885 0 -0.0579227)
(0.276383 0 -0.0350861)
(0.281107 0 -0.012018)
(0.282021 0 0.0109062)
(0.279148 0 0.0333251)
(0.27257 0 0.0549011)
(0.262428 0 0.0753192)
(0.248921 0 0.0942879)
(0.232298 0 0.111542)
(0.212855 0 0.126847)
(0.190932 0 0.139999)
(0.166902 0 0.150833)
(0.141167 0 0.15922)
(0.114153 0 0.165073)
(0.086296 0 0.168346)
(0.0580423 0 0.169033)
(0.0298345 0 0.16717)
(0.00210671 0 0.162832)
(-0.0247232 0 0.15613)
(-0.05026 0 0.14721)
(-0.0741375 0 0.13625)
(-0.0960233 0 0.123452)
(-0.115624 0 0.109041)
(-0.132686 0 0.0932587)
(-0.147004 0 0.0763599)
(-0.158415 0 0.058608)
(-0.166806 0 0.0402705)
(-0.172112 0 0.0216162)
(-0.174314 0 0.00291303)
(-0.173443 0 -0.0155718)
(-0.169574 0 -0.0335694)
(-0.162823 0 -0.0508166)
(-0.153343 0 -0.0670626)
(-0.141324 0 -0.0820752)
(-0.126989 0 -0.0956434)
(-0.110592 0 -0.10758)
(-0.0924119 0 -0.117724)
(-0.072751 0 -0.12594)
(-0.05193 0 -0.132119)
(-0.030284 0 -0.136183)
(-0.0081583 0 -0.138077)
(0.0140959 0 -0.137779)
(0.0361261 0 -0.135291)
(0.0575822 0 -0.130647)
(0.0781215 0 -0.123907)
(0.0974126 0 -0.115159)
(0.115139 0 -0.104519)
(0.131006 0 -0.0921286)
(0.14474 0 -0.0781574)
(0.156096 0 -0.062799)
(0.16486 0 -0.0462702)
(0.170852 0 -0.0288084)
(0.173928 0 -0.0106681)
(0.173985 0 0.00788578)
(0.170958 0 0.0265853)
(0.164831 0 0.0451636)
(0.155634 0 0.063353)
(0.143445 0 0.0808854)
(0.128391 0 0.0974949)
(0.110646 0 0.112921)
(0.0904274 0 0.126912)
(0.068 0 0.139231)
(0.0436672 0 0.149659)
(0.0177702 0 0.158001)
(-0.00931721 0 0.164087)
(-0.0371939 0 0.167782)
(-0.0654377 0 0.168982)
(-0.0936122 0 0.167623)
(-0.121274 0 0.163681)
(-0.14798 0 0.15717)
(-0.173295 0 0.148148)
(-0.1968 0 0.136712)
(-0.218102 0 0.123001)
(-0.236833 0 0.107189)
(-0.252667 0 0.089487)
(-0.265319 0 0.0701379)
(-0.274553 0 0.0494128)
(-0.280183 0 0.0276086)
(-0.282085 0 0.00504499)
(-0.28019 0 -0.0179357)
(-0.274492 0 -0.0409672)
(-0.265041 0 -0.0636725)
(-0.251943 0 -0.0856762)
(-0.235361 0 -0.106613)
(-0.21551 0 -0.126138)
(-0.192655 0 -0.143928)
(-0.167105 0 -0.159691)
(-0.139213 0 -0.173169)
(-0.109366 0 -0.184144)
(-0.07798 0 -0.192437)
(-0.0454962 0 -0.197914)
(-0.0123709 0 -0.200487)
(0.017854 0 -0.230262)
(0.0460048 0 -0.226466)
(0.0735072 0 -0.219365)
(0.099974 0 -0.209072)
(0.125035 0 -0.195753)
(0.148341 0 -0.179623)
(0.169571 0 -0.160943)
(0.188436 0 -0.140016)
(0.204685 0 -0.117186)
(0.218107 0 -0.092824)
(0.228533 0 -0.0673314)
(0.235842 0 -0.0411258)
(0.239957 0 -0.014635)
(0.240852 0 0.0117143)
(0.238546 0 0.0375079)
(0.233112 0 0.0623551)
(0.22467 0 0.0858895)
(0.213387 0 0.107772)
(0.199473 0 0.127693)
(0.183178 0 0.145379)
(0.164788 0 0.160593)
(0.144614 0 0.173141)
(0.122993 0 0.182873)
(0.100281 0 0.189686)
(0.0768425 0 0.193524)
(0.0530485 0 0.194381)
(0.0292689 0 0.192296)
(0.00586639 0 0.187355)
(-0.0168091 0 0.179687)
(-0.0384258 0 0.16946)
(-0.0586751 0 0.156879)
(-0.0772755 0 0.142177)
(-0.0939768 0 0.125615)
(-0.108563 0 0.107473)
(-0.120854 0 0.0880451)
(-0.13071 0 0.0676371)
(-0.13803 0 0.0465592)
(-0.142753 0 0.0251232)
(-0.14486 0 0.00364046)
(-0.144372 0 -0.0175802)
(-0.141349 0 -0.0382316)
(-0.135884 0 -0.0580142)
(-0.128105 0 -0.0766435)
(-0.118169 0 -0.0938551)
(-0.106264 0 -0.109409)
(-0.0926028 0 -0.123092)
(-0.0774209 0 -0.134719)
(-0.060975 0 -0.144136)
(-0.0435379 0 -0.15122)
(-0.0253955 0 -0.155877)
(-0.0068428 0 -0.158049)
(0.01182 0 -0.157707)
(0.0302912 0 -0.154856)
(0.0482716 0 -0.149533)
(0.0654684 0 -0.141808)
(0.0815991 0 -0.13178)
(0.0963951 0 -0.119584)
(0.109605 0 -0.105381)
(0.121 0 -0.0893651)
(0.130373 0 -0.0717561)
(0.137545 0 -0.0528012)
(0.142367 0 -0.0327704)
(0.144721 0 -0.0119524)
(0.144521 0 0.00935097)
(0.141719 0 0.0308325)
(0.136305 0 0.0521832)
(0.128308 0 0.0730922)
(0.1178 0 0.0932484)
(0.104892 0 0.112343)
(0.0897357 0 0.130075)
(0.07252 0 0.146153)
(0.0534701 0 0.160302)
(0.0328443 0 0.17227)
(0.0109312 0 0.181831)
(-0.0119544 0 0.188789)
(-0.035476 0 0.192987)
(-0.0592805 0 0.194308)
(-0.0830031 0 0.192676)
(-0.106274 0 0.188066)
(-0.128723 0 0.180495)
(-0.149988 0 0.170032)
(-0.169718 0 0.156791)
(-0.187583 0 0.140934)
(-0.203278 0 0.122666)
(-0.216525 0 0.102232)
(-0.227087 0 0.079915)
(-0.234762 0 0.0560314)
(-0.239395 0 0.0309267)
(-0.240878 0 0.00497264)
(-0.239154 0 -0.0214353)
(-0.234213 0 -0.0478786)
(-0.226095 0 -0.0739292)
(-0.214889 0 -0.0991611)
(-0.200726 0 -0.12316)
(-0.183788 0 -0.145533)
(-0.164294 0 -0.165914)
(-0.142506 0 -0.18397)
(-0.118722 0 -0.199407)
(-0.0932701 0 -0.211976)
(-0.0665043 0 -0.221473)
(-0.0388003 0 -0.227745)
(-0.0105481 0 -0.230691)
(0.0150374 0 -0.256479)
(0.0387427 0 -0.252265)
(0.061903 0 -0.244382)
(0.0841936 0 -0.232955)
(0.105304 0 -0.218169)
(0.124941 0 -0.200262)
(0.142838 0 -0.179523)
(0.158754 0 -0.15629)
(0.172479 0 -0.13094)
(0.183839 0 -0.103887)
(0.192694 0 -0.0755706)
(0.198944 0 -0.0464531)
(0.202527 0 -0.0170055)
(0.203419 0 0.0123007)
(0.201639 0 0.0410065)
(0.197247 0 0.0686755)
(0.190341 0 0.0948975)
(0.18106 0 0.119292)
(0.16958 0 0.141513)
(0.156107 0 0.161253)
(0.140878 0 0.178248)
(0.12415 0 0.192279)
(0.106203 0 0.203178)
(0.0873298 0 0.210831)
(0.0678317 0 0.215173)
(0.0480156 0 0.216197)
(0.0281871 0 0.213946)
(0.00864689 0 0.208514)
(-0.0103147 0 0.200044)
(-0.0284214 0 0.188722)
(-0.0454151 0 0.174774)
(-0.0610594 0 0.158462)
(-0.075143 0 0.140073)
(-0.0874824 0 0.11992)
(-0.0979239 0 0.0983306)
(-0.106346 0 0.0756468)
(-0.11266 0 0.0522153)
(-0.116813 0 0.0283858)
(-0.118784 0 0.00450689)
(-0.118589 0 -0.019076)
(-0.116274 0 -0.0420218)
(-0.111916 0 -0.0639995)
(-0.105619 0 -0.0846944)
(-0.0975134 0 -0.103814)
(-0.0877549 0 -0.121093)
(-0.0765207 0 -0.136294)
(-0.0640079 0 -0.149213)
(-0.0504315 0 -0.159676)
(-0.0360204 0 -0.167547)
(-0.021015 0 -0.172723)
(-0.00566371 0 -0.175136)
(0.00978039 0 -0.174757)
(0.0250631 0 -0.171589)
(0.0399322 0 -0.165674)
(0.0541414 0 -0.15709)
(0.0674531 0 -0.145949)
(0.0796419 0 -0.132399)
(0.0904977 0 -0.116621)
(0.0998284 0 -0.0988284)
(0.107463 0 -0.079267)
(0.113252 0 -0.0582099)
(0.117073 0 -0.0359556)
(0.118828 0 -0.0128232)
(0.11845 0 0.0108532)
(0.115899 0 0.0347319)
(0.111171 0 0.0584672)
(0.104293 0 0.0817107)
(0.09533 0 0.104114)
(0.0843781 0 0.125332)
(0.0715678 0 0.145027)
(0.0570604 0 0.162876)
(0.0410471 0 0.178573)
(0.0237457 0 0.191837)
(0.00539827 0 0.202416)
(-0.0137323 0 0.210096)
(-0.0333659 0 0.2147)
(-0.0532096 0 0.2161)
(-0.0729614 0 0.214214)
(-0.0923153 0 0.209011)
(-0.110966 0 0.200516)
(-0.128613 0 0.188803)
(-0.144969 0 0.174001)
(-0.159758 0 0.156292)
(-0.172728 0 0.135905)
(-0.183651 0 0.113115)
(-0.192328 0 0.0882385)
(-0.198592 0 0.0616306)
(-0.202315 0 0.0336784)
(-0.203408 0 0.00479804)
(-0.201821 0 -0.0245693)
(-0.197548 0 -0.0539603)
(-0.190621 0 -0.0829028)
(-0.181112 0 -0.110927)
(-0.169132 0 -0.137577)
(-0.154828 0 -0.162418)
(-0.138385 0 -0.185045)
(-0.12002 0 -0.20509)
(-0.0999809 0 -0.222227)
(-0.0785417 0 -0.23618)
(-0.0559997 0 -0.246722)
(-0.0326697 0 -0.253685)
(-0.00887906 0 -0.256955)
(0.0123848 0 -0.278178)
(0.0319048 0 -0.273621)
(0.0509788 0 -0.265096)
(0.0693411 0 -0.252739)
(0.0867378 0 -0.236749)
(0.102931 0 -0.217384)
(0.117701 0 -0.194957)
(0.130852 0 -0.169832)
(0.142215 0 -0.142415)
(0.151646 0 -0.113151)
(0.159032 0 -0.0825159)
(0.164291 0 -0.0510043)
(0.167372 0 -0.0191232)
(0.168256 0 0.0126202)
(0.166956 0 0.0437298)
(0.163519 0 0.0737321)
(0.158024 0 0.10218)
(0.150584 0 0.12866)
(0.141339 0 0.152794)
(0.130457 0 0.174247)
(0.118128 0 0.192731)
(0.104563 0 0.208007)
(0.0899868 0 0.219893)
(0.0746366 0 0.228262)
(0.0587572 0 0.233046)
(0.0425973 0 0.234232)
(0.0264052 0 0.231869)
(0.0104254 0 0.226055)
(-0.00510528 0 0.216946)
(-0.0199608 0 0.204741)
(-0.0339295 0 0.189685)
(-0.0468164 0 0.172058)
(-0.0584468 0 0.152174)
(-0.0686679 0 0.130371)
(-0.0773513 0 0.107006)
(-0.0843945 0 0.0824483)
(-0.0897227 0 0.0570774)
(-0.0932891 0 0.0312742)
(-0.0950757 0 0.00541881)
(-0.0950927 0 -0.020113)
(-0.093377 0 -0.044952)
(-0.0899899 0 -0.0687408)
(-0.0850158 0 -0.0911402)
(-0.0785608 0 -0.111835)
(-0.070751 0 -0.130537)
(-0.061731 0 -0.146992)
(-0.0516621 0 -0.160976)
(-0.04072 0 -0.172304)
(-0.0290923 0 -0.180825)
(-0.0169765 0 -0.186429)
(-0.0045763 0 -0.189042)
(0.00790021 0 -0.188631)
(0.0202441 0 -0.185202)
(0.0322483 0 -0.178799)
(0.0437105 0 -0.169506)
(0.0544357 0 -0.157445)
(0.0642394 0 -0.142777)
(0.0729495 0 -0.125698)
(0.0804094 0 -0.10644)
(0.0864792 0 -0.085268)
(0.0910383 0 -0.0624763)
(0.0939863 0 -0.0383872)
(0.095245 0 -0.0133451)
(0.0947597 0 0.0122892)
(0.0925005 0 0.0381453)
(0.0884648 0 0.0638467)
(0.0826783 0 0.0890136)
(0.0751951 0 0.113266)
(0.0660977 0 0.136228)
(0.0554954 0 0.157534)
(0.043523 0 0.176831)
(0.0303392 0 0.193788)
(0.0161241 0 0.208103)
(0.0010771 0 0.219502)
(-0.0145863 0 0.227754)
(-0.0306373 0 0.23267)
(-0.046837 0 0.23411)
(-0.0629397 0 0.231989)
(-0.0786971 0 0.226274)
(-0.0938615 0 0.216991)
(-0.10819 0 0.204223)
(-0.121448 0 0.188113)
(-0.133414 0 0.168856)
(-0.143883 0 0.146702)
(-0.152671 0 0.121953)
(-0.159616 0 0.0949535)
(-0.164585 0 0.0660897)
(-0.167473 0 0.0357839)
(-0.168211 0 0.00448892)
(-0.166758 0 -0.0273167)
(-0.163112 0 -0.0591332)
(-0.157299 0 -0.0904528)
(-0.149378 0 -0.120771)
(-0.139439 0 -0.149596)
(-0.127604 0 -0.176462)
(-0.114021 0 -0.200931)
(-0.0988674 0 -0.222607)
(-0.0823455 0 -0.241139)
(-0.0646792 0 -0.256227)
(-0.0461109 0 -0.267628)
(-0.0268979 0 -0.275156)
(-0.00730797 0 -0.278693)
(0.00985964 0 -0.29574)
(0.0253961 0 -0.290907)
(0.0405813 0 -0.281866)
(0.0552061 0 -0.268761)
(0.0690705 0 -0.251804)
(0.0819871 0 -0.231269)
(0.093784 0 -0.207487)
(0.104307 0 -0.180843)
(0.113422 0 -0.151768)
(0.121017 0 -0.120733)
(0.127002 0 -0.0882393)
(0.131311 0 -0.0548094)
(0.133903 0 -0.0209782)
(0.134761 0 0.0127188)
(0.133893 0 0.0457562)
(0.131334 0 0.0776308)
(0.127145 0 0.107867)
(0.121411 0 0.136023)
(0.114242 0 0.161697)
(0.105769 0 0.184531)
(0.0961398 0 0.204218)
(0.0855189 0 0.220505)
(0.0740827 0 0.233196)
(0.0620175 0 0.242156)
(0.0495153 0 0.247311)
(0.0367716 0 0.248649)
(0.023982 0 0.246217)
(0.0113394 0 0.240121)
(-0.0009688 0 0.230522)
(-0.0127634 0 0.217632)
(-0.0238758 0 0.201708)
(-0.0341505 0 0.183049)
(-0.0434472 0 0.161985)
(-0.0516429 0 0.138875)
(-0.058634 0 0.114098)
(-0.0643371 0 0.0880487)
(-0.068691 0 0.0611305)
(-0.0716571 0 0.03375)
(-0.0732198 0 0.00631289)
(-0.0733863 0 -0.0207802)
(-0.072185 0 -0.0471374)
(-0.0696639 0 -0.0723797)
(-0.0658894 0 -0.096148)
(-0.0609449 0 -0.118108)
(-0.0549297 0 -0.137956)
(-0.0479577 0 -0.15542)
(-0.0401562 0 -0.170263)
(-0.0316638 0 -0.182287)
(-0.022629 0 -0.191333)
(-0.0132076 0 -0.197282)
(-0.00356118 0 -0.200056)
(0.00614578 0 -0.19962)
(0.0157478 0 -0.195979)
(0.025081 0 -0.189182)
(0.0339852 0 -0.179318)
(0.0423064 0 -0.166516)
(0.0498986 0 -0.150948)
(0.0566261 0 -0.132823)
(0.0623653 0 -0.112386)
(0.0670061 0 -0.0899191)
(0.0704533 0 -0.0657344)
(0.0726281 0 -0.0401732)
(0.0734691 0 -0.0136001)
(0.0729334 0 0.0136024)
(0.0709983 0 0.0410405)
(0.0676625 0 0.0683127)
(0.0629479 0 0.0950136)
(0.056899 0 0.120738)
(0.0495831 0 0.145085)
(0.0410889 0 0.167665)
(0.0315252 0 0.188104)
(0.0210196 0 0.206052)
(0.00971656 0 0.221186)
(-0.00222502 0 0.23322)
(-0.0146337 0 0.241907)
(-0.027328 0 0.24705)
(-0.040119 0 0.248502)
(-0.0528132 0 0.246172)
(-0.0652148 0 0.240028)
(-0.0771292 0 0.230098)
(-0.0883656 0 0.216472)
(-0.0987405 0 0.1993)
(-0.10808 0 0.178792)
(-0.116224 0 0.155216)
(-0.123029 0 0.12889)
(-0.128369 0 0.100184)
(-0.13214 0 0.0695083)
(-0.134264 0 0.037314)
(-0.134686 0 0.00408264)
(-0.133379 0 -0.0296774)
(-0.13034 0 -0.0634376)
(-0.125593 0 -0.0966618)
(-0.119186 0 -0.128818)
(-0.111191 0 -0.159387)
(-0.101703 0 -0.187876)
(-0.0908394 0 -0.213824)
(-0.0787403 0 -0.236809)
(-0.065564 0 -0.256462)
(-0.0514869 0 -0.272462)
(-0.0366996 0 -0.284552)
(-0.0214047 0 -0.292536)
(-0.00581304 0 -0.296286)
(0.00743714 0 -0.309394)
(0.0191529 0 -0.304349)
(0.0306083 0 -0.294912)
(0.0416484 0 -0.281234)
(0.0521249 0 -0.263536)
(0.0618991 0 -0.242103)
(0.0708433 0 -0.217281)
(0.0788433 0 -0.189473)
(0.0857992 0 -0.159127)
(0.091627 0 -0.126733)
(0.0962592 0 -0.0928113)
(0.0996453 0 -0.0579062)
(0.101752 0 -0.0225733)
(0.102565 0 0.0126304)
(0.102087 0 0.0471574)
(0.100341 0 0.0804816)
(0.0973698 0 0.112105)
(0.0932341 0 0.141564)
(0.0880135 0 0.168438)
(0.0818034 0 0.192352)
(0.0747133 0 0.212983)
(0.0668645 0 0.230067)
(0.0583877 0 0.243397)
(0.0494212 0 0.252833)
(0.0401079 0 0.258294)
(0.0305939 0 0.259769)
(0.0210252 0 0.257304)
(0.0115467 0 0.251009)
(0.00229908 0 0.241051)
(-0.00658234 0 0.22765)
(-0.01497 0 0.211074)
(-0.0227456 0 0.191631)
(-0.0298024 0 0.169668)
(-0.0360462 0 0.145559)
(-0.0413973 0 0.119701)
(-0.0457915 0 0.0925062)
(-0.0491815 0 0.064398)
(-0.0515372 0 0.0358033)
(-0.0528463 0 0.00714784)
(-0.0531137 0 -0.0211483)
(-0.0523606 0 -0.0486753)
(-0.0506231 0 -0.0750377)
(-0.0479507 0 -0.0998611)
(-0.0444058 0 -0.122797)
(-0.0400623 0 -0.143527)
(-0.0350053 0 -0.161769)
(-0.0293295 0 -0.177274)
(-0.0231382 0 -0.189835)
(-0.016542 0 -0.199286)
(-0.00965739 0 -0.205501)
(-0.00260467 0 -0.2084)
(0.00449327 0 -0.207945)
(0.0115129 0 -0.204141)
(0.018332 0 -0.19704)
(0.0248309 0 -0.186735)
(0.0308949 0 -0.173362)
(0.036415 0 -0.1571)
(0.0412902 0 -0.138168)
(0.0454283 0 -0.116823)
(0.0487473 0 -0.0933577)
(0.0511761 0 -0.0680996)
(0.0526559 0 -0.0414039)
(0.0531406 0 -0.0136509)
(0.0525981 0 0.01476)
(0.0510115 0 0.0434165)
(0.0483803 0 0.0718978)
(0.0447217 0 0.0997781)
(0.0400703 0 0.126632)
(0.034478 0 0.15204)
(0.0280132 0 0.175593)
(0.0207593 0 0.196902)
(0.012814 0 0.215599)
(0.0042872 0 0.23135)
(-0.00470034 0 0.243855)
(-0.014019 0 0.252859)
(-0.0235319 0 0.258158)
(-0.0330973 0 0.259598)
(-0.0425698 0 0.257088)
(-0.0518034 0 0.250593)
(-0.0606527 0 0.240144)
(-0.0689759 0 0.225837)
(-0.0766366 0 0.20783)
(-0.0835062 0 0.186342)
(-0.0894664 0 0.161653)
(-0.0944113 0 0.134099)
(-0.0982496 0 0.104066)
(-0.100906 0 0.0719864)
(-0.102325 0 0.0383305)
(-0.102468 0 0.00360363)
(-0.101319 0 -0.0316633)
(-0.0988773 0 -0.0669196)
(-0.0951646 0 -0.101608)
(-0.0902177 0 -0.135175)
(-0.0840916 0 -0.167083)
(-0.0768579 0 -0.196817)
(-0.0686048 0 -0.223898)
(-0.0594358 0 -0.247888)
(-0.0494687 0 -0.268398)
(-0.0388341 0 -0.285098)
(-0.0276733 0 -0.297716)
(-0.0161364 0 -0.30605)
(-0.00437963 0 -0.309964)
(0.00510016 0 -0.31928)
(0.0131308 0 -0.314085)
(0.0209884 0 -0.304368)
(0.0285702 0 -0.290284)
(0.0357778 0 -0.272061)
(0.0425188 0 -0.249993)
(0.0487082 0 -0.224436)
(0.0542698 0 -0.195803)
(0.0591365 0 -0.164555)
(0.0632512 0 -0.131196)
(0.0665674 0 -0.0962598)
(0.069049 0 -0.060304)
(0.0706712 0 -0.0238987)
(0.0714204 0 0.0123842)
(0.0712949 0 0.0479815)
(0.0703061 0 0.0823507)
(0.068479 0 0.114978)
(0.0658517 0 0.145384)
(0.0624749 0 0.173132)
(0.0584109 0 0.197837)
(0.0537316 0 0.219163)
(0.0485177 0 0.236837)
(0.0428567 0 0.250646)
(0.0368414 0 0.260443)
(0.0305685 0 0.266146)
(0.0241368 0 0.267739)
(0.0176459 0 0.265271)
(0.0111945 0 0.258854)
(0.00487939 0 0.248658)
(-0.0012063 0 0.234907)
(-0.00697418 0 0.217878)
(-0.012342 0 0.197887)
(-0.0172351 0 0.17529)
(-0.0215874 0 0.150474)
(-0.0253427 0 0.123847)
(-0.0284557 0 0.0958356)
(-0.0308929 0 0.066878)
(-0.032633 0 0.0374158)
(-0.0336673 0 0.00788954)
(-0.0339993 0 -0.0212664)
(-0.0336437 0 -0.0496291)
(-0.0326255 0 -0.0767914)
(-0.0309784 0 -0.102368)
(-0.0287447 0 -0.126)
(-0.0259745 0 -0.14736)
(-0.022725 0 -0.166156)
(-0.0190597 0 -0.182134)
(-0.0150481 0 -0.195079)
(-0.0107645 0 -0.204818)
(-0.00628695 0 -0.211224)
(-0.00169642 0 -0.214212)
(0.00292456 0 -0.213743)
(0.007493 0 -0.209823)
(0.0119267 0 -0.202505)
(0.0161453 0 -0.191885)
(0.0200718 0 -0.178104)
(0.0236329 0 -0.161347)
(0.0267609 0 -0.14184)
(0.0293937 0 -0.119846)
(0.0314761 0 -0.0956692)
(0.0329599 0 -0.0696447)
(0.0338053 0 -0.0421387)
(0.0339806 0 -0.0135427)
(0.0334635 0 0.0157319)
(0.0322423 0 0.0452595)
(0.0303166 0 0.0746045)
(0.0276985 0 0.103326)
(0.0244125 0 0.130985)
(0.0204954 0 0.157146)
(0.0159953 0 0.181389)
(0.0109712 0 0.203309)
(0.00549132 0 0.222531)
(-0.000367416 0 0.238707)
(-0.00652114 0 0.251533)
(-0.0128801 0 0.260746)
(-0.0193503 0 0.266136)
(-0.0258342 0 0.267548)
(-0.0322327 0 0.264886)
(-0.0384466 0 0.258118)
(-0.0443773 0 0.247277)
(-0.0499291 0 0.232462)
(-0.0550105 0 0.213836)
(-0.0595356 0 0.191627)
(-0.0634259 0 0.166125)
(-0.0666117 0 0.137677)
(-0.0690337 0 0.106682)
(-0.0706445 0 0.0735858)
(-0.0714091 0 0.038877)
(-0.0713063 0 0.00307622)
(-0.0703284 0 -0.0332691)
(-0.0684801 0 -0.0695931)