/*--------------------------------*- C++ -*----------------------------------*\
| =========                 |                                                 |
| \\      /  F ield         | OpenFOAM: The Open Source CFD Toolbox           |
|  \\    /   O peration     | Version:  2.3.0                                 |
|   \\  /    A nd           | Web:      www.OpenFOAM.org                      |
|    \\/     M anipulation  |                                                 |
\*---------------------------------------------------------------------------*/
FoamFile
{
    version     2.0;
    format      ascii;
    class       surfaceScalarField;
    location    "2000";
    object      phi;
}
// * * * * * * * * * * * * * * * * * * * * * * * * * * * * * * * * * * * * * //

dimensions      [0 3 -1 0 0 0 0];

internalField   nonuniform List<scalar> 
353
(
-0.39104
0.0203074
-0.417129
0.0260887
-0.450665
0.0335356
-0.490539
0.0398745
-0.526755
0.0362153
-0.535483
0.00872847
-0.495517
-0.0399663
-0.416355
-0.0791621
-0.305471
-0.110884
-0.161797
-0.143674
0.00867767
-0.170474
0.195882
-0.187204
-0.163115
-0.535798
0.0144485
-0.524624
0.0149146
-0.505851
0.0147626
-0.476508
0.0105314
-0.432952
-0.00734081
-0.373575
-0.0506485
-0.304478
-0.109063
-0.233513
-0.150127
-0.16597
-0.178427
-0.104895
-0.204749
-0.047177
-0.228192
0.00808451
-0.242466
-0.241686
-0.491075
-0.00953983
-0.457668
-0.0184919
-0.413327
-0.0295788
-0.359766
-0.0430296
-0.304706
-0.0624009
-0.259551
-0.0958033
-0.225237
-0.143377
-0.188142
-0.187222
-0.145646
-0.220924
-0.101966
-0.248429
-0.0598136
-0.270345
-0.0187185
-0.283561
-0.285729
-0.424082
-0.0352611
-0.389394
-0.0531802
-0.344493
-0.0744795
-0.29175
-0.0957725
-0.240377
-0.113774
-0.201933
-0.134247
-0.175482
-0.169828
-0.149346
-0.213358
-0.120617
-0.249652
-0.0901277
-0.278918
-0.0598221
-0.300651
-0.0307849
-0.312598
-0.351427
-0.0545674
-0.324916
-0.0796914
-0.28928
-0.110115
-0.24469
-0.140362
-0.196036
-0.162427
-0.156085
-0.174199
-0.131555
-0.194358
-0.112084
-0.232829
-0.0931082
-0.268628
-0.0734853
-0.298541
-0.0538271
-0.320309
-0.33166
-0.257175
-0.0646254
-0.242345
-0.0945207
-0.220436
-0.132025
-0.189747
-0.171051
-0.151242
-0.200933
-0.112874
-0.212567
-0.0890968
-0.218135
-0.0755998
-0.246326
-0.0649746
-0.279253
-0.0544836
-0.309032
-0.0438167
-0.330976
-0.342081
-0.134476
-0.0656973
-0.131068
-0.0979287
-0.123426
-0.139666
-0.109443
-0.185035
-0.0881528
-0.222223
-0.0627281
-0.237992
-0.0466005
-0.234262
-0.0404521
-0.252475
-0.0374808
-0.282225
-0.0348664
-0.311646
-0.0320319
-0.33381
-0.34463
0.0103818
-0.0599477
0.00474937
-0.0922962
-0.000139741
-0.134777
-0.00330302
-0.181871
-0.00358848
-0.221937
-0.000885529
-0.240695
-0.00115181
-0.233996
-0.0060134
-0.247613
-0.0110674
-0.277171
-0.0157596
-0.306954
-0.0202579
-0.329312
-0.339595
0.170849
-0.0294794
0.161003
-0.0501017
0.149097
-0.0803896
0.134075
-0.119755
0.114996
-0.162792
0.0923426
-0.199284
0.0686797
-0.217032
0.0469074
-0.212224
0.0282986
-0.229004
0.0147226
-0.263595
0.00257818
-0.29481
-0.0095797
-0.317154
-0.326659
0.304197
-0.0200255
0.292231
-0.0381359
0.275847
-0.0640051
0.252604
-0.0965132
0.219866
-0.130054
0.1772
-0.156618
0.129509
-0.169341
0.0893044
-0.17202
0.062332
-0.202032
0.0408993
-0.242162
0.0204324
-0.274343
-0.000690815
-0.296031
-0.304591
0.386703
-0.0107693
0.373424
-0.024857
0.353533
-0.0441144
0.324073
-0.0670524
0.281817
-0.0877981
0.226103
-0.100905
0.168186
-0.111423
0.126303
-0.130137
0.0972191
-0.172948
0.0684907
-0.213433
0.0381016
-0.243954
0.00607117
-0.264001
-0.271536
0.393705
-0.00179164
0.379486
-0.0106375
0.357342
-0.0219709
0.325686
-0.0353963
0.285131
-0.0472426
0.238952
-0.0547262
0.197084
-0.0695556
0.166753
-0.0998054
0.134355
-0.14055
0.096717
-0.175795
0.0549619
-0.202198
0.010464
-0.219503
-0.225794
0.343739
0.00143149
0.336988
-0.00388659
0.324573
-0.00955589
0.305012
-0.0158355
0.281058
-0.0232888
0.258815
-0.0324826
0.236425
-0.0471663
0.207982
-0.0713623
0.169238
-0.101806
0.122219
-0.128776
0.0693883
-0.149368
0.0126274
-0.162742
-0.167281
0.334813
0.00270496
0.331078
-0.000151979
0.32453
-0.00300754
0.314822
-0.00612723
0.301785
-0.0102523
0.285791
-0.0164881
0.265229
-0.0266048
0.2355
-0.0416328
0.19337
-0.0596757
0.140577
-0.0759832
0.0797625
-0.0885538
0.0135354
-0.0965149
-0.0987501
0.334003
0.332778
0.329489
0.324159
0.316302
0.30453
0.285788
0.255827
0.211832
0.154865
0.0876728
0.0135894
)
;

boundaryField
{
    top
    {
        type            calculated;
        value           nonuniform List<scalar> 
13
(
0.00167812
0.00107222
0.000281449
-0.000796496
-0.00239566
-0.00471601
-0.00786321
-0.0116713
-0.0156807
-0.0190168
-0.0213613
-0.0224314
-0.0219366
)
;
    }
    bottom
    {
        type            calculated;
        value           uniform 0;
    }
    frontAndBack
    {
        type            empty;
        value           nonuniform 0();
    }
    left_cyc
    {
        type            cyclic;
        value           nonuniform 0();
    }
    right_cyc
    {
        type            cyclic;
        value           nonuniform 0();
    }
    procBoundary2to1
    {
        type            processor;
        value           nonuniform List<scalar> 
16
(
0.370733
0.541657
0.515063
0.449803
0.370733
0.267233
0.135548
-0.0161311
0.0381948
-0.179564
-0.313651
-0.395959
-0.402683
-0.346962
-0.336086
-0.332976
)
;
    }
    procBoundary2to3
    {
        type            processor;
        value           nonuniform List<scalar> 
16
(
0.358996
0.0866558
0.0253246
-0.00265324
-0.313861
-0.0347652
-0.033396
-0.0294829
-0.0252921
-0.0225164
-0.022758
-0.0269847
-0.0352778
-0.0458858
-0.0549952
-0.0632241
)
;
    }
}


// ************************************************************************* //
