/*--------------------------------*- C++ -*----------------------------------*\
| =========                 |                                                 |
| \\      /  F ield         | OpenFOAM: The Open Source CFD Toolbox           |
|  \\    /   O peration     | Version:  2.3.0                                 |
|   \\  /    A nd           | Web:      www.OpenFOAM.org                      |
|    \\/     M anipulation  |                                                 |
\*---------------------------------------------------------------------------*/
FoamFile
{
    version     2.0;
    format      ascii;
    class       volScalarField;
    location    "19000";
    object      NUEff;
}
// * * * * * * * * * * * * * * * * * * * * * * * * * * * * * * * * * * * * * //

dimensions      [0 2 -1 0 0 0 0];

internalField   nonuniform List<scalar> 
3060
(
0.186935
0.18634
0.185262
0.183778
0.181982
0.179976
0.177866
0.175752
0.173715
0.171818
0.170096
0.168447
0.166845
0.165294
0.163791
0.162328
0.160902
0.159523
0.158211
0.156989
0.155884
0.154919
0.154123
0.153522
0.153144
0.153016
0.153153
0.153539
0.154149
0.154952
0.155923
0.157035
0.158262
0.15958
0.160965
0.162397
0.163868
0.165379
0.16694
0.168549
0.170204
0.171935
0.173848
0.175881
0.177978
0.180056
0.182015
0.183749
0.185157
0.186149
0.186649
0.1866
0.18601
0.18494
0.183468
0.181687
0.179701
0.177613
0.175521
0.173507
0.171627
0.169913
0.168268
0.166666
0.165114
0.163611
0.162147
0.160722
0.159347
0.158043
0.156833
0.155744
0.1548
0.154028
0.153456
0.153111
0.15302
0.153192
0.153611
0.154248
0.155076
0.156066
0.157193
0.158433
0.159758
0.161147
0.16258
0.16405
0.165561
0.167122
0.168732
0.17039
0.172132
0.174064
0.17612
0.178241
0.18034
0.182316
0.184065
0.185484
0.186482
0.186985
0.849701
0.844876
0.835256
0.819858
0.796976
0.764061
0.717919
0.65607
0.580109
0.498409
0.422405
0.360615
0.313318
0.278168
0.251754
0.231298
0.21515
0.20226
0.191932
0.183678
0.177124
0.171995
0.168106
0.165349
0.163685
0.163131
0.163725
0.165428
0.168226
0.172161
0.177344
0.183966
0.192307
0.20275
0.215798
0.232169
0.252954
0.279878
0.31586
0.364155
0.427035
0.503685
0.584886
0.659718
0.720206
0.765149
0.797122
0.819263
0.834031
0.84305
0.847224
0.846825
0.841849
0.831919
0.816014
0.792372
0.758389
0.710888
0.647656
0.570935
0.489657
0.415049
0.354802
0.308799
0.274676
0.248981
0.229061
0.21333
0.200775
0.190726
0.182707
0.176351
0.171394
0.167662
0.165055
0.163542
0.163145
0.163896
0.165749
0.168698
0.172792
0.178153
0.184979
0.193562
0.204296
0.217696
0.234509
0.255871
0.283578
0.32065
0.370316
0.434787
0.512741
0.594162
0.668054
0.727098
0.770693
0.801631
0.823043
0.837328
0.846055
0.850093
0.961502
0.960827
0.95953
0.957572
0.954882
0.951355
0.946842
0.941126
0.933873
0.924517
0.912069
0.894799
0.8694
0.829032
0.762119
0.649326
0.496963
0.368958
0.291252
0.246228
0.218763
0.201141
0.189572
0.182145
0.177925
0.176553
0.178023
0.182348
0.189906
0.201661
0.219581
0.247576
0.293619
0.373271
0.503724
0.655858
0.766436
0.831767
0.871129
0.895971
0.912899
0.925113
0.934297
0.941417
0.947022
0.951436
0.954872
0.957476
0.959348
0.960557
0.961135
0.961079
0.960394
0.959074
0.957081
0.954343
0.95075
0.946148
0.940311
0.932882
0.923259
0.910383
0.892384
0.865672
0.822792
0.751112
0.631388
0.477775
0.356182
0.283814
0.241744
0.215906
0.199258
0.188333
0.181385
0.177569
0.176588
0.178449
0.183186
0.191245
0.20369
0.22267
0.252467
0.301816
0.387299
0.523609
0.672794
0.776522
0.837582
0.874618
0.898259
0.914517
0.926334
0.935267
0.942221
0.947708
0.952036
0.955408
0.957964
0.959803
0.96099
0.961557
0.979772
0.979463
0.978874
0.977998
0.976818
0.975308
0.973432
0.971133
0.968328
0.964881
0.960579
0.955076
0.947799
0.937762
0.923239
0.900886
0.863067
0.791126
0.646952
0.449523
0.32058
0.257454
0.224736
0.206779
0.197475
0.194567
0.197681
0.207235
0.225582
0.259055
0.323889
0.456279
0.654411
0.795228
0.865217
0.902159
0.92408
0.938364
0.948234
0.955403
0.96083
0.965074
0.968472
0.971235
0.973495
0.975334
0.976806
0.977949
0.978787
0.979335
0.979599
0.979574
0.979261
0.978664
0.977775
0.976578
0.975046
0.973139
0.9708
0.96794
0.964415
0.959997
0.954318
0.946764
0.936261
0.920977
0.897173
0.856288
0.77726
0.621112
0.426786
0.309145
0.251678
0.22158
0.205053
0.196714
0.194642
0.198597
0.209169
0.229086
0.265532
0.336901
0.481135
0.678517
0.807472
0.871302
0.905558
0.92618
0.939763
0.94922
0.956134
0.961397
0.965531
0.968854
0.971565
0.973785
0.975595
0.977045
0.978171
0.978997
0.979537
0.979797
0.986818
0.98662
0.986244
0.985689
0.984947
0.984006
0.982849
0.981446
0.979756
0.977712
0.975213
0.972104
0.968143
0.962942
0.955856
0.945802
0.930667
0.905977
0.860904
0.766398
0.575112
0.382142
0.28731
0.244563
0.22508
0.219329
0.225485
0.245545
0.289461
0.387131
0.583395
0.771468
0.863289
0.907257
0.931449
0.946326
0.956231
0.963222
0.968358
0.972273
0.975346
0.977816
0.979836
0.981503
0.982884
0.98402
0.984938
0.985657
0.986189
0.986538
0.986708
0.986692
0.986491
0.986111
0.985548
0.984796
0.983842
0.982667
0.981241
0.979519
0.977431
0.974871
0.971673
0.96758
0.962179
0.954781
0.944206
0.928132
0.901554
0.852124
0.746789
0.544053
0.364026
0.279264
0.240805
0.223556
0.219476
0.227338
0.249847
0.29871
0.407951
0.61431
0.788592
0.871036
0.91126
0.933787
0.947818
0.957246
0.963948
0.968899
0.972691
0.975681
0.978092
0.98007
0.981707
0.983065
0.984183
0.985089
0.985798
0.986322
0.986667
0.986834
0.990352
0.990202
0.989918
0.989499
0.988943
0.988242
0.987384
0.986352
0.985117
0.983636
0.981846
0.97965
0.976903
0.973377
0.968707
0.962309
0.953162
0.939319
0.916672
0.875297
0.788182
0.604086
0.403263
0.305028
0.265343
0.254411
0.266112
0.307094
0.408325
0.612023
0.792652
0.877362
0.917772
0.939985
0.953604
0.962622
0.968939
0.973554
0.977042
0.979762
0.981936
0.983708
0.985172
0.986393
0.98741
0.988253
0.988938
0.989478
0.989879
0.990143
0.990271
0.990259
0.990108
0.98982
0.989396
0.988833
0.988122
0.987251
0.986201
0.984943
0.983432
0.981599
0.979344
0.976512
0.972861
0.968002
0.961309
0.95167
0.936946
0.912535
0.867103
0.76967
0.572284
0.383992
0.29704
0.262403
0.254687
0.269729
0.316448
0.430541
0.643094
0.808734
0.884593
0.921516
0.942174
0.954998
0.963567
0.96961
0.974049
0.977421
0.98006
0.982177
0.983909
0.985344
0.986542
0.987543
0.988373
0.989048
0.989581
0.989976
0.990237
0.990364
0.992357
0.99223
0.991989
0.991636
0.991169
0.990584
0.989872
0.989021
0.98801
0.986808
0.985367
0.983619
0.981456
0.978717
0.975146
0.970347
0.963669
0.953955
0.938955
0.913825
0.866684
0.766339
0.574046
0.40137
0.325515
0.305555
0.326916
0.405307
0.58126
0.771208
0.868945
0.914991
0.93964
0.954397
0.963976
0.97057
0.975315
0.978848
0.98156
0.983704
0.985438
0.986865
0.988056
0.989056
0.989896
0.990597
0.99117
0.991623
0.991961
0.992185
0.992294
0.992283
0.992155
0.991912
0.991555
0.991082
0.990488
0.989765
0.9889
0.98787
0.986643
0.985169
0.983374
0.981147
0.978316
0.974607
0.9696
0.962593
0.952323
0.936307
0.909099
0.85711
0.745183
0.544403
0.385847
0.320074
0.306052
0.333674
0.42344
0.611564
0.78982
0.877365
0.919248
0.942073
0.955917
0.964989
0.971279
0.97583
0.979234
0.981859
0.983942
0.985631
0.987027
0.988194
0.989176
0.990003
0.990692
0.991257
0.991705
0.992039
0.99226
0.992367
0.993577
0.99346
0.99324
0.992916
0.99249
0.991959
0.991319
0.990558
0.989662
0.988607
0.987355
0.985849
0.984004
0.981692
0.978707
0.974746
0.969329
0.961635
0.950159
0.931906
0.900253
0.839118
0.714263
0.532035
0.41375
0.380467
0.416045
0.537482
0.719715
0.841947
0.901678
0.932709
0.950659
0.96197
0.969567
0.974922
0.978842
0.981798
0.98409
0.985921
0.987416
0.988659
0.989706
0.990594
0.991345
0.991976
0.992496
0.99291
0.99322
0.993425
0.993525
0.993516
0.993398
0.993175
0.992848
0.992416
0.991878
0.991228
0.990455
0.989543
0.988466
0.987185
0.98564
0.983742
0.981353
0.978257
0.974131
0.968461
0.960356
0.948171
0.92858
0.89412
0.826551
0.690159
0.509511
0.404677
0.381297
0.427256
0.562077
0.741953
0.853028
0.907171
0.935745
0.952501
0.963168
0.970388
0.975508
0.979274
0.982124
0.984345
0.986124
0.987582
0.988798
0.989824
0.990696
0.991435
0.992057
0.99257
0.992979
0.993285
0.993488
0.993587
0.994358
0.994244
0.994029
0.993713
0.9933
0.992787
0.992173
0.991451
0.990608
0.989625
0.988471
0.987098
0.985432
0.983363
0.980715
0.977236
0.972537
0.965974
0.956415
0.941731
0.917597
0.874557
0.792812
0.655861
0.52698
0.482342
0.529893
0.66072
0.796337
0.876438
0.918631
0.94235
0.956815
0.96625
0.972737
0.977386
0.980832
0.983456
0.98551
0.987165
0.98853
0.989678
0.990654
0.99149
0.992205
0.99281
0.993312
0.993714
0.994016
0.994217
0.994315
0.994306
0.99419
0.993972
0.993654
0.993235
0.992716
0.992093
0.991359
0.990502
0.9895
0.98832
0.986912
0.985199
0.983063
0.980317
0.976698
0.971788
0.964892
0.954779
0.939112
0.913079
0.866101
0.776807
0.634658
0.515142
0.4835
0.544052
0.682101
0.81086
0.884016
0.922733
0.944762
0.958339
0.967269
0.973448
0.9779
0.981213
0.983747
0.985737
0.987347
0.988679
0.989801
0.990759
0.991581
0.992284
0.992881
0.993377
0.993774
0.994072
0.994271
0.994368
0.994883
0.994767
0.994546
0.994225
0.993804
0.993286
0.992669
0.991949
0.991117
0.990159
0.989046
0.987736
0.986165
0.984231
0.981777
0.978585
0.974319
0.968439
0.960028
0.947449
0.927594
0.894324
0.836165
0.74166
0.63808
0.594838
0.640719
0.745116
0.838562
0.895711
0.928412
0.947961
0.96037
0.968679
0.974496
0.97872
0.981885
0.984319
0.986241
0.987804
0.989107
0.990215
0.991169
0.991995
0.992708
0.993316
0.993825
0.994233
0.994541
0.994746
0.994846
0.994836
0.994719
0.994496
0.994172
0.993746
0.993222
0.992596
0.991866
0.99102
0.990043
0.988906
0.987564
0.985949
0.983954
0.981412
0.978094
0.973642
0.967476
0.958605
0.945242
0.923977
0.888048
0.825201
0.726178
0.62707
0.596027
0.653403
0.760271
0.848615
0.901421
0.931732
0.950008
0.961703
0.969588
0.975139
0.979189
0.982235
0.984587
0.98645
0.987972
0.989244
0.990329
0.991266
0.992078
0.99278
0.993381
0.993883
0.994287
0.994591
0.994794
0.994893
0.995256
0.995134
0.994902
0.994565
0.994124
0.993582
0.99294
0.992196
0.991345
0.990374
0.98926
0.987966
0.98643
0.98456
0.98221
0.979184
0.975182
0.969731
0.962056
0.950832
0.933707
0.90646
0.862259
0.795606
0.722392
0.689651
0.724323
0.797985
0.864
0.907553
0.934391
0.951278
0.962361
0.96995
0.975346
0.979313
0.982315
0.984648
0.986508
0.988038
0.989329
0.990439
0.991406
0.992251
0.992988
0.993621
0.994152
0.994581
0.994904
0.995119
0.995224
0.995214
0.995091
0.994857
0.994516
0.99407
0.993522
0.992872
0.992118
0.991254
0.990266
0.989129
0.987803
0.986226
0.984298
0.981866
0.978724
0.974553
0.968846
0.960771
0.948894
0.930661
0.901503
0.854298
0.784894
0.714241
0.690582
0.733569
0.808485
0.871411
0.912123
0.937212
0.953086
0.96357
0.970788
0.975946
0.979753
0.982646
0.984902
0.986707
0.988197
0.989458
0.990546
0.991496
0.992329
0.993055
0.993681
0.994206
0.99463
0.99495
0.995163
0.995266
0.995541
0.99541
0.995163
0.994802
0.994331
0.993752
0.993069
0.992282
0.991387
0.990375
0.989228
0.98791
0.986365
0.984506
0.982198
0.979258
0.975411
0.970233
0.96305
0.952764
0.937542
0.914413
0.879309
0.830407
0.779471
0.756834
0.780804
0.832094
0.880641
0.915314
0.938137
0.953166
0.963333
0.970439
0.975569
0.979384
0.982304
0.984599
0.98645
0.98799
0.989306
0.990451
0.991459
0.992348
0.993128
0.993802
0.994369
0.994826
0.995171
0.995401
0.995512
0.995502
0.99537
0.995121
0.994757
0.994281
0.993697
0.993006
0.992208
0.9913
0.990271
0.989101
0.987753
0.986168
0.984253
0.981867
0.978818
0.974813
0.969401
0.961863
0.951017
0.934898
0.910346
0.873265
0.822866
0.773861
0.757483
0.787174
0.839569
0.886351
0.919108
0.940606
0.954805
0.964453
0.971228
0.976139
0.979807
0.982623
0.984844
0.986642
0.988143
0.98943
0.990554
0.991545
0.992422
0.993192
0.993858
0.994419
0.994872
0.995214
0.995441
0.995551
0.995775
0.995635
0.99537
0.994981
0.994473
0.993849
0.993112
0.992265
0.991307
0.990232
0.989023
0.987649
0.98606
0.98417
0.981856
0.978944
0.975178
0.970172
0.963334
0.953741
0.939956
0.919884
0.891215
0.854138
0.817947
0.802372
0.818879
0.85538
0.892273
0.920649
0.940487
0.954113
0.963602
0.970373
0.975335
0.979073
0.981967
0.984271
0.986155
0.987742
0.989113
0.990321
0.991393
0.992345
0.993184
0.99391
0.994521
0.995014
0.995385
0.995632
0.995751
0.995739
0.995599
0.995331
0.994939
0.994426
0.993796
0.993052
0.992194
0.991223
0.990131
0.988899
0.987497
0.985867
0.983923
0.981534
0.978517
0.974602
0.96938
0.962221
0.952142
0.937618
0.916472
0.886491
0.848676
0.814081
0.802816
0.823301
0.860865
0.8968
0.923868
0.942687
0.955622
0.964657
0.971126
0.975885
0.979483
0.982278
0.984511
0.986343
0.987892
0.989235
0.990421
0.991477
0.992417
0.993245
0.993963
0.994568
0.995056
0.995424
0.995669
0.995787
0.995984
0.995834
0.995549
0.99513
0.994581
0.993906
0.993108
0.99219
0.991154
0.989995
0.988701
0.987246
0.985581
0.983626
0.981268
0.97834
0.974601
0.969701
0.963119
0.95408
0.941462
0.923822
0.900036
0.87129
0.844909
0.833938
0.845587
0.872237
0.900899
0.924487
0.941946
0.954432
0.963381
0.969903
0.974763
0.978476
0.98139
0.983739
0.98569
0.987354
0.988809
0.990101
0.991256
0.992285
0.993194
0.993979
0.99464
0.995171
0.995571
0.995835
0.995963
0.995951
0.9958
0.995512
0.99509
0.994537
0.993856
0.993049
0.992121
0.991072
0.989896
0.98858
0.987095
0.985391
0.983383
0.980952
0.977923
0.974043
0.968942
0.962069
0.952605
0.939376
0.920928
0.896281
0.867243
0.842188
0.83425
0.848724
0.876352
0.904542
0.927244
0.943924
0.95583
0.96438
0.970628
0.975298
0.978878
0.981696
0.983976
0.985875
0.987502
0.988929
0.990199
0.991338
0.992355
0.993253
0.994031
0.994685
0.995212
0.995608
0.99587
0.995996
0.996182
0.996022
0.995717
0.995268
0.994678
0.993949
0.993086
0.99209
0.990966
0.98971
0.988313
0.986753
0.984986
0.98294
0.980507
0.977527
0.973777
0.968942
0.962568
0.954017
0.942442
0.926915
0.90702
0.884364
0.864669
0.85673
0.865176
0.885106
0.907738
0.927502
0.942891
0.954356
0.962829
0.969149
0.973947
0.977676
0.980642
0.983069
0.985113
0.98688
0.98844
0.989834
0.991085
0.992202
0.993186
0.994035
0.994747
0.995318
0.995745
0.996028
0.996164
0.996151
0.99599
0.995683
0.995231
0.994636
0.993901
0.993029
0.992024
0.990886
0.989613
0.988194
0.986604
0.984798
0.982699
0.980195
0.977117
0.973233
0.968212
0.961576
0.952658
0.940588
0.924455
0.904006
0.881307
0.862705
0.856955
0.867458
0.888249
0.910696
0.929868
0.944662
0.955651
0.963776
0.969847
0.974469
0.978071
0.980945
0.983303
0.985298
0.987027
0.988559
0.989932
0.991166
0.99227
0.993243
0.994084
0.99479
0.995356
0.99578
0.99606
0.996195
0.996378
0.996209
0.995885
0.995407
0.994778
0.993998
0.99307
0.991996
0.990779
0.989418
0.987906
0.986225
0.984337
0.982177
0.979648
0.976601
0.97283
0.96805
0.961875
0.953791
0.943187
0.929515
0.912814
0.894777
0.87982
0.873954
0.880209
0.89537
0.913421
0.930039
0.943608
0.954123
0.962138
0.968266
0.973014
0.976765
0.979802
0.982326
0.984485
0.986374
0.988054
0.989563
0.990917
0.992124
0.993184
0.994096
0.994857
0.995465
0.995919
0.996219
0.996363
0.996349
0.996179
0.995853
0.995372
0.994738
0.993952
0.993015
0.991931
0.9907
0.989322
0.987788
0.986077
0.98415
0.981939
0.979341
0.976201
0.972304
0.967353
0.960944
0.952548
0.941546
0.927428
0.910386
0.89244
0.878377
0.874121
0.881899
0.897797
0.91583
0.932064
0.945187
0.955315
0.963032
0.968937
0.973521
0.977152
0.9801
0.982558
0.984669
0.986521
0.988173
0.98966
0.990997
0.99219
0.99324
0.994144
0.994898
0.995501
0.995952
0.996249
0.996392
0.996577
0.996399
0.996059
0.995557
0.994893
0.994068
0.993082
0.991936
0.990632
0.989169
0.987541
0.985734
0.983716
0.981433
0.978798
0.975674
0.971877
0.967156
0.961188
0.953579
0.943911
0.931918
0.917914
0.903494
0.892021
0.887629
0.892327
0.903978
0.918434
0.932391
0.944309
0.953907
0.961459
0.967385
0.972078
0.975859
0.978974
0.981606
0.983889
0.985906
0.987712
0.989334
0.990788
0.99208
0.99321
0.994177
0.994981
0.995622
0.9961
0.996414
0.996565
0.996551
0.996372
0.996029
0.995524
0.994855
0.994024
0.993029
0.991873
0.990555
0.989074
0.987424
0.985587
0.983531
0.981199
0.978498
0.975287
0.971372
0.966495
0.960324
0.952453
0.942471
0.930161
0.915963
0.901701
0.890951
0.887753
0.89359
0.905857
0.920389
0.934112
0.945704
0.954994
0.962293
0.968023
0.972567
0.976236
0.979266
0.981835
0.984071
0.986052
0.987829
0.98943
0.990867
0.992145
0.993264
0.994223
0.99502
0.995656
0.99613
0.996442
0.996592
0.996784
0.9966
0.996247
0.995726
0.995036
0.994177
0.993145
0.99194
0.990562
0.989009
0.987275
0.985349
0.983206
0.980805
0.978067
0.974873
0.97106
0.966419
0.960691
0.953587
0.94485
0.934419
0.922749
0.911244
0.902419
0.899111
0.902663
0.911643
0.9232
0.93485
0.945231
0.953914
0.960972
0.966666
0.971284
0.975082
0.978269
0.981004
0.983405
0.985546
0.987467
0.989193
0.990735
0.992098
0.993284
0.994295
0.995132
0.995797
0.996292
0.996618
0.996774
0.996759
0.996574
0.996219
0.995695
0.995001
0.994135
0.993095
0.991879
0.990487
0.988916
0.98716
0.985205
0.983026
0.980577
0.977777
0.974502
0.970582
0.965803
0.9599
0.952582
0.943607
0.932959
0.921196
0.909873
0.901625
0.899206
0.903609
0.913093
0.92477
0.936292
0.946445
0.95489
0.961739
0.967263
0.971748
0.975444
0.978552
0.981228
0.983584
0.98569
0.987583
0.989287
0.990812
0.992161
0.993336
0.994339
0.995169
0.995829
0.996321
0.996644
0.996799
0.997001
0.996812
0.996453
0.995922
0.995218
0.994337
0.993278
0.992035
0.990605
0.988985
0.987169
0.985148
0.982905
0.980408
0.977591
0.974354
0.970561
0.966044
0.96061
0.954065
0.946281
0.937335
0.927728
0.918628
0.911874
0.909391
0.912072
0.918961
0.92812
0.937729
0.946646
0.954392
0.960902
0.966309
0.970807
0.974588
0.977819
0.980632
0.983128
0.985368
0.987381
0.989186
0.990791
0.992203
0.993426
0.994463
0.995319
0.995997
0.996502
0.996834
0.996993
0.996978
0.996789
0.996427
0.995893
0.995184
0.994298
0.99323
0.991976
0.990533
0.988895
0.987058
0.985009
0.98273
0.980189
0.977316
0.974004
0.970117
0.965481
0.959902
0.953188
0.945231
0.936147
0.926512
0.917593
0.91129
0.909462
0.912774
0.920066
0.929361
0.938914
0.94768
0.955249
0.961593
0.966858
0.971241
0.97493
0.97809
0.980849
0.983302
0.985508
0.987494
0.989277
0.990865
0.992264
0.993475
0.994504
0.995353
0.996027
0.996528
0.996858
0.997016
0.997228
0.997039
0.996679
0.996148
0.995443
0.994561
0.993495
0.992241
0.990792
0.989142
0.987286
0.985214
0.982915
0.980371
0.977526
0.974301
0.970591
0.966273
0.961213
0.955304
0.948515
0.941002
0.933245
0.926168
0.92107
0.919228
0.92123
0.926446
0.933586
0.94136
0.948862
0.955629
0.961515
0.966554
0.970857
0.974557
0.977776
0.980617
0.983159
0.985451
0.987512
0.989355
0.990987
0.992416
0.993648
0.99469
0.995547
0.996226
0.996731
0.997063
0.997223
0.997208
0.997018
0.996656
0.996122
0.995413
0.994524
0.993451
0.992186
0.990724
0.989057
0.98718
0.985082
0.982751
0.980166
0.97727
0.97398
0.970189
0.965772
0.960598
0.954563
0.947654
0.940062
0.932317
0.925404
0.920648
0.919281
0.921742
0.927269
0.934541
0.942305
0.949716
0.956359
0.962119
0.967045
0.971253
0.974874
0.97803
0.980821
0.983324
0.985585
0.98762
0.989442
0.991058
0.992473
0.993695
0.994728
0.995579
0.996254
0.996755
0.997085
0.997244
0.997467
0.997281
0.996928
0.996407
0.995718
0.994854
0.993809
0.992577
0.991149
0.989519
0.987677
0.985619
0.983335
0.980819
0.978028
0.974903
0.971373
0.967356
0.962777
0.957595
0.951848
0.945722
0.939635
0.934272
0.930513
0.929177
0.930642
0.934502
0.939927
0.946043
0.952172
0.957911
0.96308
0.967645
0.971651
0.975174
0.978293
0.981079
0.98359
0.985864
0.98791
0.989735
0.991347
0.992753
0.993962
0.994983
0.995822
0.996486
0.99698
0.997306
0.997463
0.997448
0.997262
0.996907
0.996384
0.99569
0.99482
0.993768
0.992526
0.991086
0.98944
0.987579
0.985497
0.983184
0.980633
0.977797
0.974618
0.971021
0.966927
0.962262
0.956993
0.95117
0.945007
0.938953
0.933726
0.930218
0.929216
0.931004
0.935095
0.940637
0.946769
0.952851
0.958509
0.963589
0.968069
0.971999
0.975457
0.978523
0.981267
0.983744
0.985989
0.988011
0.989816
0.991412
0.992806
0.994006
0.995018
0.995851
0.996511
0.997002
0.997326
0.997482
0.997716
0.997537
0.997198
0.996701
0.996043
0.995219
0.994225
0.993052
0.991691
0.990135
0.988377
0.986411
0.984233
0.981844
0.979213
0.976304
0.973075
0.969483
0.965502
0.961137
0.956464
0.951664
0.947065
0.943145
0.940465
0.939529
0.940568
0.943331
0.947309
0.951941
0.956756
0.961431
0.965792
0.969767
0.973352
0.976575
0.979479
0.982104
0.984486
0.986654
0.988606
0.990346
0.991883
0.993222
0.994373
0.995344
0.996144
0.996778
0.99725
0.997563
0.997714
0.997699
0.99752
0.99718
0.99668
0.996018
0.995189
0.994188
0.993006
0.991634
0.990064
0.988289
0.986302
0.984099
0.98168
0.979013
0.97606
0.97278
0.969132
0.965092
0.960671
0.955956
0.951146
0.946587
0.942772
0.940268
0.939557
0.940814
0.94374
0.947812
0.952473
0.957269
0.961899
0.966202
0.970117
0.973646
0.976819
0.97968
0.98227
0.984624
0.986766
0.988697
0.990421
0.991942
0.99327
0.994412
0.995376
0.99617
0.9968
0.99727
0.99758
0.99773
0.997973
0.997806
0.99749
0.997027
0.996417
0.995656
0.99474
0.993662
0.992415
0.990992
0.989387
0.987596
0.98562
0.983463
0.981109
0.978539
0.975736
0.972689
0.969404
0.965914
0.962303
0.958725
0.955412
0.952673
0.950844
0.950214
0.950922
0.952818
0.955607
0.958953
0.962551
0.966172
0.969665
0.972951
0.975995
0.978794
0.981359
0.983708
0.985857
0.987823
0.9896
0.991188
0.992593
0.993821
0.994878
0.995773
0.996512
0.9971
0.997539
0.997831
0.997973
0.997959
0.997791
0.997474
0.997009
0.996395
0.99563
0.994708
0.993622
0.992365
0.99093
0.989311
0.987503
0.985507
0.983326
0.980943
0.97834
0.975502
0.972417
0.969094
0.965573
0.961944
0.95837
0.955094
0.952432
0.950719
0.950233
0.951081
0.953086
0.955945
0.959321
0.962918
0.966517
0.969977
0.973224
0.97623
0.978994
0.981527
0.983849
0.985975
0.98792
0.98968
0.991253
0.992646
0.993863
0.994913
0.995801
0.996535
0.99712
0.997557
0.997847
0.997987
0.998239
0.998087
0.9978
0.997383
0.996836
0.996158
0.995346
0.994396
0.993303
0.992062
0.990671
0.989128
0.987436
0.985602
0.98362
0.981488
0.979206
0.976781
0.974236
0.971614
0.968988
0.96647
0.964213
0.962396
0.961208
0.960805
0.961264
0.962502
0.964359
0.966647
0.969185
0.971824
0.974454
0.977003
0.979429
0.98171
0.983839
0.985815
0.987642
0.989326
0.990857
0.992235
0.99346
0.994536
0.995469
0.996263
0.996922
0.99745
0.997846
0.99811
0.998239
0.998227
0.998074
0.997787
0.997368
0.996818
0.996136
0.995318
0.994361
0.99326
0.99201
0.990607
0.98905
0.987344
0.985492
0.98349
0.981336
0.97903
0.976582
0.974017
0.971379
0.968749
0.966241
0.964013
0.962248
0.961132
0.960817
0.961362
0.962669
0.964573
0.966886
0.969432
0.972064
0.974678
0.977205
0.979607
0.981865
0.983972
0.985929
0.987739
0.989406
0.990924
0.99229
0.993505
0.994573
0.995499
0.996287
0.996942
0.997467
0.997861
0.998123
0.998251
0.99851
0.998376
0.998127
0.997765
0.997294
0.996714
0.996026
0.995227
0.994317
0.993293
0.992156
0.990906
0.989549
0.988092
0.986536
0.984889
0.98316
0.981364
0.979528
0.977689
0.975902
0.974239
0.972788
0.971649
0.970916
0.970671
0.970954
0.971721
0.97289
0.974364
0.976045
0.977846
0.979694
0.981537
0.983336
0.985066
0.986712
0.988264
0.989717
0.991068
0.99231
0.993437
0.994448
0.995346
0.99613
0.996804
0.997368
0.997823
0.998167
0.998398
0.998511
0.9985
0.998366
0.998115
0.997752
0.997278
0.996695
0.996003
0.995199
0.994283
0.993251
0.992105
0.990846
0.989478
0.988008
0.986439
0.984778
0.983035
0.981227
0.979381
0.977537
0.975752
0.974099
0.97267
0.971563
0.970873
0.970679
0.971011
0.971819
0.973019
0.974512
0.976202
0.978002
0.979844
0.981676
0.983463
0.985179
0.986812
0.988351
0.989791
0.991131
0.992363
0.993481
0.994485
0.995375
0.996155
0.996824
0.997385
0.997837
0.998179
0.998409
0.998521
0.998784
0.998673
0.998465
0.998166
0.997779
0.997309
0.996756
0.996123
0.99541
0.994617
0.993748
0.992805
0.991793
0.990717
0.989586
0.988408
0.987196
0.985966
0.984737
0.983539
0.982405
0.981377
0.9805
0.979825
0.979398
0.979256
0.979422
0.979871
0.980566
0.981459
0.982501
0.983646
0.984853
0.986088
0.987323
0.988538
0.989716
0.990846
0.991919
0.992928
0.993866
0.994728
0.995513
0.996217
0.996841
0.997382
0.997841
0.998214
0.998498
0.998691
0.998785
0.998776
0.998664
0.998455
0.998155
0.997767
0.997294
0.996739
0.996101
0.995383
0.994586
0.993711
0.992761
0.991741
0.990658
0.989518
0.988333
0.987114
0.985877
0.984646
0.983447
0.982316
0.981296
0.980434
0.979778
0.979374
0.979261
0.979453
0.979926
0.980639
0.981545
0.982594
0.983742
0.984948
0.986179
0.987408
0.988615
0.989786
0.990908
0.991973
0.992974
0.993906
0.994762
0.995541
0.99624
0.99686
0.997398
0.997854
0.998225
0.998508
0.9987
0.998794
0.99906
0.998972
0.99881
0.998578
0.998282
0.997926
0.997512
0.997046
0.996528
0.995961
0.995349
0.994694
0.994001
0.993272
0.992517
0.991745
0.990965
0.990191
0.989435
0.988714
0.988047
0.987455
0.98696
0.986585
0.98635
0.986273
0.986364
0.986612
0.986999
0.987504
0.988105
0.98878
0.989508
0.990269
0.991048
0.99183
0.992605
0.99336
0.994088
0.99478
0.995432
0.99604
0.996602
0.997115
0.997575
0.997981
0.998329
0.998615
0.998836
0.998986
0.999061
0.999054
0.998966
0.998803
0.99857
0.998273
0.997915
0.997499
0.99703
0.996509
0.995939
0.995323
0.994664
0.993966
0.993232
0.992473
0.991697
0.990915
0.990138
0.989381
0.988661
0.987997
0.987411
0.986924
0.98656
0.986338
0.986275
0.98638
0.986641
0.987038
0.987551
0.988158
0.988836
0.989564
0.990324
0.991101
0.99188
0.99265
0.993401
0.994124
0.994811
0.995459
0.996064
0.996622
0.997132
0.997589
0.997993
0.998339
0.998624
0.998844
0.998993
0.999067
0.999334
0.999271
0.999156
0.998994
0.998789
0.998545
0.998267
0.997958
0.99762
0.997258
0.996873
0.996467
0.996042
0.9956
0.995149
0.994696
0.994246
0.993808
0.993389
0.992997
0.992641
0.99233
0.992074
0.991883
0.991764
0.991725
0.991772
0.991897
0.992095
0.992357
0.992673
0.993034
0.99343
0.993853
0.994294
0.994746
0.995202
0.995654
0.996096
0.99652
0.996925
0.997308
0.997669
0.998003
0.998309
0.998583
0.998821
0.99902
0.999175
0.999282
0.999335
0.99933
0.999267
0.999152
0.998989
0.998783
0.998538
0.998258
0.997947
0.997608
0.997244
0.996856
0.996448
0.996021
0.995577
0.995124
0.994668
0.994218
0.993779
0.99336
0.992969
0.992615
0.992308
0.992057
0.991871
0.991758
0.991727
0.99178
0.991912
0.992115
0.992381
0.9927
0.993063
0.99346
0.993883
0.994324
0.994775
0.995228
0.995678
0.996118
0.996539
0.996942
0.997323
0.997682
0.998014
0.998319
0.998591
0.998828
0.999026
0.99918
0.999286
0.999339
0.999604
0.999567
0.9995
0.999406
0.999288
0.99915
0.998996
0.998827
0.998646
0.998455
0.998257
0.99805
0.997837
0.997615
0.997392
0.99717
0.996954
0.996748
0.996553
0.996374
0.996213
0.996075
0.995963
0.99588
0.995829
0.995812
0.995832
0.995886
0.995972
0.996087
0.996228
0.996391
0.996572
0.996769
0.996977
0.997195
0.997417
0.997642
0.997864
0.998077
0.998283
0.998482
0.998672
0.998851
0.999019
0.999171
0.999306
0.999421
0.999511
0.999574
0.999605
0.999602
0.999565
0.999497
0.999402
0.999284
0.999146
0.998991
0.998821
0.99864
0.998448
0.998248
0.998041
0.997826
0.997603
0.997379
0.997157
0.996941
0.996734
0.99654
0.996361
0.996202
0.996066
0.995956
0.995875
0.995826
0.995813
0.995836
0.995893
0.995981
0.996098
0.99624
0.996404
0.996586
0.996783
0.996992
0.997209
0.997431
0.997654
0.997875
0.998087
0.998292
0.99849
0.998679
0.998857
0.999024
0.999176
0.99931
0.999424
0.999514
0.999576
0.999607
0.999869
0.999856
0.999835
0.999804
0.999767
0.999725
0.999678
0.999627
0.999575
0.99952
0.999465
0.999408
0.999349
0.999287
0.999224
0.999163
0.999103
0.999047
0.998995
0.998947
0.998905
0.99887
0.998841
0.998819
0.998806
0.998802
0.998807
0.998821
0.998843
0.998873
0.998909
0.998952
0.999
0.999053
0.99911
0.999169
0.999231
0.999294
0.999357
0.999415
0.999472
0.999528
0.999582
0.999635
0.999685
0.999731
0.999773
0.999809
0.999838
0.999858
0.999869
0.999868
0.999856
0.999834
0.999803
0.999766
0.999723
0.999676
0.999626
0.999573
0.999518
0.999462
0.999405
0.999346
0.999283
0.999221
0.999159
0.9991
0.999044
0.998991
0.998944
0.998902
0.998867
0.998839
0.998818
0.998806
0.998802
0.998808
0.998822
0.998845
0.998875
0.998912
0.998955
0.999004
0.999057
0.999114
0.999173
0.999235
0.999298
0.99936
0.999418
0.999475
0.99953
0.999584
0.999636
0.999686
0.999733
0.999774
0.99981
0.999839
0.999859
0.99987
)
;

boundaryField
{
    top
    {
        type            calculated;
        value           uniform 1;
    }
    bottom
    {
        type            calculated;
        value           uniform 0.148957;
    }
    frontAndBack
    {
        type            empty;
    }
    left_cyc
    {
        type            cyclic;
    }
    right_cyc
    {
        type            cyclic;
    }
}


// ************************************************************************* //
