/*--------------------------------*- C++ -*----------------------------------*\
| =========                 |                                                 |
| \\      /  F ield         | OpenFOAM: The Open Source CFD Toolbox           |
|  \\    /   O peration     | Version:  2.3.0                                 |
|   \\  /    A nd           | Web:      www.OpenFOAM.org                      |
|    \\/     M anipulation  |                                                 |
\*---------------------------------------------------------------------------*/
FoamFile
{
    version     2.0;
    format      ascii;
    class       volScalarField;
    location    "19000";
    object      NUEff;
}
// * * * * * * * * * * * * * * * * * * * * * * * * * * * * * * * * * * * * * //

dimensions      [0 2 -1 0 0 0 0];

internalField   nonuniform List<scalar> 
3060
(
0.17491
0.174721
0.174376
0.173887
0.173268
0.172532
0.171692
0.170758
0.169741
0.168649
0.167487
0.166262
0.164989
0.163702
0.162433
0.161182
0.159954
0.158757
0.157611
0.156536
0.155557
0.154699
0.153991
0.153459
0.153132
0.153033
0.153173
0.153538
0.154103
0.154841
0.155722
0.156721
0.157811
0.158969
0.160174
0.161409
0.162665
0.163942
0.165234
0.166503
0.167718
0.168868
0.169947
0.170947
0.171861
0.172678
0.173386
0.173974
0.174426
0.174731
0.174877
0.174854
0.174664
0.174317
0.173827
0.173205
0.172465
0.171621
0.170683
0.169661
0.168562
0.167393
0.166162
0.164883
0.163594
0.162323
0.161072
0.159844
0.158649
0.157507
0.156439
0.15547
0.154625
0.153931
0.153418
0.153112
0.153036
0.153199
0.153584
0.154167
0.154919
0.155812
0.15682
0.157916
0.159078
0.160285
0.161519
0.162774
0.164049
0.165339
0.166601
0.16781
0.168954
0.170026
0.171021
0.17193
0.172743
0.173449
0.174034
0.174484
0.174788
0.174933
0.626173
0.618494
0.604173
0.583251
0.555915
0.522779
0.485123
0.444924
0.404535
0.366127
0.331217
0.300543
0.274217
0.251977
0.233763
0.218916
0.206646
0.196465
0.188033
0.181097
0.175459
0.170974
0.167542
0.16511
0.163667
0.163236
0.163847
0.165465
0.168072
0.171687
0.17637
0.182231
0.189424
0.198158
0.208701
0.221415
0.236835
0.255857
0.278886
0.306081
0.337639
0.373335
0.412267
0.452745
0.492506
0.529227
0.56106
0.586877
0.606173
0.618804
0.624721
0.623777
0.616025
0.601576
0.580482
0.552955
0.519649
0.48189
0.441696
0.401431
0.363247
0.328624
0.298258
0.272235
0.250278
0.232357
0.217731
0.205645
0.19562
0.187326
0.180513
0.174985
0.170601
0.167265
0.164928
0.163581
0.16325
0.16396
0.165674
0.168375
0.172087
0.176874
0.182848
0.190169
0.199047
0.209756
0.222661
0.238314
0.257642
0.280959
0.30846
0.340325
0.376295
0.415429
0.456
0.495734
0.532328
0.563979
0.589606
0.608737
0.621251
0.62711
0.939719
0.938963
0.937536
0.935389
0.932435
0.928528
0.923439
0.916818
0.908112
0.896431
0.880275
0.856994
0.821672
0.765076
0.672802
0.543626
0.415634
0.325763
0.270296
0.235747
0.213335
0.19834
0.188249
0.181711
0.17804
0.176968
0.178492
0.182638
0.189738
0.200576
0.216663
0.240815
0.278334
0.338966
0.43641
0.568727
0.692812
0.777831
0.829597
0.862156
0.883815
0.898962
0.909976
0.918214
0.924489
0.929308
0.932994
0.935755
0.937725
0.938983
0.939566
0.939473
0.938708
0.937261
0.935086
0.932089
0.92812
0.922942
0.916193
0.907297
0.895324
0.878702
0.854638
0.817929
0.758845
0.662838
0.531364
0.405736
0.31943
0.266357
0.233209
0.211639
0.197189
0.18748
0.181239
0.177825
0.177003
0.178776
0.183186
0.190601
0.201857
0.218553
0.243671
0.282818
0.346208
0.447343
0.580914
0.701807
0.783285
0.832895
0.864263
0.885242
0.89998
0.910734
0.918801
0.924961
0.929699
0.933328
0.93605
0.937994
0.939235
0.939811
0.971493
0.971186
0.970611
0.969757
0.968601
0.967107
0.965216
0.962847
0.959873
0.956113
0.951284
0.944948
0.936383
0.924338
0.906477
0.878317
0.829528
0.736666
0.572118
0.400917
0.301214
0.249967
0.221996
0.206242
0.1981
0.195805
0.199075
0.208369
0.225825
0.256824
0.314299
0.426409
0.605793
0.758212
0.840689
0.88457
0.910361
0.926922
0.938205
0.946288
0.9523
0.956899
0.96049
0.963332
0.965596
0.967397
0.968813
0.969897
0.970683
0.97119
0.971427
0.971389
0.971079
0.970497
0.969633
0.968462
0.966947
0.965029
0.962621
0.959595
0.95576
0.950825
0.94433
0.935519
0.923072
0.904511
0.875008
0.823381
0.724552
0.554252
0.388394
0.29477
0.246521
0.220047
0.205164
0.197635
0.195879
0.199694
0.209649
0.228097
0.260885
0.322044
0.441057
0.623037
0.768365
0.845861
0.887447
0.912133
0.928067
0.938995
0.946858
0.952727
0.957229
0.960753
0.963546
0.965775
0.967551
0.968948
0.970019
0.970795
0.971297
0.971531
0.982385
0.982192
0.98183
0.981297
0.98058
0.979662
0.978515
0.977099
0.975355
0.9732
0.97051
0.967104
0.962698
0.956846
0.948801
0.937229
0.919548
0.89022
0.835831
0.723178
0.525761
0.361595
0.281846
0.244375
0.227117
0.222492
0.229109
0.249107
0.291778
0.383235
0.563124
0.749681
0.848463
0.896764
0.923377
0.939686
0.950486
0.958065
0.963612
0.967808
0.971064
0.973642
0.97571
0.977383
0.978741
0.979837
0.980709
0.981382
0.981873
0.982192
0.982341
0.982318
0.982122
0.981757
0.981217
0.980492
0.979562
0.978399
0.976962
0.97519
0.972996
0.970254
0.966772
0.962258
0.956242
0.947938
0.935931
0.91746
0.886528
0.828459
0.707618
0.506069
0.35093
0.276898
0.242005
0.226169
0.22264
0.230389
0.252013
0.297852
0.39636
0.583588
0.762554
0.854501
0.899895
0.9252
0.940842
0.951268
0.958619
0.964019
0.968117
0.971306
0.973834
0.975867
0.977514
0.978852
0.979933
0.980794
0.98146
0.981946
0.982261
0.982409
0.987644
0.987497
0.987222
0.986818
0.986278
0.985591
0.984739
0.983698
0.98243
0.980885
0.978987
0.976627
0.973642
0.969784
0.964659
0.957579
0.947373
0.931802
0.906115
0.858905
0.760815
0.572909
0.393869
0.306836
0.270907
0.261841
0.274882
0.317218
0.417959
0.610736
0.784022
0.869765
0.911789
0.935142
0.94952
0.95905
0.965714
0.970575
0.974252
0.977108
0.979372
0.981198
0.982685
0.983905
0.984905
0.98572
0.986374
0.986882
0.987254
0.987497
0.98761
0.987592
0.987443
0.987166
0.986757
0.986211
0.985515
0.984652
0.983596
0.982309
0.980737
0.978804
0.976396
0.973343
0.969386
0.964112
0.956798
0.946203
0.929931
0.902842
0.852442
0.74682
0.55218
0.381884
0.3017
0.269025
0.262127
0.277468
0.323723
0.432738
0.631213
0.795403
0.875068
0.91457
0.936776
0.950561
0.959752
0.966208
0.970941
0.97453
0.977324
0.979545
0.981338
0.982801
0.984002
0.984989
0.985794
0.98644
0.986942
0.98731
0.98755
0.987662
0.990599
0.990474
0.990242
0.9899
0.989445
0.98887
0.988161
0.987302
0.986267
0.985017
0.9835
0.981637
0.979315
0.97636
0.972507
0.967304
0.960036
0.949428
0.933016
0.905537
0.854428
0.749492
0.565944
0.409516
0.339182
0.322001
0.346813
0.429895
0.600713
0.773809
0.866146
0.9116
0.93653
0.951653
0.961541
0.968373
0.973296
0.97696
0.979784
0.982013
0.983805
0.985268
0.986473
0.987472
0.988299
0.988978
0.989526
0.989954
0.990269
0.990475
0.990571
0.990556
0.990429
0.990194
0.989849
0.989389
0.988806
0.988089
0.987218
0.986167
0.984897
0.983353
0.981454
0.979081
0.976055
0.972096
0.966734
0.959214
0.948182
0.931
0.901966
0.847345
0.734801
0.547046
0.39936
0.335576
0.322539
0.351826
0.442592
0.620144
0.786011
0.871961
0.914625
0.938285
0.952759
0.96228
0.968891
0.973671
0.977243
0.980003
0.982185
0.983944
0.985382
0.986569
0.987553
0.988369
0.989039
0.989581
0.990004
0.990316
0.990519
0.990615
0.992403
0.992289
0.992076
0.991765
0.991352
0.990833
0.990198
0.989433
0.98852
0.987428
0.986116
0.984521
0.982554
0.98008
0.976892
0.972652
0.966847
0.958605
0.946341
0.926949
0.893777
0.831709
0.713158
0.550427
0.442342
0.413423
0.454977
0.577459
0.738914
0.845787
0.901107
0.931111
0.948915
0.960309
0.968036
0.973515
0.97754
0.980579
0.982949
0.984841
0.986379
0.987646
0.988702
0.989585
0.990321
0.990931
0.991427
0.991815
0.992103
0.992291
0.992379
0.992365
0.992249
0.992034
0.99172
0.991302
0.990777
0.990134
0.98936
0.988433
0.987324
0.985989
0.984364
0.982356
0.979824
0.976552
0.972189
0.966195
0.957649
0.944865
0.924512
0.88939
0.823154
0.697982
0.536155
0.436307
0.414337
0.463203
0.593316
0.752379
0.852894
0.904811
0.93322
0.950218
0.961166
0.968627
0.973939
0.977854
0.980817
0.983135
0.984989
0.986499
0.987746
0.988785
0.989656
0.990383
0.990986
0.991475
0.99186
0.992144
0.99233
0.992417
0.993564
0.993454
0.993248
0.992949
0.992553
0.992057
0.991455
0.990736
0.989884
0.988876
0.987675
0.98623
0.984465
0.982265
0.979456
0.975765
0.970788
0.963857
0.95382
0.938559
0.913932
0.871509
0.795933
0.678924
0.570378
0.534575
0.585059
0.701076
0.81231
0.880807
0.919226
0.941772
0.955899
0.965276
0.971799
0.976512
0.980023
0.982706
0.984818
0.986519
0.987915
0.989078
0.990055
0.99088
0.991574
0.992153
0.992626
0.992999
0.993276
0.993457
0.993542
0.993529
0.993417
0.99321
0.992907
0.992507
0.992006
0.991397
0.990669
0.989805
0.988781
0.98756
0.986089
0.984288
0.982038
0.979158
0.975364
0.970232
0.963061
0.95263
0.936685
0.910788
0.865912
0.78615
0.666544
0.563149
0.535755
0.594315
0.713412
0.820831
0.885573
0.921939
0.943419
0.95696
0.965995
0.972306
0.976881
0.9803
0.982918
0.984984
0.986652
0.988024
0.989168
0.990131
0.990945
0.991631
0.992203
0.992671
0.99304
0.993314
0.993493
0.993577
0.994342
0.994231
0.994025
0.993725
0.993329
0.992836
0.99224
0.991534
0.990705
0.989732
0.988584
0.987218
0.985564
0.983521
0.980934
0.977573
0.973097
0.966962
0.958263
0.945428
0.925615
0.893649
0.841239
0.763282
0.683285
0.653036
0.69502
0.778273
0.852263
0.900452
0.929786
0.948091
0.960045
0.968207
0.974
0.978249
0.981454
0.98393
0.985895
0.987492
0.988815
0.989928
0.990873
0.991678
0.99236
0.992934
0.993405
0.993778
0.994056
0.994238
0.994323
0.99431
0.994198
0.99399
0.993686
0.993286
0.992788
0.992186
0.991471
0.990631
0.989643
0.988477
0.987086
0.9854
0.983312
0.980662
0.977209
0.9726
0.966263
0.957244
0.943881
0.923157
0.889598
0.834704
0.754774
0.677371
0.654074
0.702238
0.786524
0.858059
0.903983
0.931944
0.949466
0.960962
0.968843
0.974455
0.978585
0.981708
0.984125
0.986049
0.987616
0.988917
0.990013
0.990944
0.991739
0.992413
0.99298
0.993446
0.993816
0.994091
0.994271
0.994356
0.994886
0.994771
0.994558
0.994248
0.99384
0.993334
0.992726
0.992009
0.991174
0.990202
0.989068
0.98773
0.986128
0.984167
0.981705
0.978542
0.97438
0.968754
0.960924
0.949662
0.932909
0.90731
0.868348
0.814591
0.760691
0.739791
0.768689
0.824712
0.876295
0.912626
0.936376
0.951972
0.962516
0.96989
0.975216
0.979176
0.982199
0.98456
0.986449
0.988
0.989299
0.990401
0.991346
0.992158
0.992852
0.993438
0.993922
0.994307
0.994593
0.994781
0.99487
0.994855
0.99474
0.994525
0.994212
0.9938
0.993288
0.992674
0.991949
0.991103
0.990118
0.988966
0.987605
0.985972
0.983969
0.981449
0.978203
0.973922
0.96812
0.960018
0.948327
0.930882
0.904179
0.863696
0.808877
0.756644
0.740517
0.773575
0.830306
0.880516
0.91541
0.938182
0.953169
0.963336
0.97047
0.975637
0.97949
0.982438
0.984745
0.986596
0.988119
0.989396
0.990482
0.991414
0.992216
0.992902
0.993482
0.993961
0.994342
0.994626
0.994812
0.9949
0.995285
0.995164
0.99494
0.994613
0.994184
0.993653
0.993017
0.992272
0.991409
0.990413
0.989261
0.987916
0.98632
0.984388
0.981987
0.978937
0.974971
0.969685
0.962453
0.952293
0.937675
0.916379
0.88602
0.847175
0.810413
0.796475
0.815792
0.854289
0.892043
0.92071
0.940657
0.954357
0.963913
0.970747
0.975766
0.979548
0.982468
0.984777
0.986643
0.98819
0.989498
0.99062
0.991591
0.99243
0.993153
0.993766
0.994274
0.994679
0.994981
0.995178
0.995271
0.995256
0.995135
0.994909
0.994579
0.994146
0.99361
0.992967
0.992213
0.99134
0.990331
0.989162
0.987795
0.98617
0.984197
0.981741
0.978615
0.97454
0.969095
0.961627
0.95111
0.935948
0.913859
0.882543
0.843207
0.807709
0.796957
0.819077
0.858244
0.895266
0.922991
0.942214
0.955428
0.964665
0.971288
0.976164
0.979847
0.982698
0.984955
0.986785
0.988305
0.989593
0.990699
0.991657
0.992487
0.993201
0.993808
0.994312
0.994713
0.995011
0.995208
0.995299
0.995595
0.995468
0.995229
0.994881
0.994425
0.99386
0.993185
0.992397
0.991489
0.990448
0.989253
0.987871
0.986248
0.984304
0.981917
0.978922
0.975076
0.970022
0.963226
0.953896
0.94089
0.922754
0.89837
0.869244
0.84331
0.833805
0.847034
0.874441
0.903092
0.926376
0.943511
0.955776
0.964592
0.971036
0.975847
0.979523
0.982398
0.984698
0.98658
0.988156
0.989503
0.990669
0.991684
0.992569
0.993333
0.993984
0.994524
0.994955
0.995276
0.995486
0.995584
0.995569
0.99544
0.995199
0.994848
0.994388
0.993818
0.993136
0.99234
0.991421
0.990367
0.989156
0.987752
0.986101
0.984118
0.981679
0.978612
0.974665
0.969467
0.962463
0.952831
0.93939
0.920676
0.895685
0.866388
0.84146
0.83413
0.849307
0.877339
0.90563
0.928287
0.944878
0.956749
0.965291
0.971547
0.976228
0.979812
0.982621
0.984873
0.986719
0.988269
0.989596
0.990746
0.991749
0.992624
0.99338
0.994025
0.99456
0.994987
0.995305
0.995513
0.995611
0.995854
0.995718
0.995463
0.995092
0.994604
0.993999
0.993278
0.992437
0.99147
0.990367
0.98911
0.987667
0.98599
0.984004
0.981597
0.978616
0.974839
0.969948
0.963493
0.954837
0.943139
0.927491
0.907545
0.885149
0.866288
0.859593
0.868952
0.889056
0.911329
0.930568
0.945471
0.95657
0.964786
0.970928
0.975597
0.979217
0.982085
0.984411
0.986338
0.98797
0.989378
0.990606
0.991683
0.992625
0.993441
0.994136
0.994714
0.995174
0.995517
0.995741
0.995845
0.995829
0.995692
0.995435
0.99506
0.994568
0.993959
0.993231
0.992381
0.991404
0.990288
0.989014
0.98755
0.985845
0.983821
0.981364
0.978315
0.974444
0.969422
0.962783
0.95387
0.941825
0.925755
0.90543
0.883038
0.864983
0.859819
0.870572
0.891233
0.913362
0.932187
0.946682
0.957459
0.965441
0.971416
0.975965
0.979498
0.982304
0.984583
0.986475
0.988082
0.98947
0.990683
0.991747
0.992678
0.993487
0.994176
0.994748
0.995205
0.995544
0.995767
0.99587
0.996083
0.995939
0.995668
0.995272
0.99475
0.994104
0.993332
0.992432
0.991398
0.990222
0.988887
0.987365
0.985614
0.983562
0.98111
0.978116
0.974377
0.969608
0.963444
0.955381
0.944827
0.93127
0.914827
0.897329
0.883269
0.878408
0.88523
0.900329
0.917894
0.9339
0.946912
0.956987
0.964676
0.970564
0.975131
0.978723
0.981612
0.983986
0.985981
0.98769
0.989177
0.990482
0.991631
0.992638
0.993511
0.994255
0.994872
0.995363
0.995728
0.995966
0.996077
0.99606
0.995914
0.995641
0.995242
0.994717
0.994065
0.993286
0.992377
0.991333
0.990143
0.988791
0.987249
0.985469
0.983381
0.980882
0.977823
0.973996
0.969108
0.962783
0.954505
0.943676
0.929816
0.913149
0.89574
0.882323
0.87857
0.886414
0.901992
0.919533
0.935275
0.947984
0.957801
0.96529
0.971029
0.975486
0.978997
0.981826
0.984157
0.986118
0.987801
0.989268
0.990558
0.991694
0.99269
0.993555
0.994293
0.994905
0.995392
0.995754
0.995991
0.996101
0.996299
0.996146
0.995859
0.995439
0.994886
0.994199
0.993376
0.992416
0.991312
0.990056
0.988635
0.987024
0.985183
0.983052
0.980542
0.977521
0.973811
0.969169
0.963291
0.955795
0.946289
0.934546
0.920939
0.907131
0.896477
0.892875
0.897951
0.909467
0.923443
0.9368
0.948154
0.957283
0.964466
0.970103
0.974563
0.978139
0.981061
0.983499
0.985576
0.987374
0.98895
0.99034
0.991566
0.99264
0.993571
0.994363
0.995019
0.99554
0.995926
0.996178
0.996295
0.996277
0.996123
0.995834
0.995411
0.994854
0.994161
0.993331
0.992362
0.991248
0.989978
0.98854
0.986908
0.985041
0.982875
0.980318
0.977237
0.973446
0.968698
0.962679
0.955005
0.945287
0.93333
0.919601
0.905921
0.89578
0.892994
0.898829
0.910749
0.924767
0.937964
0.949099
0.958022
0.965037
0.970544
0.974904
0.978405
0.981271
0.983667
0.985711
0.987484
0.98904
0.990415
0.991628
0.992692
0.993614
0.9944
0.99505
0.995567
0.995951
0.996201
0.996317
0.99651
0.99635
0.996049
0.995608
0.995026
0.994302
0.993434
0.992417
0.991248
0.989918
0.988413
0.986714
0.984785
0.982574
0.980005
0.97696
0.973284
0.968778
0.963197
0.956268
0.947757
0.937633
0.92639
0.915459
0.907318
0.904618
0.908438
0.91729
0.928438
0.939561
0.949419
0.957642
0.964315
0.969689
0.974035
0.977589
0.980543
0.983045
0.985203
0.98709
0.988753
0.990224
0.991522
0.992659
0.993643
0.994479
0.995169
0.995716
0.996122
0.996386
0.996509
0.99649
0.996328
0.996025
0.995581
0.994995
0.994266
0.99339
0.992365
0.991185
0.989841
0.98832
0.9866
0.984644
0.982401
0.979788
0.976687
0.972938
0.968338
0.962637
0.955563
0.946892
0.936624
0.925326
0.914535
0.9068
0.904706
0.909095
0.91828
0.929503
0.940538
0.950242
0.958306
0.964841
0.970103
0.97436
0.977846
0.980747
0.983209
0.985336
0.987199
0.988842
0.990298
0.991583
0.992709
0.993685
0.994514
0.995199
0.995742
0.996145
0.996407
0.996529
0.996723
0.996557
0.996245
0.995788
0.995185
0.994433
0.993529
0.992469
0.991247
0.989855
0.98828
0.986504
0.984498
0.982222
0.979608
0.976557
0.97294
0.968597
0.963345
0.957004
0.949465
0.940822
0.931599
0.922975
0.916748
0.914718
0.917604
0.924411
0.933268
0.942459
0.950934
0.958263
0.964402
0.969481
0.973686
0.977195
0.980164
0.982714
0.984941
0.986904
0.988642
0.990181
0.991539
0.992726
0.993751
0.99462
0.995336
0.995903
0.996323
0.996597
0.996724
0.996704
0.996537
0.996223
0.995763
0.995156
0.994398
0.993488
0.992419
0.991186
0.98978
0.988189
0.986392
0.984362
0.982054
0.9794
0.976298
0.972616
0.968192
0.962841
0.956387
0.94873
0.939996
0.930762
0.922272
0.916364
0.914784
0.918094
0.92517
0.934116
0.943267
0.951639
0.95885
0.964878
0.969863
0.973991
0.97744
0.98036
0.982873
0.98507
0.98701
0.988729
0.990252
0.991597
0.992774
0.993791
0.994653
0.995364
0.995927
0.996344
0.996617
0.996743
0.996943
0.996773
0.996455
0.995989
0.995374
0.994607
0.993683
0.992597
0.991343
0.989911
0.98829
0.986463
0.98441
0.982099
0.979474
0.976455
0.97294
0.96881
0.963941
0.958229
0.951657
0.944392
0.936928
0.930193
0.925464
0.923946
0.926116
0.931313
0.938275
0.945766
0.952938
0.959366
0.964927
0.969659
0.973674
0.977096
0.980041
0.982607
0.984871
0.986882
0.988668
0.990251
0.991646
0.992864
0.993913
0.9948
0.99553
0.996108
0.996537
0.996816
0.996946
0.996926
0.996755
0.996435
0.995966
0.995347
0.994574
0.993644
0.992549
0.991284
0.989839
0.988202
0.986357
0.98428
0.98194
0.979279
0.976215
0.972644
0.968446
0.963497
0.9577
0.951047
0.94373
0.93628
0.929666
0.925182
0.923994
0.926478
0.931886
0.938937
0.94642
0.953529
0.959873
0.965349
0.970005
0.973955
0.977324
0.980226
0.982758
0.984995
0.986984
0.988752
0.99032
0.991702
0.99291
0.993951
0.994831
0.995557
0.996131
0.996556
0.996834
0.996963
0.997172
0.997001
0.996683
0.996217
0.995602
0.994835
0.99391
0.992823
0.991564
0.990125
0.988495
0.986661
0.984607
0.982311
0.979731
0.976804
0.973458
0.969613
0.965195
0.960166
0.954567
0.948595
0.942677
0.937511
0.933973
0.932854
0.934463
0.938371
0.943745
0.949726
0.955661
0.961172
0.966097
0.970412
0.974166
0.977434
0.980296
0.982824
0.985075
0.987088
0.988882
0.990472
0.991872
0.993093
0.994143
0.99503
0.99576
0.996338
0.996766
0.997046
0.997177
0.997156
0.996984
0.996664
0.996195
0.995577
0.994804
0.993874
0.992778
0.991509
0.990058
0.988413
0.986561
0.984485
0.982164
0.979552
0.976586
0.973194
0.969294
0.964816
0.959726
0.954076
0.94808
0.942189
0.937125
0.93377
0.932888
0.934725
0.938795
0.944249
0.95024
0.956142
0.961597
0.96646
0.970716
0.974417
0.977642
0.980467
0.982965
0.985192
0.987184
0.98896
0.990536
0.991925
0.993136
0.994178
0.995059
0.995784
0.996358
0.996784
0.997062
0.997192
0.99741
0.997243
0.99693
0.996474
0.995873
0.995124
0.994222
0.993161
0.991932
0.990528
0.988939
0.987153
0.98516
0.982949
0.980488
0.977735
0.974644
0.97117
0.967283
0.962989
0.958366
0.953602
0.94904
0.945178
0.942593
0.941786
0.942955
0.945825
0.949867
0.954507
0.959274
0.963855
0.968083
0.971899
0.975305
0.978335
0.981035
0.98345
0.98562
0.987573
0.98932
0.99087
0.992236
0.993427
0.994451
0.995317
0.996029
0.996594
0.997013
0.997288
0.997417
0.997396
0.997228
0.996914
0.996455
0.99585
0.995097
0.994189
0.99312
0.991882
0.990467
0.988863
0.987061
0.985049
0.982816
0.980329
0.977544
0.974416
0.970901
0.966971
0.962637
0.957984
0.953214
0.948684
0.944903
0.942451
0.94181
0.943139
0.946128
0.950237
0.954897
0.95965
0.964198
0.968385
0.972158
0.975523
0.978518
0.981187
0.983577
0.985726
0.987661
0.989392
0.990929
0.992284
0.993466
0.994483
0.995343
0.996051
0.996613
0.99703
0.997303
0.997431
0.997659
0.997498
0.997199
0.996763
0.99619
0.995478
0.994623
0.993619
0.992459
0.991135
0.98964
0.987967
0.986108
0.984062
0.981807
0.979319
0.976576
0.973562
0.970277
0.966756
0.963085
0.959426
0.956035
0.953243
0.951413
0.950848
0.951672
0.953715
0.956654
0.960126
0.963811
0.967471
0.97096
0.974201
0.977169
0.979868
0.982314
0.984531
0.986542
0.988365
0.990002
0.99146
0.992748
0.993873
0.994842
0.995663
0.996341
0.996879
0.99728
0.997543
0.997667
0.997647
0.997485
0.997184
0.996746
0.99617
0.995454
0.994593
0.993582
0.992414
0.99108
0.989574
0.987886
0.986011
0.983947
0.98167
0.979158
0.976388
0.973345
0.970032
0.966487
0.962802
0.959148
0.955786
0.953055
0.951317
0.950864
0.951796
0.953923
0.956915
0.960409
0.964092
0.967735
0.971198
0.974411
0.977351
0.980022
0.982445
0.984642
0.986635
0.988442
0.990066
0.991513
0.992791
0.993908
0.994871
0.995686
0.99636
0.996895
0.997294
0.997556
0.997679
0.997918
0.997767
0.997488
0.997083
0.996553
0.995897
0.995112
0.994194
0.993139
0.991941
0.990595
0.989096
0.987442
0.985638
0.98367
0.981531
0.979216
0.976728
0.974087
0.971336
0.968556
0.965872
0.963456
0.961517
0.960269
0.959888
0.960448
0.961848
0.9639
0.966389
0.96911
0.971899
0.97464
0.97726
0.979721
0.982007
0.984116
0.986055
0.987831
0.989454
0.990922
0.992237
0.993404
0.994427
0.995314
0.996067
0.996692
0.997191
0.997564
0.99781
0.997925
0.997907
0.997755
0.997475
0.997068
0.996535
0.995875
0.995086
0.994163
0.993101
0.991894
0.990538
0.989027
0.987361
0.985542
0.983558
0.981402
0.979068
0.976561
0.973903
0.971141
0.968357
0.965681
0.96329
0.961394
0.960207
0.959899
0.960529
0.961985
0.964076
0.966585
0.969311
0.972093
0.97482
0.977423
0.979865
0.982132
0.984224
0.986147
0.98791
0.989521
0.990977
0.992283
0.993441
0.994458
0.995339
0.996088
0.99671
0.997205
0.997576
0.997821
0.997936
0.998184
0.998047
0.997795
0.997431
0.996956
0.996373
0.99568
0.994875
0.993956
0.99292
0.991765
0.990491
0.989097
0.987591
0.985969
0.984233
0.982389
0.980451
0.978446
0.976414
0.974418
0.972546
0.970905
0.969617
0.968801
0.968555
0.96892
0.969839
0.971209
0.972909
0.974819
0.976832
0.978868
0.980868
0.982794
0.984621
0.986338
0.987941
0.989426
0.990797
0.992047
0.993176
0.994186
0.995079
0.995858
0.996525
0.997082
0.997529
0.997864
0.998087
0.998192
0.998175
0.998038
0.997784
0.997418
0.996941
0.996355
0.995658
0.994848
0.993924
0.992881
0.991719
0.990436
0.989033
0.987516
0.985882
0.984134
0.982278
0.98033
0.978316
0.976279
0.974285
0.972421
0.970799
0.96954
0.968763
0.968562
0.96897
0.969925
0.971322
0.973038
0.974954
0.976967
0.978997
0.980988
0.982902
0.984717
0.986423
0.988014
0.989489
0.99085
0.992092
0.993214
0.994218
0.995105
0.995879
0.996543
0.997096
0.997541
0.997875
0.998096
0.998201
0.998458
0.998338
0.998118
0.997803
0.997395
0.996897
0.996311
0.995638
0.994876
0.994027
0.99309
0.992067
0.990962
0.989779
0.988524
0.987202
0.985825
0.984409
0.982978
0.981565
0.980212
0.978975
0.977915
0.977099
0.976589
0.976437
0.976665
0.977242
0.978113
0.979217
0.980485
0.981857
0.983281
0.984715
0.986128
0.987498
0.98881
0.990054
0.991223
0.992313
0.993318
0.994237
0.995067
0.995809
0.996462
0.997027
0.997503
0.997888
0.998179
0.998373
0.998465
0.99845
0.99833
0.998109
0.997792
0.997383
0.996883
0.996294
0.995616
0.99485
0.993996
0.993054
0.992025
0.990913
0.989723
0.98846
0.98713
0.985747
0.984325
0.982891
0.981477
0.980127
0.978898
0.977851
0.977053
0.976567
0.976441
0.976695
0.977293
0.978182
0.979297
0.980572
0.981946
0.983368
0.984797
0.986205
0.987568
0.988873
0.990109
0.991271
0.992354
0.993354
0.994267
0.995092
0.99583
0.99648
0.997042
0.997515
0.997898
0.998188
0.998381
0.998473
0.998736
0.998636
0.998453
0.998193
0.99786
0.997457
0.996987
0.996454
0.995859
0.995204
0.994491
0.993723
0.992904
0.992037
0.99113
0.990191
0.989232
0.988266
0.987311
0.986389
0.985527
0.984755
0.984106
0.983615
0.983311
0.983221
0.983357
0.983701
0.984229
0.984906
0.985701
0.98658
0.987513
0.988475
0.989443
0.990402
0.991337
0.992238
0.993097
0.993907
0.994665
0.995366
0.996008
0.996589
0.997108
0.997562
0.997948
0.998263
0.998504
0.998666
0.998743
0.99873
0.99863
0.998446
0.998185
0.99785
0.997445
0.996974
0.996438
0.99584
0.995181
0.994465
0.993693
0.992869
0.991997
0.991085
0.990143
0.98918
0.988212
0.987256
0.986335
0.985476
0.984709
0.984069
0.983588
0.983298
0.983223
0.983374
0.983731
0.984269
0.984954
0.985754
0.986636
0.987569
0.988529
0.989494
0.990449
0.99138
0.992277
0.993132
0.993938
0.994691
0.995388
0.996027
0.996605
0.997122
0.997573
0.997957
0.998271
0.998511
0.998672
0.998749
0.999018
0.998939
0.998797
0.998596
0.99834
0.998035
0.997685
0.997292
0.996861
0.996393
0.995892
0.995359
0.994799
0.994212
0.993607
0.992992
0.992374
0.991765
0.991174
0.990615
0.990102
0.989651
0.989278
0.988999
0.988828
0.988778
0.988854
0.989049
0.989349
0.98974
0.990206
0.990731
0.991299
0.991896
0.99251
0.99313
0.993745
0.994348
0.99493
0.995486
0.996013
0.996508
0.996968
0.997392
0.997775
0.998115
0.998408
0.99865
0.998836
0.998963
0.999023
0.999013
0.998935
0.998792
0.998589
0.998333
0.998027
0.997675
0.997281
0.996847
0.996377
0.995873
0.995338
0.994775
0.994186
0.993579
0.992961
0.992342
0.991732
0.991141
0.990583
0.990073
0.989625
0.989258
0.988985
0.988821
0.988779
0.988863
0.989065
0.989371
0.989767
0.990236
0.990763
0.991332
0.991929
0.992542
0.99316
0.993773
0.994374
0.994953
0.995507
0.996031
0.996524
0.996982
0.997403
0.997785
0.998123
0.998415
0.998656
0.998842
0.998967
0.999028
0.9993
0.999244
0.999144
0.999003
0.998826
0.998618
0.998382
0.998122
0.99784
0.99754
0.997224
0.996894
0.99655
0.996194
0.995832
0.995469
0.995111
0.994764
0.994434
0.994126
0.993848
0.993608
0.993412
0.993266
0.993178
0.993152
0.993191
0.993292
0.993449
0.993655
0.993905
0.99419
0.994503
0.994839
0.99519
0.99555
0.995914
0.996276
0.996631
0.996973
0.997301
0.997614
0.99791
0.998187
0.998442
0.998672
0.998873
0.999041
0.999172
0.999261
0.999304
0.999297
0.999241
0.99914
0.998999
0.998821
0.998612
0.998375
0.998114
0.997831
0.99753
0.997213
0.996881
0.996536
0.996179
0.995815
0.995452
0.995093
0.994746
0.994416
0.994109
0.993833
0.993595
0.993401
0.993259
0.993174
0.993152
0.993196
0.9933
0.99346
0.993669
0.993921
0.994207
0.994522
0.994857
0.995208
0.995568
0.995931
0.996292
0.996645
0.996985
0.997312
0.997624
0.997919
0.998195
0.998449
0.998677
0.998878
0.999045
0.999175
0.999264
0.999307
0.999582
0.999549
0.99949
0.999408
0.999307
0.999189
0.999058
0.998915
0.998764
0.998606
0.998442
0.998274
0.998101
0.997922
0.997742
0.997564
0.997392
0.997227
0.997072
0.996931
0.996804
0.996696
0.996609
0.996545
0.996506
0.996494
0.996512
0.996556
0.996625
0.996717
0.99683
0.99696
0.997105
0.997262
0.997429
0.997604
0.997782
0.997963
0.998141
0.998314
0.998482
0.998645
0.998802
0.998951
0.999091
0.999219
0.999333
0.99943
0.999506
0.999559
0.999584
0.99958
0.999547
0.999488
0.999406
0.999304
0.999186
0.999054
0.998911
0.99876
0.998601
0.998437
0.998267
0.998093
0.997914
0.997733
0.997556
0.997383
0.997218
0.997064
0.996923
0.996797
0.99669
0.996604
0.996541
0.996504
0.996495
0.996514
0.99656
0.99663
0.996724
0.996837
0.996968
0.997113
0.997271
0.997438
0.997612
0.99779
0.99797
0.998148
0.99832
0.998487
0.99865
0.998806
0.998955
0.999095
0.999222
0.999336
0.999432
0.999508
0.999561
0.999586
0.999861
0.99985
0.999831
0.999805
0.999773
0.999736
0.999696
0.999654
0.99961
0.999564
0.999518
0.999472
0.999424
0.999374
0.999324
0.999276
0.99923
0.999186
0.999145
0.999108
0.999076
0.999048
0.999026
0.99901
0.999
0.998997
0.999002
0.999013
0.99903
0.999054
0.999082
0.999116
0.999154
0.999195
0.99924
0.999287
0.999336
0.999385
0.999435
0.999483
0.999529
0.999575
0.999621
0.999665
0.999707
0.999746
0.999781
0.999812
0.999836
0.999853
0.999862
0.99986
0.999849
0.99983
0.999804
0.999772
0.999736
0.999695
0.999653
0.999608
0.999563
0.999517
0.99947
0.999422
0.999372
0.999322
0.999274
0.999227
0.999183
0.999143
0.999106
0.999074
0.999047
0.999025
0.999009
0.999
0.998997
0.999002
0.999014
0.999032
0.999055
0.999084
0.999118
0.999156
0.999197
0.999242
0.999289
0.999338
0.999388
0.999437
0.999484
0.999531
0.999577
0.999622
0.999666
0.999708
0.999747
0.999782
0.999813
0.999837
0.999854
0.999862
)
;

boundaryField
{
    top
    {
        type            calculated;
        value           uniform 1;
    }
    bottom
    {
        type            calculated;
        value           uniform 0.148957;
    }
    frontAndBack
    {
        type            empty;
    }
    left_cyc
    {
        type            cyclic;
    }
    right_cyc
    {
        type            cyclic;
    }
}


// ************************************************************************* //
