/*--------------------------------*- C++ -*----------------------------------*\
| =========                 |                                                 |
| \\      /  F ield         | OpenFOAM: The Open Source CFD Toolbox           |
|  \\    /   O peration     | Version:  2.3.0                                 |
|   \\  /    A nd           | Web:      www.OpenFOAM.org                      |
|    \\/     M anipulation  |                                                 |
\*---------------------------------------------------------------------------*/
FoamFile
{
    version     2.0;
    format      ascii;
    class       volScalarField;
    location    "19000";
    object      NUEff;
}
// * * * * * * * * * * * * * * * * * * * * * * * * * * * * * * * * * * * * * //

dimensions      [0 2 -1 0 0 0 0];

internalField   nonuniform List<scalar> 
3060
(
0.175157
0.174964
0.174612
0.174113
0.173482
0.172732
0.171876
0.170926
0.169894
0.168788
0.167614
0.16638
0.165098
0.163804
0.162528
0.16127
0.160033
0.158827
0.157671
0.156588
0.155602
0.154739
0.154026
0.153492
0.153164
0.153066
0.153209
0.153578
0.154148
0.154892
0.155781
0.156788
0.157888
0.159056
0.16027
0.161514
0.162777
0.164061
0.16536
0.166637
0.167861
0.169023
0.170115
0.17113
0.172059
0.172891
0.173613
0.174211
0.174673
0.174983
0.175131
0.175107
0.174914
0.174561
0.17406
0.173427
0.172673
0.171814
0.17086
0.169823
0.168712
0.167532
0.166292
0.165005
0.163709
0.162431
0.161173
0.159936
0.158732
0.157579
0.156502
0.155524
0.154672
0.153973
0.153456
0.153146
0.153069
0.153232
0.153619
0.154204
0.154961
0.155861
0.156876
0.157981
0.159153
0.160368
0.161611
0.162874
0.164156
0.165453
0.166723
0.167942
0.169098
0.170185
0.171195
0.17212
0.172949
0.173668
0.174264
0.174723
0.175033
0.17518
0.635998
0.628362
0.614089
0.593147
0.565626
0.532038
0.4936
0.452317
0.410673
0.37101
0.334987
0.303402
0.27637
0.253598
0.235004
0.219868
0.207374
0.197015
0.188446
0.181411
0.175702
0.171168
0.167705
0.165255
0.163804
0.163376
0.164
0.165641
0.168281
0.171943
0.176694
0.182645
0.189963
0.198861
0.209613
0.222591
0.23835
0.257824
0.281462
0.309452
0.342014
0.378906
0.41914
0.46087
0.501657
0.539072
0.571268
0.597198
0.616467
0.629027
0.634894
0.633951
0.626248
0.611854
0.590748
0.56304
0.529277
0.490723
0.449424
0.407879
0.368413
0.332647
0.301344
0.274588
0.252074
0.233744
0.218807
0.206477
0.196259
0.187815
0.18089
0.17528
0.170837
0.167459
0.165093
0.163728
0.163389
0.164101
0.165826
0.168551
0.1723
0.177143
0.183197
0.190629
0.199657
0.210558
0.223708
0.239677
0.259427
0.283329
0.311598
0.344439
0.381579
0.421987
0.463785
0.504525
0.541802
0.573814
0.599558
0.61867
0.63112
0.636934
0.940658
0.939915
0.938512
0.936403
0.933502
0.929666
0.924675
0.918187
0.90967
0.898262
0.882524
0.859909
0.825699
0.770986
0.681409
0.553489
0.423028
0.330047
0.272692
0.237158
0.214226
0.198948
0.188699
0.182077
0.17837
0.1773
0.178862
0.183088
0.190327
0.201398
0.217886
0.242755
0.281612
0.344745
0.445955
0.580343
0.702164
0.784078
0.833832
0.865218
0.886175
0.90088
0.911603
0.919641
0.925775
0.93049
0.9341
0.936806
0.938737
0.93997
0.940541
0.94045
0.939698
0.938279
0.936145
0.933207
0.929319
0.924252
0.917655
0.908976
0.897321
0.881188
0.857913
0.822535
0.765714
0.672875
0.542647
0.414037
0.324265
0.269112
0.234863
0.2127
0.197915
0.18801
0.181655
0.178177
0.177331
0.179116
0.183579
0.191101
0.202549
0.21959
0.245342
0.285698
0.351363
0.455842
0.591013
0.709825
0.788686
0.836621
0.867004
0.887388
0.901747
0.912249
0.920142
0.926176
0.930823
0.934384
0.937056
0.938964
0.940184
0.940749
0.971862
0.971558
0.97099
0.970147
0.969006
0.967531
0.965667
0.963331
0.960402
0.956702
0.951957
0.945741
0.937356
0.925593
0.908207
0.880905
0.833808
0.744273
0.582769
0.408136
0.304739
0.251831
0.223141
0.207062
0.198787
0.196483
0.199858
0.209403
0.227371
0.259448
0.319373
0.436532
0.618694
0.766479
0.845276
0.887351
0.912221
0.928274
0.93925
0.947136
0.953016
0.957523
0.961048
0.96384
0.966067
0.96784
0.969235
0.970303
0.971077
0.971577
0.97181
0.971773
0.971467
0.970893
0.97004
0.968887
0.967395
0.965506
0.963137
0.960163
0.956399
0.951563
0.945212
0.936617
0.924513
0.906534
0.878102
0.828623
0.734005
0.567023
0.396686
0.298847
0.248702
0.221382
0.206093
0.19837
0.19655
0.200415
0.210557
0.229428
0.263146
0.326474
0.449868
0.633668
0.775046
0.849639
0.889789
0.91373
0.929251
0.939926
0.947625
0.953383
0.957807
0.961273
0.964025
0.966221
0.967972
0.96935
0.970407
0.971173
0.971668
0.971899
0.982605
0.982413
0.982056
0.981529
0.98082
0.979914
0.978781
0.977383
0.975663
0.973538
0.97089
0.967537
0.963208
0.957465
0.949584
0.938273
0.921044
0.892581
0.840071
0.73147
0.536354
0.36749
0.284792
0.24617
0.228488
0.22381
0.230695
0.251431
0.2959
0.391765
0.576834
0.758856
0.853073
0.899353
0.925023
0.940833
0.951343
0.958738
0.964163
0.968274
0.97147
0.974002
0.976036
0.977683
0.97902
0.9801
0.98096
0.981624
0.982109
0.982423
0.982571
0.982547
0.982354
0.981993
0.98146
0.980745
0.979828
0.978681
0.977265
0.975521
0.973363
0.970669
0.967252
0.962829
0.956946
0.948844
0.937164
0.919265
0.88945
0.833853
0.718254
0.518743
0.357702
0.280272
0.244018
0.227631
0.223945
0.231856
0.254077
0.301467
0.403807
0.59484
0.76972
0.858168
0.90201
0.926578
0.941823
0.952013
0.959214
0.964513
0.96854
0.971677
0.974168
0.976171
0.977796
0.979116
0.980184
0.981034
0.981691
0.982171
0.982482
0.982628
0.987799
0.987654
0.987383
0.986983
0.98645
0.985771
0.98493
0.983901
0.982651
0.981127
0.979256
0.976932
0.973995
0.970202
0.965168
0.958225
0.948235
0.933034
0.908054
0.862386
0.767907
0.583885
0.401048
0.310746
0.273621
0.264375
0.278062
0.322398
0.428023
0.624353
0.791826
0.873597
0.913945
0.936517
0.95048
0.959765
0.966274
0.971031
0.974634
0.977436
0.979661
0.981455
0.982919
0.98412
0.985105
0.985909
0.986553
0.987054
0.987422
0.987661
0.987773
0.987755
0.987608
0.987334
0.986931
0.986392
0.985705
0.984855
0.983814
0.982546
0.981
0.979099
0.976733
0.973737
0.969859
0.964697
0.957554
0.947232
0.931436
0.905271
0.856925
0.756077
0.565577
0.390058
0.30604
0.271904
0.264639
0.280429
0.328376
0.441534
0.642131
0.801412
0.87808
0.916311
0.937913
0.951373
0.960368
0.966699
0.971346
0.974874
0.977623
0.979809
0.981576
0.983019
0.984204
0.985178
0.985972
0.98661
0.987106
0.98747
0.987706
0.987817
0.99072
0.990596
0.990366
0.990029
0.989579
0.989011
0.988312
0.987464
0.986443
0.985211
0.983715
0.981881
0.979594
0.976687
0.972899
0.967789
0.960659
0.950273
0.934247
0.90752
0.858087
0.756982
0.576903
0.417314
0.344456
0.326829
0.353034
0.440103
0.614239
0.782097
0.870192
0.913822
0.937916
0.952603
0.962237
0.96891
0.973727
0.977317
0.980087
0.982275
0.984036
0.985474
0.98666
0.987643
0.988458
0.989127
0.989667
0.990089
0.9904
0.990603
0.990698
0.990682
0.990558
0.990325
0.989985
0.989531
0.988957
0.98825
0.987392
0.986357
0.985107
0.983589
0.981723
0.979393
0.976424
0.972545
0.967298
0.959952
0.949204
0.932524
0.904483
0.852102
0.744537
0.560174
0.408017
0.341148
0.327327
0.357645
0.451694
0.631177
0.792388
0.875109
0.916397
0.939417
0.953552
0.962874
0.969357
0.974051
0.977561
0.980276
0.982424
0.984156
0.985573
0.986742
0.987713
0.988518
0.98918
0.989714
0.990132
0.99044
0.990641
0.990735
0.992502
0.992389
0.992179
0.991872
0.991464
0.990951
0.990325
0.989571
0.98867
0.987594
0.986301
0.984731
0.982795
0.98036
0.977225
0.973057
0.967357
0.959275
0.947273
0.928351
0.896128
0.836183
0.721806
0.561358
0.451414
0.421921
0.465479
0.590583
0.748562
0.85072
0.90374
0.932696
0.94997
0.961063
0.968606
0.973964
0.977905
0.980884
0.983209
0.985066
0.986577
0.987823
0.988861
0.98973
0.990455
0.991056
0.991544
0.991928
0.992211
0.992396
0.992483
0.992469
0.992355
0.992143
0.991833
0.991421
0.990903
0.99027
0.989507
0.988595
0.987504
0.986192
0.984595
0.982624
0.980139
0.976931
0.972658
0.966796
0.958453
0.946008
0.926269
0.892401
0.828957
0.708865
0.548672
0.445921
0.422763
0.472957
0.604521
0.759967
0.856724
0.90689
0.934499
0.951087
0.9618
0.969115
0.97433
0.978176
0.98109
0.98337
0.985194
0.986681
0.987909
0.988933
0.989791
0.990509
0.991103
0.991586
0.991966
0.992246
0.99243
0.992516
0.993648
0.993539
0.993336
0.99304
0.99265
0.99216
0.991567
0.990858
0.990018
0.989024
0.987842
0.986419
0.984683
0.982519
0.979756
0.976128
0.971238
0.964437
0.954603
0.939685
0.915696
0.874583
0.801723
0.688559
0.581616
0.546107
0.59744
0.711752
0.818644
0.884224
0.921215
0.943048
0.956784
0.965927
0.972301
0.976912
0.980352
0.982982
0.985053
0.986723
0.988094
0.989236
0.990197
0.991008
0.991692
0.992262
0.992728
0.993096
0.993369
0.993548
0.993632
0.993618
0.993508
0.993304
0.993005
0.99261
0.992116
0.991516
0.990799
0.98995
0.988943
0.987743
0.986298
0.98453
0.982323
0.979499
0.975781
0.970759
0.963752
0.953581
0.93808
0.913016
0.869839
0.793452
0.677923
0.575235
0.547167
0.605576
0.722279
0.825842
0.888267
0.923531
0.944459
0.957696
0.966547
0.972738
0.977231
0.980591
0.983165
0.985197
0.986838
0.988188
0.989314
0.990263
0.991065
0.991741
0.992305
0.992767
0.993131
0.993401
0.993579
0.993662
0.994416
0.994306
0.994103
0.993806
0.993415
0.992928
0.992341
0.991645
0.990828
0.989869
0.98874
0.987395
0.985769
0.98376
0.981217
0.977913
0.973515
0.967493
0.958965
0.946406
0.927076
0.89602
0.845376
0.770308
0.693015
0.663884
0.70532
0.785841
0.856789
0.903097
0.931434
0.949198
0.960838
0.968803
0.974465
0.978623
0.981763
0.984189
0.986116
0.987682
0.988982
0.990075
0.991004
0.991795
0.992467
0.993032
0.993496
0.993864
0.994138
0.994317
0.994402
0.994388
0.994278
0.994072
0.993773
0.993378
0.992887
0.992294
0.99159
0.990764
0.989793
0.988648
0.987282
0.985627
0.98358
0.980981
0.977599
0.973087
0.966891
0.958089
0.945079
0.924975
0.892575
0.839845
0.763092
0.68794
0.664789
0.711501
0.792827
0.861697
0.906103
0.93328
0.950379
0.961626
0.96935
0.974858
0.978913
0.981982
0.984358
0.986249
0.98779
0.98907
0.990148
0.991065
0.991848
0.992513
0.993072
0.993532
0.993897
0.994168
0.994346
0.99443
0.994952
0.994839
0.994628
0.994321
0.993918
0.993419
0.992819
0.992112
0.991289
0.990333
0.989217
0.987902
0.986326
0.984399
0.98198
0.978872
0.974783
0.969262
0.961583
0.950558
0.934197
0.909285
0.871549
0.819735
0.76794
0.748067
0.776244
0.830216
0.879798
0.914827
0.937825
0.952981
0.963256
0.970456
0.975662
0.979538
0.982497
0.98481
0.986663
0.988184
0.989458
0.99054
0.991469
0.992267
0.99295
0.993528
0.994005
0.994384
0.994667
0.994853
0.99494
0.994926
0.994812
0.994599
0.99429
0.993884
0.993379
0.992774
0.99206
0.991228
0.99026
0.989129
0.987794
0.986192
0.984228
0.981759
0.978579
0.974388
0.968715
0.960804
0.949412
0.932461
0.906615
0.8676
0.814896
0.764506
0.748691
0.780393
0.834954
0.883384
0.917203
0.939372
0.95401
0.963962
0.970955
0.976026
0.979809
0.982704
0.98497
0.98679
0.988286
0.989542
0.99061
0.991528
0.992317
0.992994
0.993566
0.994039
0.994415
0.994695
0.99488
0.994966
0.995345
0.995226
0.995004
0.99468
0.994257
0.993732
0.993104
0.99237
0.991519
0.990539
0.989406
0.988084
0.986516
0.984618
0.982259
0.979264
0.97537
0.970182
0.96309
0.953141
0.938856
0.918107
0.888645
0.851121
0.815776
0.80255
0.821355
0.858504
0.894913
0.92263
0.941979
0.955307
0.964625
0.971299
0.976205
0.979905
0.982764
0.985024
0.986853
0.988369
0.989653
0.990754
0.991708
0.992534
0.993245
0.99385
0.994351
0.99475
0.995048
0.995243
0.995335
0.99532
0.9952
0.994976
0.994651
0.994223
0.993694
0.993061
0.992319
0.99146
0.990468
0.989321
0.987979
0.986386
0.984453
0.982047
0.978986
0.974998
0.969674
0.96238
0.952125
0.937375
0.915953
0.885685
0.847755
0.813484
0.802962
0.824145
0.861863
0.897658
0.924579
0.943315
0.956228
0.965272
0.971765
0.976548
0.980163
0.982962
0.985179
0.986975
0.988469
0.989734
0.990822
0.991765
0.992582
0.993287
0.993886
0.994383
0.994779
0.995075
0.995269
0.995359
0.995651
0.995524
0.995288
0.994943
0.994492
0.993934
0.993267
0.99249
0.991595
0.99057
0.989395
0.988037
0.986444
0.984534
0.982191
0.979251
0.975477
0.970517
0.963854
0.954717
0.941999
0.924311
0.900607
0.872402
0.847408
0.83837
0.851278
0.877809
0.905532
0.928098
0.944746
0.956689
0.965289
0.971582
0.976285
0.979881
0.982694
0.984946
0.986789
0.988334
0.989655
0.990799
0.991797
0.992667
0.993421
0.994062
0.994596
0.995021
0.995338
0.995546
0.995643
0.995627
0.9955
0.995262
0.994915
0.99446
0.993897
0.993225
0.992441
0.991537
0.990501
0.989312
0.987935
0.986316
0.984374
0.981985
0.978983
0.975122
0.970039
0.963197
0.9538
0.940712
0.922532
0.898316
0.869972
0.845836
0.838649
0.853213
0.880279
0.907698
0.929735
0.94592
0.957526
0.965891
0.972023
0.976614
0.98013
0.982886
0.985097
0.986909
0.988431
0.989735
0.990866
0.991853
0.992715
0.993461
0.994098
0.994626
0.995048
0.995363
0.99557
0.995666
0.995905
0.99577
0.995517
0.995149
0.994666
0.994069
0.993356
0.992526
0.991573
0.990487
0.98925
0.987833
0.986186
0.984236
0.981874
0.978949
0.975244
0.970447
0.964117
0.955637
0.944192
0.928915
0.909495
0.887749
0.869518
0.863133
0.872293
0.891823
0.913449
0.932136
0.946637
0.957455
0.965474
0.971474
0.976038
0.979577
0.982383
0.984659
0.986546
0.988146
0.989527
0.990734
0.991792
0.992719
0.993524
0.99421
0.994781
0.995236
0.995574
0.995796
0.9959
0.995883
0.995747
0.995493
0.995123
0.994636
0.994034
0.993315
0.992478
0.991516
0.990419
0.989167
0.987731
0.98606
0.984078
0.981673
0.978689
0.974903
0.969993
0.963505
0.954805
0.943064
0.927427
0.907686
0.885947
0.868406
0.863328
0.873676
0.893685
0.915189
0.933525
0.947678
0.958221
0.966038
0.971895
0.976355
0.979819
0.982572
0.984808
0.986665
0.988243
0.989607
0.9908
0.991848
0.992766
0.993563
0.994244
0.99481
0.995262
0.995598
0.995818
0.995921
0.99613
0.995987
0.995718
0.995325
0.994809
0.99417
0.993406
0.992517
0.991498
0.990339
0.989025
0.98753
0.985809
0.983795
0.98139
0.978453
0.974786
0.970109
0.964063
0.95616
0.945827
0.932574
0.916533
0.899504
0.885873
0.881223
0.887922
0.90264
0.919742
0.935329
0.948013
0.957844
0.965355
0.971111
0.975573
0.979086
0.981911
0.984235
0.986189
0.987865
0.989324
0.990607
0.991737
0.992729
0.99359
0.994325
0.994935
0.995421
0.995782
0.996018
0.996128
0.99611
0.995966
0.995695
0.9953
0.99478
0.994136
0.993367
0.99247
0.991441
0.990271
0.988942
0.987429
0.985685
0.983639
0.981193
0.9782
0.974457
0.969677
0.963492
0.955405
0.944836
0.931324
0.915093
0.898143
0.885065
0.881364
0.888936
0.904066
0.921149
0.936511
0.948936
0.958545
0.965884
0.971513
0.975879
0.979322
0.982096
0.984382
0.986307
0.987961
0.989403
0.990672
0.991791
0.992774
0.993628
0.994358
0.994963
0.995446
0.995804
0.996039
0.996148
0.996342
0.996191
0.995906
0.99549
0.994941
0.99426
0.993446
0.992497
0.991407
0.99017
0.988769
0.987184
0.985376
0.983284
0.98082
0.977856
0.974217
0.969664
0.963896
0.956546
0.94723
0.935733
0.922431
0.908961
0.898601
0.895143
0.900144
0.911407
0.925055
0.938096
0.949185
0.958105
0.965127
0.97064
0.975001
0.978499
0.981358
0.983746
0.985781
0.987545
0.989092
0.990461
0.991667
0.992726
0.993646
0.994429
0.995078
0.995593
0.995976
0.996226
0.996342
0.996324
0.996171
0.995885
0.995465
0.994913
0.994228
0.993407
0.99245
0.991351
0.990102
0.988687
0.987084
0.985253
0.98313
0.980627
0.977611
0.973902
0.969257
0.963368
0.955864
0.946365
0.934686
0.921281
0.907921
0.898004
0.895247
0.9009
0.91251
0.926195
0.939098
0.949999
0.958743
0.96562
0.971021
0.975295
0.978729
0.98154
0.983891
0.985898
0.98764
0.989171
0.990525
0.991721
0.992771
0.993683
0.99446
0.995105
0.995617
0.995997
0.996246
0.996361
0.99655
0.996391
0.996092
0.995654
0.995077
0.994359
0.993499
0.992493
0.991337
0.990024
0.988541
0.986867
0.98497
0.982799
0.980275
0.977286
0.973679
0.969256
0.963776
0.956975
0.948623
0.938695
0.927679
0.916987
0.909045
0.906443
0.91022
0.918908
0.929828
0.940717
0.950365
0.958414
0.964946
0.970207
0.97446
0.977939
0.980832
0.983284
0.985401
0.987254
0.988889
0.990338
0.991618
0.99274
0.993713
0.99454
0.995224
0.995766
0.996168
0.99643
0.996552
0.996533
0.996372
0.996072
0.995631
0.99505
0.994328
0.993461
0.992448
0.991283
0.989958
0.98846
0.986769
0.984849
0.982649
0.980088
0.977051
0.97338
0.968875
0.963293
0.956366
0.947876
0.937824
0.926762
0.91619
0.908599
0.90652
0.910787
0.919762
0.930748
0.94156
0.951076
0.958987
0.9654
0.970564
0.974741
0.978161
0.981009
0.983426
0.985516
0.987348
0.988966
0.990401
0.99167
0.992784
0.993749
0.99457
0.995249
0.995788
0.996188
0.996449
0.99657
0.99676
0.996595
0.996285
0.995831
0.995231
0.994485
0.993588
0.992538
0.991328
0.989952
0.988397
0.986646
0.984671
0.982432
0.979862
0.976864
0.97331
0.969042
0.96388
0.957647
0.950235
0.941741
0.932681
0.924218
0.918123
0.916159
0.919023
0.925728
0.934434
0.943459
0.951775
0.958964
0.964984
0.969964
0.974085
0.977525
0.980436
0.982938
0.985125
0.987056
0.988767
0.990285
0.991626
0.9928
0.993815
0.994676
0.995386
0.995949
0.996366
0.996638
0.996764
0.996744
0.996578
0.996266
0.995809
0.995206
0.994455
0.993552
0.992494
0.991275
0.989887
0.988318
0.986549
0.984553
0.982287
0.979682
0.97664
0.97303
0.968691
0.963444
0.957112
0.949599
0.941026
0.931956
0.923611
0.917791
0.916217
0.919448
0.926386
0.935168
0.944159
0.952386
0.959472
0.965396
0.970294
0.974349
0.977737
0.980606
0.983076
0.985238
0.987148
0.988843
0.990347
0.991677
0.992842
0.99385
0.994705
0.99541
0.99597
0.996384
0.996655
0.99678
0.996977
0.996808
0.996491
0.996028
0.995416
0.994653
0.993735
0.992658
0.991414
0.989996
0.988392
0.986588
0.984563
0.982285
0.9797
0.976728
0.973269
0.969203
0.964407
0.958781
0.952305
0.945145
0.93779
0.931158
0.92651
0.925035
0.927196
0.932336
0.939206
0.946588
0.953648
0.959971
0.965436
0.970086
0.97403
0.97739
0.980284
0.982807
0.985036
0.987017
0.98878
0.990344
0.991724
0.99293
0.99397
0.99485
0.995576
0.99615
0.996576
0.996853
0.996983
0.996962
0.996792
0.996474
0.996008
0.995392
0.994625
0.993701
0.992616
0.991363
0.989934
0.988316
0.986496
0.98445
0.982147
0.979531
0.97652
0.973011
0.968887
0.964023
0.958322
0.951775
0.94457
0.937227
0.9307
0.926266
0.925077
0.927512
0.932836
0.939782
0.947157
0.954162
0.960411
0.965803
0.970387
0.974274
0.977588
0.980445
0.982938
0.985143
0.987105
0.988852
0.990403
0.991772
0.99297
0.994003
0.994878
0.995599
0.996169
0.996593
0.996869
0.996997
0.997202
0.997032
0.996715
0.996251
0.995638
0.994875
0.993955
0.992874
0.991623
0.990195
0.98858
0.986764
0.984732
0.982464
0.979916
0.977028
0.973727
0.969932
0.965569
0.960601
0.955067
0.949161
0.943307
0.938198
0.934706
0.933613
0.935223
0.939106
0.944432
0.950349
0.956215
0.961654
0.96651
0.970762
0.97446
0.977679
0.980499
0.982991
0.985212
0.987201
0.988975
0.99055
0.991938
0.99315
0.994193
0.995074
0.9958
0.996375
0.996801
0.99708
0.99721
0.997189
0.997018
0.996699
0.996233
0.995617
0.994849
0.993923
0.992835
0.991576
0.990137
0.988508
0.986677
0.984626
0.982336
0.979761
0.976839
0.973497
0.969654
0.96524
0.960217
0.954638
0.948711
0.942881
0.937861
0.934529
0.933643
0.935453
0.939476
0.944872
0.950799
0.956634
0.962024
0.966826
0.971027
0.974679
0.97786
0.980648
0.983113
0.985314
0.987284
0.989043
0.990606
0.991984
0.993187
0.994223
0.995099
0.995821
0.996393
0.996817
0.997094
0.997223
0.997438
0.99727
0.996959
0.996504
0.995904
0.995158
0.994259
0.993201
0.991979
0.990582
0.989002
0.987229
0.985251
0.983061
0.980623
0.977897
0.974837
0.971397
0.967546
0.963288
0.9587
0.953969
0.949437
0.9456
0.943035
0.942243
0.943418
0.946283
0.950309
0.954922
0.959653
0.964194
0.968381
0.972156
0.975523
0.978518
0.981187
0.983576
0.985724
0.98766
0.989392
0.990932
0.992289
0.993473
0.994493
0.995354
0.996064
0.996627
0.997045
0.997318
0.997446
0.997426
0.997258
0.996945
0.996487
0.995885
0.995134
0.994229
0.993166
0.991935
0.990528
0.988936
0.987149
0.985155
0.982945
0.980484
0.977731
0.974638
0.971162
0.967273
0.96298
0.958366
0.953629
0.949125
0.945359
0.942911
0.942264
0.94358
0.94655
0.950634
0.955264
0.959983
0.964494
0.968644
0.972381
0.975713
0.978677
0.98132
0.983686
0.985817
0.987736
0.989455
0.990983
0.992331
0.993508
0.994521
0.995377
0.996083
0.996643
0.997059
0.997331
0.997458
0.997684
0.997522
0.997223
0.996788
0.996216
0.995505
0.994651
0.993649
0.992491
0.991171
0.989681
0.988014
0.986164
0.984129
0.981887
0.979414
0.976688
0.973691
0.970422
0.966915
0.963256
0.959606
0.95622
0.953431
0.951606
0.951049
0.951881
0.953931
0.956873
0.960343
0.964019
0.967665
0.971135
0.974356
0.977304
0.979982
0.98241
0.984612
0.986611
0.988423
0.990052
0.991504
0.992787
0.993908
0.994875
0.995694
0.99637
0.996907
0.997307
0.997569
0.997693
0.997673
0.997511
0.997211
0.996773
0.996199
0.995484
0.994625
0.993617
0.992452
0.991123
0.989623
0.987944
0.98608
0.984029
0.981768
0.979273
0.976523
0.9735
0.970207
0.966678
0.963006
0.95936
0.956
0.953266
0.951522
0.951063
0.951991
0.954115
0.957104
0.960593
0.964267
0.967897
0.971345
0.974541
0.977463
0.980118
0.982526
0.984709
0.986692
0.988491
0.990108
0.99155
0.992825
0.993939
0.9949
0.995714
0.996387
0.996921
0.997319
0.997581
0.997703
0.997939
0.997788
0.997508
0.997103
0.996573
0.995917
0.995132
0.994214
0.993159
0.991961
0.990615
0.989117
0.987465
0.985663
0.983699
0.981564
0.979252
0.976767
0.974127
0.971375
0.96859
0.965899
0.963474
0.961528
0.960277
0.959899
0.960468
0.961879
0.963945
0.966445
0.969173
0.971965
0.974706
0.977322
0.979778
0.982057
0.984161
0.986094
0.987866
0.989486
0.990951
0.992264
0.99343
0.994452
0.995338
0.996091
0.996716
0.997214
0.997587
0.997832
0.997948
0.99793
0.997778
0.997497
0.99709
0.996558
0.995898
0.995109
0.994186
0.993125
0.99192
0.990565
0.989057
0.987394
0.98558
0.983601
0.98145
0.979122
0.97662
0.973965
0.971202
0.968413
0.965729
0.963327
0.961419
0.960223
0.959909
0.96054
0.962002
0.964101
0.966618
0.969351
0.972137
0.974865
0.977466
0.979904
0.982168
0.984256
0.986175
0.987935
0.989544
0.991
0.992304
0.993462
0.994479
0.99536
0.996109
0.996731
0.997227
0.997598
0.997842
0.997957
0.998202
0.998065
0.997812
0.997447
0.996972
0.996387
0.995692
0.994885
0.993964
0.992926
0.991768
0.99049
0.989094
0.987584
0.985958
0.984218
0.982369
0.980425
0.97841
0.976368
0.97436
0.972474
0.97082
0.969521
0.9687
0.968454
0.968826
0.969758
0.971143
0.972858
0.974782
0.976808
0.978854
0.98086
0.982791
0.984621
0.986341
0.987946
0.989433
0.990806
0.992058
0.993189
0.994201
0.995095
0.995875
0.996543
0.9971
0.997547
0.997883
0.998106
0.998211
0.998194
0.998057
0.997803
0.997436
0.996959
0.996371
0.995673
0.994862
0.993936
0.992892
0.991727
0.990442
0.989037
0.987518
0.985882
0.984131
0.982271
0.980317
0.978295
0.976248
0.974241
0.972363
0.970726
0.969453
0.968666
0.96846
0.968871
0.969835
0.971243
0.972973
0.974903
0.976928
0.978968
0.980966
0.982886
0.984707
0.986416
0.988011
0.989489
0.990853
0.992098
0.993223
0.994228
0.995118
0.995894
0.996558
0.997113
0.997558
0.997893
0.998114
0.998219
0.998473
0.998352
0.998131
0.997815
0.997406
0.996906
0.996318
0.995641
0.994876
0.994022
0.993081
0.992053
0.990941
0.989752
0.988489
0.987159
0.985773
0.984346
0.982904
0.981477
0.980111
0.97886
0.977788
0.976963
0.976448
0.976295
0.976528
0.977114
0.977999
0.979116
0.980399
0.981785
0.983221
0.984667
0.986089
0.987468
0.988787
0.990037
0.991211
0.992306
0.993316
0.994239
0.995072
0.995817
0.996473
0.997039
0.997516
0.997902
0.998194
0.998389
0.998481
0.998466
0.998345
0.998124
0.997806
0.997395
0.996893
0.996302
0.995622
0.994853
0.993995
0.993049
0.992015
0.990898
0.989702
0.988432
0.987096
0.985703
0.984272
0.982826
0.981399
0.980035
0.978791
0.977731
0.976921
0.976427
0.976298
0.976555
0.977161
0.978061
0.979188
0.980477
0.981864
0.983299
0.98474
0.986158
0.98753
0.988843
0.990086
0.991254
0.992343
0.993348
0.994265
0.995094
0.995835
0.996488
0.997052
0.997527
0.997911
0.998202
0.998395
0.998488
0.998748
0.998647
0.998464
0.998202
0.997866
0.997461
0.996989
0.996453
0.995854
0.995194
0.994476
0.993702
0.992876
0.992002
0.991087
0.990139
0.989171
0.988195
0.987229
0.986296
0.985423
0.984641
0.983983
0.983484
0.983177
0.983086
0.983225
0.983576
0.984113
0.984801
0.985607
0.986498
0.987442
0.988414
0.989392
0.990359
0.991302
0.992211
0.993076
0.993892
0.994655
0.995361
0.996007
0.996592
0.997113
0.997569
0.997957
0.998274
0.998516
0.998678
0.998756
0.998743
0.998642
0.998457
0.998195
0.997858
0.997451
0.996977
0.996438
0.995836
0.995174
0.994452
0.993675
0.992845
0.991967
0.991047
0.990096
0.989125
0.988146
0.98718
0.986248
0.985377
0.984599
0.983949
0.983461
0.983165
0.983088
0.98324
0.983603
0.984149
0.984844
0.985655
0.986547
0.987492
0.988462
0.989438
0.990402
0.991341
0.992246
0.993107
0.993919
0.994678
0.995381
0.996024
0.996606
0.997125
0.997579
0.997965
0.998281
0.998522
0.998683
0.998761
0.999027
0.998947
0.998804
0.998601
0.998344
0.998037
0.997684
0.997288
0.996853
0.996381
0.995875
0.995338
0.994772
0.994179
0.993568
0.992946
0.992321
0.991704
0.991105
0.990539
0.990018
0.989561
0.989182
0.988899
0.988725
0.988675
0.988753
0.988951
0.989257
0.989655
0.990128
0.990661
0.991237
0.991842
0.992463
0.99309
0.993711
0.99432
0.994908
0.99547
0.996001
0.9965
0.996964
0.997391
0.997776
0.998119
0.998414
0.998657
0.998845
0.998972
0.999033
0.999023
0.998943
0.998799
0.998596
0.998338
0.99803
0.997675
0.997278
0.996841
0.996367
0.995859
0.995319
0.994751
0.994156
0.993542
0.992918
0.992292
0.991674
0.991076
0.99051
0.989992
0.989538
0.989163
0.988886
0.988719
0.988676
0.988761
0.988966
0.989277
0.989679
0.990155
0.99069
0.991267
0.991872
0.992492
0.993117
0.993737
0.994343
0.994929
0.995488
0.996017
0.996514
0.996976
0.997401
0.997785
0.998126
0.99842
0.998662
0.998849
0.998976
0.999037
0.999306
0.99925
0.999148
0.999006
0.998828
0.998618
0.99838
0.998117
0.997833
0.99753
0.997211
0.996877
0.99653
0.99617
0.995803
0.995436
0.995074
0.994722
0.994387
0.994075
0.993793
0.993549
0.993349
0.993202
0.993112
0.993086
0.993126
0.993229
0.993389
0.993599
0.993852
0.994142
0.99446
0.9948
0.995156
0.99552
0.995889
0.996255
0.996614
0.996959
0.99729
0.997606
0.997905
0.998185
0.998442
0.998673
0.998876
0.999045
0.999177
0.999267
0.999311
0.999304
0.999247
0.999145
0.999003
0.998824
0.998613
0.998374
0.99811
0.997825
0.997522
0.997201
0.996866
0.996517
0.996156
0.995788
0.99542
0.995057
0.994705
0.994371
0.994059
0.993779
0.993537
0.99334
0.993195
0.993109
0.993086
0.99313
0.993237
0.993399
0.993612
0.993867
0.994157
0.994476
0.994817
0.995172
0.995536
0.995904
0.996269
0.996626
0.99697
0.9973
0.997615
0.997913
0.998191
0.998447
0.998678
0.99888
0.999049
0.99918
0.99927
0.999313
0.999585
0.999552
0.999492
0.99941
0.999307
0.999188
0.999056
0.998912
0.998759
0.9986
0.998434
0.998264
0.998089
0.997908
0.997725
0.997546
0.997371
0.997204
0.997047
0.996904
0.996776
0.996666
0.996577
0.996512
0.996473
0.996461
0.996479
0.996524
0.996595
0.996688
0.996802
0.996934
0.997082
0.997241
0.99741
0.997587
0.997768
0.99795
0.998131
0.998305
0.998475
0.998639
0.998798
0.998949
0.99909
0.99922
0.999335
0.999432
0.999509
0.999562
0.999588
0.999584
0.99955
0.99949
0.999408
0.999305
0.999186
0.999053
0.998908
0.998755
0.998595
0.998429
0.998258
0.998082
0.997901
0.997718
0.997538
0.997363
0.997196
0.99704
0.996897
0.996769
0.996661
0.996573
0.996509
0.996471
0.996461
0.996481
0.996527
0.996599
0.996694
0.996809
0.996942
0.997089
0.997249
0.997418
0.997595
0.997775
0.997957
0.998137
0.998311
0.99848
0.998644
0.998802
0.998952
0.999093
0.999222
0.999337
0.999434
0.999511
0.999564
0.999589
0.999862
0.999851
0.999832
0.999805
0.999773
0.999736
0.999696
0.999653
0.999608
0.999562
0.999516
0.999468
0.99942
0.99937
0.99932
0.999271
0.999224
0.999179
0.999138
0.999101
0.999068
0.99904
0.999017
0.999001
0.998991
0.998988
0.998993
0.999004
0.999022
0.999046
0.999075
0.999109
0.999147
0.999189
0.999234
0.999282
0.999331
0.999382
0.999432
0.99948
0.999527
0.999574
0.999619
0.999664
0.999706
0.999746
0.999782
0.999812
0.999837
0.999854
0.999863
0.999861
0.99985
0.999831
0.999805
0.999772
0.999735
0.999695
0.999652
0.999607
0.999561
0.999514
0.999467
0.999418
0.999368
0.999318
0.999269
0.999222
0.999177
0.999136
0.999099
0.999066
0.999038
0.999016
0.999
0.998991
0.998988
0.998993
0.999005
0.999023
0.999047
0.999076
0.999111
0.999149
0.999191
0.999236
0.999284
0.999333
0.999384
0.999434
0.999481
0.999528
0.999575
0.99962
0.999665
0.999707
0.999747
0.999782
0.999813
0.999838
0.999855
0.999863
)
;

boundaryField
{
    top
    {
        type            calculated;
        value           uniform 1;
    }
    bottom
    {
        type            calculated;
        value           uniform 0.148957;
    }
    frontAndBack
    {
        type            empty;
    }
    left_cyc
    {
        type            cyclic;
    }
    right_cyc
    {
        type            cyclic;
    }
}


// ************************************************************************* //
