/*--------------------------------*- C++ -*----------------------------------*\
| =========                 |                                                 |
| \\      /  F ield         | OpenFOAM: The Open Source CFD Toolbox           |
|  \\    /   O peration     | Version:  2.3.0                                 |
|   \\  /    A nd           | Web:      www.OpenFOAM.org                      |
|    \\/     M anipulation  |                                                 |
\*---------------------------------------------------------------------------*/
FoamFile
{
    version     2.0;
    format      ascii;
    class       volScalarField;
    location    "19000";
    object      p_rgh;
}
// * * * * * * * * * * * * * * * * * * * * * * * * * * * * * * * * * * * * * //

dimensions      [0 2 -2 0 0 0 0];

internalField   nonuniform List<scalar> 
3060
(
-38.8739
-41.9835
-47.7992
-56.2781
-67.377
-81.0622
-97.3097
-116.088
-137.326
-160.884
-186.524
-213.892
-242.497
-271.683
-300.599
-328.26
-353.682
-375.973
-394.418
-408.749
-419.213
-426.324
-430.82
-433.444
-434.765
-435.115
-434.59
-433.052
-430.127
-425.204
-417.528
-406.383
-391.302
-372.109
-349.172
-323.256
-295.273
-266.227
-237.097
-208.697
-181.653
-156.433
-133.366
-112.672
-94.4745
-78.8351
-65.7815
-55.339
-47.543
-42.4363
-40.0587
-40.4338
-43.5572
-49.3999
-57.9202
-69.0762
-82.8357
-99.1747
-118.06
-139.416
-163.095
-188.85
-216.315
-244.982
-274.179
-303.033
-330.549
-355.741
-377.724
-395.811
-409.787
-419.93
-426.781
-431.089
-433.586
-434.821
-435.104
-434.509
-432.876
-429.809
-424.678
-416.723
-405.246
-389.804
-370.261
-347.036
-320.912
-292.807
-263.72
-234.617
-206.291
-179.35
-154.248
-131.303
-110.724
-92.6307
-77.0789
-64.0956
-53.7066
-45.9487
-40.8664
-38.5
-62.6529
-65.3864
-70.5194
-78.0522
-87.9897
-100.334
-115.068
-132.138
-151.434
-172.784
-195.938
-220.538
-246.076
-271.869
-297.185
-321.606
-344.893
-366.22
-384.316
-398.494
-409.015
-416.409
-421.338
-424.408
-426.056
-426.513
-425.84
-423.948
-420.571
-415.237
-407.318
-396.161
-381.268
-362.499
-340.718
-317.183
-292.583
-267.133
-241.344
-215.96
-191.635
-168.848
-147.936
-129.133
-112.601
-98.4348
-86.6803
-77.3478
-70.4329
-65.9301
-63.8407
-64.1701
-66.9168
-72.0756
-79.6477
-89.6391
-102.052
-116.869
-134.031
-153.426
-174.875
-198.119
-222.787
-248.354
-274.123
-299.366
-323.702
-346.862
-367.953
-385.711
-399.545
-409.764
-416.914
-421.658
-424.593
-426.135
-426.498
-425.729
-423.726
-420.201
-414.667
-406.487
-395.015
-379.769
-360.683
-338.698
-315.056
-290.374
-264.86
-239.062
-213.72
-189.47
-166.777
-145.965
-127.261
-110.819
-96.7327
-85.0436
-75.7617
-68.8832
-64.4034
-62.3247
-76.6588
-79.5143
-84.8436
-92.5879
-102.659
-114.926
-129.215
-145.314
-162.998
-182.06
-202.323
-223.643
-245.905
-269.002
-292.694
-316.139
-338.009
-357.132
-373.287
-386.987
-397.921
-405.761
-411.113
-414.59
-416.544
-417.107
-416.289
-414.069
-410.282
-404.527
-396.159
-384.664
-370.529
-353.88
-334.211
-311.967
-288.412
-264.813
-241.89
-219.835
-198.748
-178.753
-160.002
-142.681
-127.004
-113.197
-101.467
-91.9791
-84.8542
-80.1727
-77.9883
-78.3335
-81.2016
-86.5543
-94.3317
-104.443
-116.757
-131.095
-147.242
-164.972
-184.079
-204.385
-225.745
-248.044
-271.174
-294.863
-318.207
-339.857
-358.692
-374.605
-388.085
-398.732
-406.32
-411.483
-414.816
-416.646
-417.088
-416.15
-413.802
-409.861
-403.901
-395.263
-383.496
-369.146
-352.235
-332.285
-309.851
-286.227
-262.641
-239.754
-217.738
-196.692
-176.74
-158.035
-140.761
-125.133
-111.375
-99.6903
-90.2424
-83.1489
-78.4888
-76.3147
-58.0343
-61.0481
-66.6517
-74.7573
-85.2418
-97.9398
-112.639
-129.089
-147.019
-166.166
-186.305
-207.263
-228.925
-251.218
-273.961
-296.543
-318.212
-338.537
-356.824
-371.673
-383.156
-392.111
-398.372
-402.506
-404.908
-405.623
-404.597
-401.892
-397.415
-390.698
-381.276
-369.29
-353.763
-335.028
-314.444
-292.584
-269.93
-247.266
-225.109
-203.606
-182.832
-162.916
-144.043
-126.451
-110.408
-96.1856
-84.028
-74.1384
-66.6729
-61.7461
-59.4391
-59.8045
-62.8309
-68.458
-76.5962
-87.1205
-99.8624
-114.606
-131.098
-149.064
-168.243
-188.408
-209.389
-231.075
-253.388
-276.128
-298.639
-320.187
-340.351
-358.366
-372.851
-384.083
-392.79
-398.826
-402.793
-405.043
-405.599
-404.417
-401.559
-396.903
-389.941
-380.284
-368.014
-352.125
-333.158
-312.426
-290.451
-267.741
-245.091
-222.959
-201.479
-180.73
-160.841
-142.001
-124.448
-108.449
-94.2709
-82.157
-72.3062
-64.8719
-59.9665
-57.6701
-27.6027
-30.6416
-36.2789
-44.4145
-54.9184
-67.63
-82.3609
-98.9014
-117.032
-136.538
-157.215
-178.867
-201.296
-224.255
-247.379
-270.11
-291.962
-313.02
-333.257
-351.127
-365.235
-375.563
-383.014
-388.164
-391.254
-392.2
-390.856
-387.404
-381.867
-373.972
-363.035
-348.228
-329.806
-309.361
-288.184
-266.163
-243.32
-220.198
-197.333
-175.061
-153.614
-133.193
-113.994
-96.2267
-80.1099
-65.8632
-53.6933
-43.7837
-36.2885
-31.3307
-29.004
-29.3731
-32.4236
-38.0824
-46.2483
-56.7897
-69.5442
-84.3214
-100.909
-119.088
-138.64
-159.36
-181.051
-203.51
-226.484
-249.59
-272.253
-294.02
-315.017
-335.112
-352.653
-366.37
-376.377
-383.593
-388.541
-391.437
-392.167
-390.613
-386.97
-381.222
-373.077
-361.791
-346.597
-327.887
-307.343
-286.099
-263.992
-241.094
-217.965
-195.12
-172.881
-151.475
-131.098
-111.946
-94.2262
-78.1573
-63.9566
-51.8291
-41.956
-34.4896
-29.5516
-27.2346
4.51343
1.36161
-4.47013
-12.8629
-23.6684
-36.7115
-51.7956
-68.7103
-87.2413
-107.18
-128.33
-150.504
-173.511
-197.131
-221.069
-244.957
-268.278
-290.575
-311.348
-330.162
-346.155
-358.072
-366.429
-372.142
-375.81
-376.996
-375.328
-371.295
-365.187
-356.287
-343.658
-327.037
-307.85
-286.753
-264.233
-240.771
-216.84
-192.942
-169.432
-146.59
-124.629
-103.74
-84.1126
-65.9497
-49.4627
-34.8673
-22.3728
-12.1722
-4.43537
0.696112
3.1105
2.72686
-0.436399
-6.28937
-14.7121
-25.555
-38.6415
-53.7731
-70.7379
-89.3204
-109.311
-130.511
-152.733
-175.781
-199.43
-223.375
-247.231
-270.48
-292.666
-313.274
-331.889
-347.513
-359.032
-367.089
-372.588
-376.043
-376.955
-375.026
-370.794
-364.448
-355.223
-342.183
-325.242
-305.871
-284.625
-262.006
-238.485
-214.541
-190.647
-167.168
-144.368
-122.455
-101.617
-82.0416
-63.9301
-47.4932
-32.9449
-20.493
-10.3288
-2.62051
2.49138
4.89613
37.3795
34.0736
27.9724
19.217
7.97891
-5.54592
-21.1454
-38.601
-57.6972
-78.2304
-100.012
-122.868
-146.623
-171.088
-196.023
-221.175
-246.088
-270.267
-293.065
-313.62
-330.764
-343.183
-351.211
-356.639
-360.07
-361.256
-359.615
-355.86
-350.066
-341.417
-328.116
-310.248
-289.214
-266.096
-241.733
-216.732
-191.581
-166.724
-142.388
-118.806
-96.168
-74.6494
-54.4299
-35.7034
-18.6783
-3.57297
9.39335
20.0107
28.0879
33.46
35.9938
35.5906
32.273
26.15
17.3638
6.08701
-7.48309
-23.1331
-40.6431
-59.7967
-80.3891
-102.231
-125.145
-148.956
-173.468
-198.435
-223.586
-248.46
-272.551
-295.188
-315.49
-332.235
-344.169
-351.863
-357.07
-360.303
-361.212
-359.32
-355.367
-349.339
-340.299
-326.519
-308.294
-287.035
-263.779
-239.345
-214.318
-189.179
-164.353
-140.064
-116.538
-93.9591
-72.5004
-52.3399
-33.6703
-16.6991
-1.64365
11.2783
21.8582
29.906
35.2579
37.7818
69.0026
65.4804
58.9967
49.7231
37.8653
23.6535
7.3306
-10.8611
-30.6915
-51.952
-74.4602
-98.0586
-122.605
-147.955
-173.94
-200.364
-226.799
-252.72
-277.439
-300.048
-319.3
-333.307
-341.041
-344.977
-347.349
-348.141
-347.055
-344.465
-340.118
-331.383
-316.289
-296.311
-273.236
-248.224
-222.15
-195.666
-169.278
-143.403
-118.197
-93.829
-70.4447
-48.1924
-27.2373
-7.7698
9.99406
25.8189
39.4598
50.6749
59.2382
64.9513
67.6523
67.2219
63.6874
57.1808
47.8746
35.9757
21.7158
5.3387
-12.9121
-32.8056
-54.1327
-76.7102
-100.379
-124.996
-150.411
-176.452
-202.904
-229.326
-255.18
-279.757
-302.123
-320.975
-334.376
-341.587
-345.301
-347.515
-348.11
-346.838
-344.095
-339.455
-330.131
-314.482
-294.155
-270.867
-245.736
-219.613
-193.128
-166.775
-140.959
-115.819
-91.5209
-68.2068
-46.023
-25.1338
-5.72873
11.9768
27.7484
41.3421
52.5174
61.0496
66.7414
69.432
98.6863
94.874
87.8742
77.8984
65.2002
50.0602
32.7687
13.6081
-7.16269
-29.32
-52.6821
-77.1084
-102.492
-128.742
-155.765
-183.4
-211.249
-238.788
-265.307
-289.856
-311.189
-327.575
-337.109
-340.691
-341.873
-342.228
-341.764
-340.383
-336.021
-325.217
-307.794
-285.768
-260.77
-233.986
-206.324
-178.458
-150.888
-123.996
-97.8946
-72.6824
-48.4553
-25.3302
-3.45912
16.9641
35.7048
52.4956
67.0492
79.0751
88.2968
94.4697
97.3947
96.9282
93.1026
86.078
76.067
63.3246
48.1326
30.7826
11.558
-9.28186
-31.5129
-54.9531
-79.4614
-104.929
-131.264
-158.366
-186.053
-213.915
-241.41
-267.804
-292.122
-313.079
-328.883
-337.726
-340.91
-341.963
-342.21
-341.644
-340.09
-335.225
-323.724
-305.781
-283.423
-258.226
-231.342
-203.653
-175.811
-148.3
-121.49
-95.473
-70.3445
-46.1983
-23.1501
-1.35163
19.0035
37.6811
54.4144
68.9173
80.9002
90.0883
96.2381
99.1517
126.294
122.101
114.42
103.516
89.7046
73.337
54.7711
34.3487
12.3742
-10.9003
-35.2848
-60.6522
-86.9305
-114.086
-142.102
-170.834
-199.931
-228.893
-257.019
-283.359
-306.687
-325.45
-337.887
-343.573
-345.144
-345.401
-345.049
-343.033
-336.283
-322.625
-302.916
-278.936
-252.176
-223.815
-194.757
-165.666
-137.014
-109.136
-82.1205
-55.9925
-30.7951
-6.61472
16.4049
38.0565
58.0726
76.136
91.8973
104.997
115.089
121.867
125.085
124.572
120.365
112.657
101.714
87.8541
71.4301
52.8009
32.3092
10.2601
-13.0946
-37.5652
-63.0245
-89.4001
-116.656
-144.77
-173.577
-202.71
-231.65
-259.673
-285.802
-308.779
-327.017
-338.775
-343.897
-345.225
-345.388
-344.923
-342.583
-335.202
-320.892
-300.709
-276.419
-249.481
-221.041
-191.978
-162.934
-134.362
-106.584
-79.6695
-53.6373
-28.5302
-4.43424
18.5065
40.0846
60.0325
78.0337
93.7396
106.792
116.847
123.6
126.806
152.169
147.492
138.943
126.848
111.608
93.6643
73.4639
51.4291
27.9293
3.25996
-22.3693
-48.8371
-76.1023
-104.185
-133.138
-162.834
-192.981
-223.125
-252.597
-280.475
-305.578
-326.495
-341.723
-350.466
-353.99
-354.733
-353.666
-349.426
-339.572
-323.241
-301.463
-275.753
-247.489
-217.809
-187.589
-157.459
-127.842
-99.0137
-71.0465
-43.8943
-17.5513
7.92143
32.3799
55.591
77.2377
96.9336
114.245
128.722
139.928
147.479
151.07
150.497
145.804
137.224
125.086
109.793
91.7877
71.5186
49.4093
25.8295
1.07417
-24.6477
-51.2155
-78.5884
-106.784
-135.851
-165.64
-195.843
-225.986
-255.376
-283.065
-307.847
-328.29
-342.905
-351.042
-354.173
-354.706
-353.398
-348.696
-338.21
-321.297
-299.088
-273.095
-244.674
-214.936
-184.731
-154.667
-125.149
-96.4361
-68.5812
-41.5346
-15.2895
10.0926
34.4667
57.599
79.1722
98.8005
116.051
130.476
141.641
149.164
152.741
176.868
171.596
161.973
148.404
131.392
111.489
89.2548
65.2148
39.8221
13.4325
-13.7108
-41.4817
-69.8619
-98.9169
-128.754
-159.276
-190.26
-221.311
-251.807
-280.873
-307.387
-330.039
-347.498
-358.879
-364.563
-366.012
-363.941
-357.364
-344.901
-326.434
-302.987
-275.91
-246.486
-215.8
-184.68
-153.709
-123.248
-93.4995
-64.5172
-36.1956
-8.48781
18.5615
44.7963
69.9429
93.6173
115.343
134.58
150.764
163.349
171.853
175.901
175.256
169.965
160.308
146.692
129.621
109.65
87.3418
63.2218
37.744
11.2637
-15.977
-43.8538
-72.3491
-101.528
-131.488
-162.115
-193.17
-224.238
-254.671
-283.571
-309.791
-332.011
-348.912
-359.694
-364.883
-365.963
-363.498
-356.387
-343.322
-324.327
-300.485
-273.151
-243.591
-212.865
-181.778
-150.887
-120.537
-90.9139
-62.0524
-33.8431
-6.23857
20.7154
46.8611
71.9238
95.5191
117.171
136.342
152.469
165.008
173.48
177.512
201.01
195.029
184.126
168.795
149.659
127.404
102.724
76.2681
48.5913
20.1274
-8.83178
-38.1421
-67.797
-97.8992
-128.575
-159.791
-191.4
-223.073
-254.241
-284.085
-311.547
-335.402
-354.412
-367.641
-374.945
-376.967
-374.086
-365.783
-351.499
-331.544
-306.943
-278.948
-248.764
-217.412
-185.664
-154.045
-122.85
-92.199
-62.113
-32.445
-3.11988
25.8218
54.1979
81.6782
107.794
131.959
153.506
171.734
185.966
195.606
200.197
199.466
193.465
182.524
167.14
147.939
125.61
100.849
74.3072
46.5406
17.9821
-11.0776
-40.4967
-70.2705
-100.502
-131.305
-162.633
-194.323
-226.024
-257.144
-286.84
-314.033
-337.488
-355.98
-368.624
-375.372
-376.9
-373.511
-364.636
-349.775
-329.331
-304.366
-276.136
-245.833
-214.455
-182.751
-151.223
-120.145
-89.6224
-59.6618
-30.1097
-0.890809
27.9525
56.2356
83.627
109.658
133.742
155.216
173.381
187.562
197.166
201.74
225.174
218.378
205.997
188.631
167.038
142.058
114.538
85.2668
54.9201
24.0233
-7.06553
-38.1687
-69.2762
-100.511
-132.005
-163.806
-195.846
-227.869
-259.351
-289.542
-317.456
-341.946
-361.843
-376.162
-384.46
-386.846
-383.447
-374.091
-358.735
-337.935
-312.732
-284.304
-253.778
-222.101
-189.979
-157.89
-126.053
-94.5056
-63.2027
-31.9906
-0.778901
30.3814
61.2657
91.4704
120.427
147.422
171.644
192.236
208.37
219.32
224.536
223.706
216.888
204.464
187.039
165.374
140.312
112.704
83.3417
52.9006
21.9062
-9.28433
-40.4962
-71.7218
-103.084
-134.704
-166.619
-198.747
-230.803
-262.245
-292.301
-319.966
-344.082
-363.492
-377.239
-384.951
-386.768
-382.795
-372.851
-356.939
-335.68
-310.137
-281.491
-250.857
-219.162
-187.091
-155.097
-123.376
-91.9514
-60.7772
-29.6812
1.42408
32.4846
63.2725
93.3835
122.249
149.157
173.298
193.82
209.896
220.806
226.002
249.855
242.149
228.117
208.477
184.139
156.111
125.407
92.9702
59.606
25.9415
-7.57963
-40.7274
-73.4715
-105.932
-138.25
-170.553
-202.863
-235.015
-266.465
-296.574
-324.446
-349.022
-369.201
-384.01
-392.821
-395.405
-391.722
-381.826
-366.003
-344.953
-319.687
-291.307
-260.852
-229.175
-196.883
-164.472
-132.058
-99.5984
-66.9576
-33.999
-0.635933
33.0548
66.7869
100.066
132.213
162.378
189.59
212.823
231.082
243.495
249.409
248.469
240.738
226.658
206.953
182.534
154.417
123.618
91.0839
57.6205
23.8551
-9.7664
-43.0197
-75.8768
-108.458
-140.895
-173.311
-205.71
-237.889
-269.302
-299.285
-326.923
-351.148
-370.866
-385.125
-393.342
-395.321
-391.034
-380.551
-364.198
-342.715
-317.129
-288.545
-257.988
-226.29
-194.053
-161.736
-129.435
-97.0936
-64.5712
-31.7232
1.53637
35.1283
68.7604
101.94
133.99
164.061
191.184
214.339
232.533
244.902
250.793
275.451
266.754
250.933
228.836
201.537
170.221
136.079
100.212
63.5602
26.8447
-9.37349
-44.7936
-79.3516
-113.139
-146.308
-179.058
-211.472
-243.435
-274.562
-304.261
-331.723
-355.982
-376.013
-390.868
-399.831
-402.487
-398.695
-388.644
-372.799
-351.923
-326.989
-299.016
-268.951
-237.563
-205.403
-172.81
-139.857
-106.438
-72.3441
-37.4501
-1.70031
34.7923
71.6527
108.275
143.875
177.462
207.899
233.981
254.538
268.539
275.212
274.152
265.427
249.553
227.383
199.996
168.583
134.338
98.3673
61.6114
24.7894
-11.524
-47.044
-81.7062
-115.601
-148.878
-181.729
-214.22
-246.211
-277.302
-306.881
-334.123
-358.053
-377.648
-391.979
-400.358
-402.401
-398.002
-387.38
-371.03
-349.747
-324.512
-296.347
-266.185
-234.78
-202.666
-170.156
-137.306
-103.995
-70.0062
-35.2142
0.437523
36.836
73.5904
110.108
145.604
179.089
209.428
235.424
255.909
269.86
276.509
302.27
292.518
274.814
250.151
219.775
185.051
147.342
107.907
67.8286
27.9613
-11.0739
-48.9103
-85.4129
-120.618
-154.698
-187.905
-220.379
-252.07
-282.698
-311.758
-338.54
-362.177
-381.734
-396.312
-405.172
-407.812
-404.034
-394.102
-378.559
-358.18
-333.874
-306.571
-277.113
-246.174
-214.215
-181.473
-147.96
-113.512
-77.8667
-40.9036
-2.62494
36.7797
76.8765
116.98
156.168
193.303
227.084
256.13
279.09
294.767
302.254
301.064
291.28
273.518
248.774
218.302
183.472
145.653
106.108
65.9227
25.9519
-13.1802
-51.1113
-87.7076
-123.005
-157.177
-190.471
-223.008
-254.72
-285.31
-314.255
-340.829
-364.158
-383.306
-397.388
-405.686
-407.727
-403.358
-392.88
-376.862
-356.1
-331.513
-304.028
-274.476
-243.516
-211.592
-178.921
-145.496
-111.141
-75.5856
-38.7144
-0.52902
38.7793
78.7726
118.768
157.846
194.87
228.545
257.496
280.378
295.999
303.458
330.578
319.755
300.165
272.958
239.55
201.475
160.253
117.287
73.7847
30.713
-11.2209
-51.5704
-90.1221
-126.84
-161.92
-195.651
-228.215
-259.625
-289.685
-317.986
-343.925
-366.745
-385.61
-399.697
-408.287
-410.853
-407.169
-397.534
-382.51
-362.839
-339.351
-312.872
-284.13
-253.697
-221.938
-189.009
-154.862
-119.29
-81.9989
-42.8656
-1.96725
40.4252
83.7968
127.369
170.103
210.73
247.799
279.769
305.117
322.478
330.795
329.47
318.612
298.959
271.665
238.153
199.964
158.624
115.541
71.9274
28.7517
-13.2782
-53.7165
-92.3506
-129.144
-164.3
-198.1
-230.712
-262.132
-292.149
-320.337
-346.078
-368.609
-387.094
-400.717
-408.777
-410.772
-406.526
-396.377
-380.91
-360.882
-337.13
-310.476
-281.641
-251.18
-219.443
-186.568
-152.492
-116.998
-79.7801
-40.7279
0.0822886
42.3788
85.6455
129.105
171.722
212.23
249.185
281.051
306.314
323.614
331.9
360.604
348.763
327.4
297.817
261.588
220.393
175.889
129.596
82.8303
36.654
-8.13657
-51.0076
-91.6577
-129.966
-166.149
-200.509
-233.257
-264.453
-293.974
-321.505
-346.549
-368.467
-386.533
-400.011
-408.238
-410.697
-407.152
-397.913
-383.524
-364.664
-342.072
-316.458
-288.437
-258.471
-226.839
-193.624
-158.735
-121.941
-82.9339
-41.5916
1.92133
47.2447
93.7754
140.643
186.71
230.595
270.725
305.418
333
351.948
361.056
359.602
347.724
326.292
296.616
260.274
218.958
174.327
127.911
81.0289
34.7462
-10.1395
-53.0941
-93.8159
-132.182
-168.425
-202.837
-235.616
-266.809
-296.279
-323.696
-348.552
-370.2
-387.914
-400.963
-408.697
-410.621
-406.551
-396.834
-382.034
-362.844
-340.003
-314.222
-286.105
-256.102
-224.477
-191.299
-156.464
-119.73
-80.7807
-39.5096
3.91962
49.147
95.5696
142.319
188.261
232.018
272.026
306.608
334.099
352.982
362.056
392.517
379.785
356.884
325.257
286.608
242.736
195.397
146.199
96.5367
47.5502
0.114782
-45.15
-87.8501
-127.769
-165.138
-200.246
-233.31
-264.42
-293.513
-320.356
-344.558
-365.592
-382.848
-395.69
-403.522
-405.861
-402.471
-393.659
-379.93
-361.887
-340.163
-315.356
-287.965
-258.352
-226.715
-193.084
-157.341
-119.254
-78.5268
-35.0437
10.9344
58.9553
108.33
158.11
207.078
253.772
296.527
333.557
363.065
383.392
393.195
391.626
378.855
355.882
324.156
285.388
241.387
193.914
144.586
94.8011
45.7045
-1.82666
-47.1713
-89.9345
-129.898
-167.31
-202.453
-235.532
-266.625
-295.658
-322.386
-346.408
-367.19
-384.12
-396.567
-403.946
-405.79
-401.915
-392.664
-378.558
-360.208
-338.251
-313.281
-285.79
-256.13
-224.485
-190.874
-155.168
-117.125
-76.4424
-33.0226
12.8745
60.7978
110.06
159.715
208.55
255.109
297.734
334.647
364.057
384.316
394.083
426.43
413.01
388.944
355.785
315.334
269.466
219.994
168.573
116.641
65.3876
15.7472
-31.5859
-76.1293
-117.569
-156.131
-192.066
-225.57
-256.744
-285.565
-311.871
-335.359
-355.612
-372.129
-384.372
-391.826
-394.048
-390.807
-382.402
-369.287
-351.983
-331.02
-306.884
-279.972
-250.554
-218.767
-184.605
-147.945
-108.577
-66.2476
-20.8597
27.229
77.4799
129.133
181.18
232.358
281.16
325.872
364.644
395.599
416.976
427.317
425.659
412.199
388.058
354.796
314.221
268.217
218.604
167.046
114.985
63.6168
13.8785
-33.5332
-78.1342
-119.608
-158.202
-194.156
-227.66
-258.805
-287.558
-313.746
-337.061
-357.077
-373.293
-385.175
-392.214
-393.983
-390.298
-381.491
-368.03
-350.442
-329.259
-304.965
-277.948
-248.472
-216.663
-182.505
-145.867
-106.532
-64.2367
-18.9076
29.1001
79.2499
130.784
182.7
233.738
282.397
326.972
365.622
396.475
417.781
428.085
462.412
448.591
423.873
389.887
348.484
301.563
250.946
198.286
145.02
92.3504
41.2411
-7.56186
-53.5037
-96.1817
-135.79
-172.513
-206.501
-237.843
-266.535
-292.461
-315.395
-335.01
-350.903
-362.63
-369.752
-371.87
-368.759
-360.707
-348.117
-331.43
-311.08
-287.457
-260.865
-231.51
-199.48
-164.76
-127.246
-86.7754
-43.1642
3.64572
53.211
104.925
157.979
211.342
263.74
313.667
359.41
399.107
430.85
452.823
463.482
461.77
447.907
423.113
389.021
347.491
300.43
249.667
196.863
143.463
90.6735
39.4629
-9.41984
-55.4178
-98.1268
-137.76
-174.492
-208.468
-239.771
-268.386
-294.193
-316.959
-336.351
-351.966
-363.363
-370.107
-371.81
-368.293
-359.875
-346.968
-330.017
-309.46
-285.681
-258.981
-229.558
-197.495
-162.767
-125.264
-84.8176
-41.2366
5.51477
54.996
106.603
159.533
212.757
265.008
314.788
360.39
399.961
431.601
453.5
464.122
500.491
486.637
461.923
428.01
386.741
339.987
289.519
236.935
183.623
130.752
79.2771
29.9592
-16.6041
-59.9459
-100.195
-137.441
-171.771
-203.237
-231.829
-257.458
-279.948
-299.043
-314.419
-325.714
-332.555
-334.583
-331.58
-323.823
-311.67
-295.49
-275.638
-252.422
-226.08
-196.771
-164.565
-129.457
-91.3847
-50.2588
-5.98986
41.4205
91.4686
143.51
196.729
250.106
302.408
352.179
397.762
437.34
469.031
491.013
501.708
499.986
486.091
461.301
427.282
385.886
338.99
288.374
235.642
182.191
129.196
77.6155
28.2159
-18.4041
-61.7834
-102.057
-139.309
-173.62
-205.038
-233.549
-259.058
-281.386
-300.27
-315.39
-326.382
-332.879
-334.528
-331.155
-323.064
-310.62
-294.196
-274.146
-250.778
-224.326
-194.943
-162.696
-127.572
-89.5053
-48.401
-4.16416
43.1834
93.1417
145.071
198.158
251.391
303.542
353.163
398.604
438.056
469.643
491.553
502.21
540.656
527.214
503.299
470.541
430.723
385.623
336.903
286.052
234.358
182.906
132.592
84.1492
38.1709
-4.85639
-44.9555
-82.1072
-116.316
-147.58
-175.864
-201.079
-223.078
-241.65
-256.531
-267.422
-274.002
-275.948
-273.045
-265.563
-253.82
-238.131
-218.787
-196.039
-170.083
-141.055
-109.029
-74.0322
-36.0636
4.87889
48.7701
95.528
144.632
195.446
247.191
298.914
349.469
397.507
441.479
479.676
510.301
531.589
541.973
540.298
526.817
502.828
469.968
430.026
384.785
335.918
284.92
233.085
181.505
131.083
82.5578
36.5329
-6.56075
-46.6934
-83.8515
-118.04
-149.254
-177.455
-202.553
-224.397
-242.772
-257.417
-268.031
-274.298
-275.897
-272.657
-264.871
-252.862
-236.947
-217.417
-194.522
-168.458
-139.354
-107.284
-72.269
-34.3058
6.61151
50.4622
97.1492
146.156
196.851
248.461
300.038
350.442
398.331
442.164
480.238
510.763
531.98
542.329
582.86
570.344
548.135
517.776
480.923
439.2
394.107
346.968
298.92
250.915
203.742
158.047
114.37
73.1364
34.4825
-1.46459
-34.624
-64.9309
-92.3103
-116.659
-137.833
-155.647
-169.875
-180.263
-186.53
-188.379
-185.601
-178.458
-167.238
-152.215
-133.636
-111.717
-86.6321
-58.5165
-27.4662
6.44692
43.1547
82.5659
124.535
168.887
215.143
262.733
310.968
359.012
405.86
450.317
491.001
526.366
554.763
574.546
584.224
582.659
570.107
547.829
517.374
480.405
438.55
393.315
346.033
297.846
249.713
202.426
156.642
112.905
71.596
32.9014
-3.05666
-36.1986
-66.4588
-93.7606
-117.999
-139.028
-156.662
-170.676
-180.813
-186.798
-188.333
-185.25
-177.832
-166.372
-151.142
-132.392
-110.337
-85.1496
-56.963
-25.8712
8.05616
44.753
84.1302
126.046
170.316
216.468
263.936
312.036
359.937
406.639
450.954
491.506
526.756
555.06
574.778
584.422
627.021
615.994
596.483
569.881
537.653
501.209
461.833
420.641
378.572
336.401
294.759
254.158
215.016
177.628
142.306
109.27
78.6738
50.6393
25.282
2.72849
-16.8724
-33.3451
-46.4876
-56.0739
-61.8563
-63.56
-60.9851
-54.3814
-44.0144
-30.1248
-12.9316
7.37025
30.612
56.6503
85.3617
116.629
150.322
186.268
224.215
263.893
304.936
346.9
389.243
431.292
472.224
511.048
546.597
577.542
602.443
619.836
628.371
626.989
615.929
596.357
569.671
537.337
500.775
461.271
419.947
377.747
335.451
293.694
252.992
213.764
176.305
140.938
107.884
77.2974
49.3003
24.0092
1.55197
-17.9219
-34.2366
-47.1901
-56.5575
-62.0922
-63.5197
-60.6762
-53.8323
-43.2541
-29.1834
-11.8398
8.58159
31.9126
58.011
86.7544
118.027
151.699
187.6
225.476
265.064
305.999
347.844
390.058
431.974
472.773
511.47
546.901
577.743
602.561
619.896
628.402
673.033
664.08
648.3
626.865
600.985
571.805
540.346
507.473
473.895
440.176
406.753
373.954
342.017
311.081
281.572
253.774
227.886
204.062
182.444
163.169
146.39
132.272
120.998
112.766
107.794
106.329
108.554
114.24
123.149
135.07
149.81
167.191
187.05
209.24
233.622
260.051
288.361
318.331
349.637
381.938
415.047
448.704
482.55
516.116
548.796
579.837
608.324
633.198
653.283
667.367
674.304
673.178
664.198
648.368
626.864
600.898
571.62
540.053
507.067
473.374
439.543
406.011
373.108
341.074
310.062
280.503
252.678
226.787
202.985
181.414
162.214
145.535
131.544
120.422
112.368
107.599
106.362
108.809
114.691
123.771
135.839
150.699
168.173
188.1
210.332
234.73
261.152
289.43
319.343
350.564
382.77
415.776
449.324
483.058
516.509
549.077
580.011
608.401
633.19
653.208
667.244
674.158
720.758
714.457
703.424
688.542
670.704
650.736
629.353
607.14
584.554
561.929
539.491
517.362
495.57
474.054
453.291
433.571
415.084
397.974
382.369
368.395
356.18
345.864
337.596
331.538
327.865
326.779
328.435
332.64
339.199
347.942
358.712
371.362
385.756
401.765
419.264
438.12
458.177
479.221
500.919
522.904
545.222
567.824
590.558
613.171
635.294
656.437
675.974
693.156
707.13
716.996
721.888
721.091
714.771
703.702
688.77
670.869
650.829
629.366
607.069
584.395
561.681
539.151
516.929
495.038
473.448
452.631
432.875
414.37
397.263
381.68
367.747
355.593
345.36
337.194
331.258
327.726
326.802
328.614
332.955
339.631
348.472
359.319
372.026
386.457
402.483
419.978
438.813
458.829
479.809
501.415
523.311
545.542
568.055
590.702
613.229
635.27
656.334
675.801
692.922
706.848
716.679
721.554
770.068
766.956
761.609
754.553
746.301
737.309
727.947
718.496
709.144
699.994
691.069
682.304
673.528
664.472
655.563
647.008
638.915
631.359
624.403
618.11
612.549
607.798
603.943
601.08
599.319
598.792
599.603
601.621
604.721
608.798
613.758
619.517
626
633.138
640.869
649.126
657.828
666.842
675.917
684.748
693.614
702.66
711.927
721.372
730.87
740.208
749.079
757.088
763.759
768.569
770.998
770.598
767.476
762.109
755.026
746.74
737.708
728.303
718.803
709.4
700.195
691.209
682.375
673.515
664.396
655.437
646.841
638.717
631.139
624.172
617.879
612.329
607.6
603.779
600.962
599.258
598.802
599.679
601.752
604.895
609.002
613.982
619.749
626.228
633.353
641.06
649.283
657.939
666.894
675.885
684.647
693.453
702.444
711.659
721.055
730.507
739.802
748.635
756.611
763.256
768.048
770.466
820.74
821.286
822.439
824.301
826.94
830.383
834.615
839.579
845.184
851.308
857.8
864.468
871.046
877.148
882.966
888.496
893.686
898.472
902.793
906.596
909.839
912.489
914.525
915.942
916.747
916.97
916.642
915.725
914.193
912.043
909.282
905.935
902.036
897.63
892.772
887.524
881.946
876.084
869.901
863.303
856.685
850.293
844.308
838.874
834.108
830.091
826.87
824.45
822.791
821.816
821.417
821.475
822.02
823.172
825.033
827.669
831.11
835.337
840.296
845.893
852.005
858.479
865.12
871.653
877.719
883.5
888.991
894.138
898.879
903.151
906.904
910.094
912.69
914.672
916.034
916.787
916.962
916.584
915.614
914.029
911.824
909.01
905.61
901.66
897.207
892.304
887.014
881.397
875.494
869.26
862.631
855.994
849.588
843.593
838.153
833.382
829.362
826.139
823.717
822.057
821.081
820.682
)
;

boundaryField
{
    top
    {
        type            fixedFluxPressure;
        gradient        nonuniform List<scalar> 
102
(
1580.44
1700.27
1912.65
2202.99
2556.07
2957.35
3393.82
3854.36
4329.97
4813.76
5301.2
5790.8
6286.34
6799.57
7306.96
7797.61
8264.4
8701.55
9103.8
9466.15
9783.72
10051.8
10265.9
10421.8
10515.4
10542.7
10501.2
10394.1
10225.5
9999.33
9719.9
9391.77
9019.66
8608.48
8163.34
7689.62
7193.43
6682.7
6170.88
5675.81
5185.3
4697.11
4213.6
3739.96
3283.67
2854.35
2463.68
2125.2
1853.76
1664.62
1571.94
1586.94
1707.07
1920.03
2211.17
2565.24
2967.66
3405.35
3867.19
4344.11
4829.25
5318.11
5809.37
6307.26
6821.79
7329.91
7820.81
8287.39
8723.85
9124.91
9485.54
9800.89
10066.3
10277.2
10429.4
10519.1
10542.1
10496.3
10385.4
10213.2
9984
9701.99
9371.75
8998.06
8585.81
8140.1
7666.31
7170.57
6660.95
6151.48
5657.98
5168.8
4681.89
4199.66
3727.3
3272.27
2844.16
2454.6
2117.09
1846.44
1657.85
1565.45
)
;
        value           nonuniform List<scalar> 
102
(
847.08
849.623
854.317
861.018
869.541
879.672
891.178
903.818
917.35
931.538
946.153
960.981
975.818
990.474
1004.75
1018.46
1031.43
1043.5
1054.52
1064.37
1072.9
1080.02
1085.62
1089.64
1092
1092.68
1091.66
1088.96
1084.62
1078.7
1071.28
1062.46
1052.36
1041.1
1028.83
1015.68
1001.84
987.462
972.749
957.9
943.107
928.578
914.535
901.207
888.836
877.664
867.932
859.87
853.687
849.56
847.616
847.924
850.471
855.173
861.885
870.423
880.571
892.093
904.749
918.295
932.493
947.115
961.943
976.774
991.415
1005.67
1019.34
1032.26
1044.28
1055.23
1065
1073.44
1080.46
1085.96
1089.86
1092.1
1092.66
1091.52
1088.7
1084.25
1078.22
1070.71
1061.81
1051.63
1040.3
1027.97
1014.79
1000.91
986.51
971.785
956.931
942.14
927.619
913.587
900.275
887.92
876.765
867.049
859.002
852.831
848.712
846.773
)
;
    }
    bottom
    {
        type            fixedFluxPressure;
        gradient        nonuniform List<scalar> 
102
(
0
0
0
0
0
0
0
0
0
0
0
0
0
0
0
0
0
0
0
0
0
0
0
0
0
0
0
0
0
0
0
0
0
0
0
0
0
0
0
0
0
0
0
0
0
0
0
0
0
0
0
0
0
0
0
0
0
0
0
0
0
0
0
0
0
0
0
0
0
0
0
0
0
0
0
0
0
0
0
0
0
0
0
0
0
0
0
0
0
0
0
0
0
0
0
0
0
0
0
0
0
-1.64294e-14
)
;
        value           nonuniform List<scalar> 
102
(
-38.8739
-41.9835
-47.7992
-56.2781
-67.377
-81.0622
-97.3097
-116.088
-137.326
-160.884
-186.524
-213.892
-242.497
-271.683
-300.599
-328.26
-353.682
-375.973
-394.418
-408.749
-419.213
-426.324
-430.82
-433.444
-434.765
-435.115
-434.59
-433.052
-430.127
-425.204
-417.528
-406.383
-391.302
-372.109
-349.172
-323.256
-295.273
-266.227
-237.097
-208.697
-181.653
-156.433
-133.366
-112.672
-94.4745
-78.8351
-65.7815
-55.339
-47.543
-42.4363
-40.0587
-40.4338
-43.5572
-49.3999
-57.9202
-69.0762
-82.8357
-99.1747
-118.06
-139.416
-163.095
-188.85
-216.315
-244.982
-274.179
-303.033
-330.549
-355.741
-377.724
-395.811
-409.787
-419.93
-426.781
-431.089
-433.586
-434.821
-435.104
-434.509
-432.876
-429.809
-424.678
-416.723
-405.246
-389.804
-370.261
-347.036
-320.912
-292.807
-263.72
-234.617
-206.291
-179.35
-154.248
-131.303
-110.724
-92.6307
-77.0789
-64.0956
-53.7066
-45.9487
-40.8664
-38.5
)
;
    }
    frontAndBack
    {
        type            empty;
    }
    left_cyc
    {
        type            cyclic;
    }
    right_cyc
    {