/*--------------------------------*- C++ -*----------------------------------*\
| =========                 |                                                 |
| \\      /  F ield         | OpenFOAM: The Open Source CFD Toolbox           |
|  \\    /   O peration     | Version:  2.3.0                                 |
|   \\  /    A nd           | Web:      www.OpenFOAM.org                      |
|    \\/     M anipulation  |                                                 |
\*---------------------------------------------------------------------------*/
FoamFile
{
    version     2.0;
    format      ascii;
    class       surfaceScalarField;
    location    "19000";
    object      phi;
}
// * * * * * * * * * * * * * * * * * * * * * * * * * * * * * * * * * * * * * //

dimensions      [0 3 -1 0 0 0 0];

internalField   nonuniform List<scalar> 
5988
(
0.00954507
-0.008717
0.0179841
-0.00843901
0.0258933
-0.0079092
0.0330267
-0.00713348
0.0391521
-0.00612537
0.0440675
-0.0049154
0.0476325
-0.00356494
0.0498125
-0.00217999
0.0507185
-0.000906066
0.0505961
0.000122399
0.049741
0.000855129
0.048376
0.00136501
0.0465823
0.00179372
0.0443163
0.00226596
0.0414787
0.00283764
0.0380003
0.00347832
0.0338879
0.00411246
0.0292016
0.00468624
0.0241182
0.00508344
0.0189927
0.00512553
0.0141787
0.00481395
0.00994686
0.00423188
0.00641913
0.00352773
0.00353667
0.00288247
0.00109382
0.00244284
-0.00119705
0.00229087
-0.00364848
0.00245143
-0.00654614
0.00289766
-0.0100912
0.00354504
-0.0143356
0.00424445
-0.0191504
0.00481474
-0.0242599
0.00510949
-0.0293074
0.0050475
-0.0339426
0.00463522
-0.0379955
0.00405288
-0.0414062
0.00341076
-0.0441711
0.00276492
-0.0463614
0.00219027
-0.0480729
0.00171147
-0.04934
0.00126714
-0.0500712
0.000731155
-0.0500376
-3.35833e-05
-0.0489505
-0.00108706
-0.046581
-0.00236949
-0.0428354
-0.00374568
-0.0377617
-0.00507367
-0.0315092
-0.00625252
-0.0242847
-0.00722445
-0.0163239
-0.00796084
-0.00787495
-0.00844894
0.000808039
-0.00868299
0.00946807
-0.00866003
0.0178485
-0.00838047
0.0256962
-0.00784762
0.0327642
-0.00706802
0.0388206
-0.00605643
0.0436661
-0.00484549
0.0471658
-0.00349967
0.049294
-0.00212819
0.0501707
-0.000876754
0.050044
0.000126747
0.0492006
0.000843344
0.0478479
0.00135272
0.0460532
0.00179472
0.0437654
0.00228783
0.0408865
0.00287891
0.0373567
0.00352976
0.0331923
0.00416436
0.0284633
0.00472908
0.0233721
0.00509113
0.0182867
0.0050854
0.013552
0.00473476
0.00942247
0.0041295
0.00599696
0.00342551
0.00319342
0.00280354
0.00079118
0.00240224
-0.0015038
0.00229498
-0.00400344
0.00249963
-0.00698563
0.00298219
-0.0106348
0.00364922
-0.014979
0.00434418
-0.0198667
0.00488771
-0.0250087
0.00514201
-0.0300402
0.00503147
-0.0346291
0.00458888
-0.0386293
0.00400025
-0.0419892
0.00335981
-0.044715
0.00272589
-0.0468864
0.00217139
-0.048599
0.00171258
-0.0498782
0.00127918
-0.0506176
0.000739365
-0.0505732
-4.43905e-05
-0.0494494
-0.00112381
-0.0470215
-0.00242783
-0.0432057
-0.00381582
-0.0380587
-0.00514697
-0.031735
-0.00632377
-0.0244435
-0.00729145
-0.0164201
-0.00802341
-0.00791208
-0.00850804
-0.00874014
0.00791744
-0.0159464
0.0150047
-0.0155262
0.0218299
-0.0147345
0.028296
-0.0135996
0.0343414
-0.0121707
0.0399524
-0.0105264
0.0451674
-0.00877994
0.050058
-0.00707054
0.0546764
-0.00552447
0.0589898
-0.004191
0.0628493
-0.00300443
0.0660303
-0.001816
0.068291
-0.000466975
0.0693875
0.00116948
0.0690604
0.00316473
0.0670479
0.00549081
0.0631878
0.00797259
0.0574888
0.0103853
0.0501812
0.012391
0.0418053
0.0135014
0.0330148
0.0136045
0.0244499
0.0127967
0.0165619
0.0114158
0.00947732
0.00996701
0.00300784
0.00891233
-0.00323707
0.00853577
-0.00971397
0.00892833
-0.0168085
0.00999216
-0.0246991
0.0114357
-0.0332463
0.0127917
-0.0419886
0.013557
-0.0502819
0.0134028
-0.0574739
0.0122395
-0.0630368
0.0101981
-0.0667535
0.00776961
-0.0686248
0.00528207
-0.0688204
0.00296047
-0.0676037
0.00097361
-0.0652349
-0.000657322
-0.0619603
-0.00200752
-0.0580234
-0.00320566
-0.0536472
-0.00440985
-0.0489716
-0.00576262
-0.0440221
-0.00731899
-0.0387453
-0.00902256
-0.0330732
-0.0107457
-0.0269741
-0.0123516
-0.0204678
-0.0137308
-0.0136206
-0.014808
-0.00653345
-0.0155361
0.000672282
-0.0158887
0.00786632
-0.0158541
0.0149191
-0.0154333
0.0217119
-0.0146404
0.0281491
-0.0135052
0.0341714
-0.0120788
0.0397683
-0.0104424
0.0449801
-0.00871144
0.0498767
-0.00702481
0.0545027
-0.00550271
0.0588129
-0.00418344
0.0626484
-0.00299222
0.06578
-0.00177881
0.0679627
-0.000388041
0.068949
0.00130158
0.0684754
0.00335244
0.0662857
0.0057195
0.0622368
0.0082133
0.0563601
0.0106057
0.0489231
0.0125282
0.0404973
0.0135112
0.0317391
0.0134929
0.0232751
0.0125935
0.0155183
0.0111823
0.00854857
0.00977326
0.00214183
0.00880898
-0.00410945
0.00854626
-0.0106601
0.00905032
-0.0178755
0.0101975
-0.0258954
0.0116691
-0.034533
0.0129818
-0.0432925
0.0136471
-0.0515213
0.0133708
-0.0585706
0.0120808
-0.0639503
0.00996854
-0.0674769
0.00752683
-0.0691732
0.00505611
-0.0692267
0.00277945
-0.067904
0.000848654
-0.0654608
-0.000730643
-0.0621398
-0.00204179
-0.0581818
-0.00321858
-0.0538041
-0.00442214
-0.0491358
-0.00579213
-0.0441902
-0.00737341
-0.0389071
-0.00909895
-0.033218
-0.010836
-0.0270935
-0.0124483
-0.0205564
-0.0138286
-0.0136755
-0.0149043
-0.00655324
-0.0156304
-0.0159814
0.00754355
-0.0228347
0.0143323
-0.022315
0.0209391
-0.0213413
0.0272971
-0.0199576
0.0333593
-0.0182329
0.0390966
-0.0162638
0.0444864
-0.0141697
0.0494917
-0.0120758
0.0540414
-0.0100742
0.0580323
-0.00818194
0.0613582
-0.00633032
0.0639437
-0.00440145
0.0657587
-0.00228198
0.0668177
0.000110456
0.0671615
0.00282096
0.0667816
0.00587071
0.0654632
0.00929098
0.0627697
0.0130787
0.0582173
0.0169435
0.0514889
0.0202297
0.0428154
0.022278
0.0330709
0.0225412
0.023146
0.0213408
0.0135561
0.0195569
0.00436909
0.0180993
-0.00464978
0.0175546
-0.0138341
0.0181127
-0.023412
0.0195701
-0.0333025
0.0213261
-0.0429748
0.0224639
-0.0515327
0.0221149
-0.0581198
0.01999
-0.0625374
0.0166571
-0.0651164
0.0127771
-0.0663424
0.00899564
-0.0666451
0.00558478
-0.0662258
0.0025411
-0.0650863
-0.000165833
-0.0631866
-0.00255706
-0.0605154
-0.00467874
-0.0571069
-0.00661412
-0.0530406
-0.00847618
-0.0484243
-0.0103789
-0.04336
-0.0123833
-0.0379169
-0.0144656
-0.0321321
-0.0165305
-0.0260299
-0.0184538
-0.0196425
-0.0201183
-0.0130197
-0.0214307
-0.00623071
-0.0223251
0.000640914
-0.0227603
0.0075043
-0.0227175
0.0142693
-0.0221983
0.0208544
-0.0212255
0.0271936
-0.0198444
0.0332406
-0.0181258
0.0389656
-0.0161674
0.0443438
-0.0140897
0.0493339
-0.0120149
0.05386
-0.0100288
0.0578165
-0.00813991
0.0610983
-0.006274
0.0636333
-0.00431381
0.0653954
-0.00215018
0.066403
0.000293995
0.0666967
0.00305881
0.0662519
0.00616426
0.0648213
0.00964394
0.0619518
0.0134752
0.0571662
0.0173138
0.0501938
0.0204836
0.0413645
0.0223222
0.0315896
0.0223684
0.0217225
0.0210494
0.0122142
0.0192816
0.00307836
0.0179448
-0.00594573
0.0175704
-0.0151891
0.0182937
-0.0248488
0.0198572
-0.0347856
0.021606
-0.0444059
0.0226021
-0.052785
0.0220263
-0.0591226
0.0197084
-0.0633136
0.0162719
-0.0657266
0.0123815
-0.0668494
0.0086496
-0.067091
0.0052977
-0.0666207
0.00230917
-0.0654282
-0.000343812
-0.0634744
-0.00268443
-0.0607522
-0.00476404
-0.0572997
-0.00667107
-0.0531995
-0.00852234
-0.0485602
-0.0104314
-0.0434807
-0.0124529
-0.0380253
-0.0145544
-0.0322268
-0.0166345
-0.0261079
-0.0185672
-0.0197004
-0.0202361
-0.013055
-0.0215497
-0.00624155
-0.0224438
-0.0228782
0.00722874
-0.0294357
0.0137529
-0.0288392
0.020135
-0.0277234
0.0263181
-0.0261407
0.0322528
-0.0241676
0.0378915
-0.0219025
0.0431781
-0.0194564
0.0480369
-0.0169345
0.0523714
-0.0144087
0.0560814
-0.0118919
0.0590874
-0.00933628
0.0613456
-0.00665967
0.0628446
-0.00378101
0.063595
-0.000639936
0.0636156
0.00280031
0.0629244
0.00656199
0.0615526
0.0106628
0.0595373
0.015094
0.0566917
0.0197891
0.0523486
0.0245729
0.0458207
0.0288059
0.0370326
0.0313293
0.0268001
0.0315732
0.0160484
0.0303086
0.00524447
0.0289033
-0.00552965
0.0283288
-0.0163173
0.0289003
-0.027029
0.0302819
-0.0371845
0.0314815
-0.0458529
0.0311324
-0.0522479
0.0285099
-0.0564805
0.0242226
-0.0592492
0.0194258
-0.0612025
0.0147304
-0.0625091
0.0103022
-0.0631294
0.00620507
-0.0630335
0.00244526
-0.0622043
-0.000995095
-0.0606235
-0.00413781
-0.0582826
-0.00701968
-0.0551957
-0.00970098
-0.0514102
-0.0122617
-0.0470082
-0.0147809
-0.042091
-0.0173005
-0.0367543
-0.0198023
-0.0310734
-0.0222115
-0.0251046
-0.0244226
-0.0188967
-0.0263262
-0.0125007
-0.0278267
-0.00597501
-0.0288508
0.00061449
-0.0293499
0.00719762
-0.0293006
0.0137046
-0.0287053
0.0200708
-0.0275917
0.0262393
-0.0260129
0.0321599
-0.0240464
0.0377836
-0.0217911
0.0430514
-0.0193574
0.0478841
-0.0168476
0.0521835
-0.0143282
0.0558498
-0.0118062
0.0588063
-0.00923052
0.0610121
-0.00651959
0.0624577
-0.00359576
0.0631545
-0.000402867
0.063121
0.00309231
0.0623748
0.00691051
0.0609506
0.0110681
0.0588757
0.01555
0.0559076
0.0202819
0.0513362
0.0250549
0.0445234
0.029135
0.035516
0.0313758
0.0252008
0.0313646
0.0144507
0.0300317
0.00366364
0.0287318
-0.00711228
0.0283463
-0.0179172
0.0290986
-0.0286208
0.0305607
-0.0386706
0.0316558
-0.0470974
0.0310288
-0.0532093
0.0281382
-0.0572291
0.0237282
-0.059891
0.0189338
-0.0617878
0.0142783
-0.0630405
0.00990225
-0.0636048
0.00586203
-0.0634539
0.00215829
-0.06257
-0.00122776
-0.0609346
-0.00431983
-0.0585402
-0.00715841
-0.0554034
-0.00980794
-0.0515741
-0.0123516
-0.0471374
-0.0148682
-0.0421945
-0.0173958
-0.036839
-0.0199099
-0.0311425
-0.0223309
-0.025159
-0.0245507
-0.0189357
-0.0264594
-0.0125231
-0.0279623
-0.00597984
-0.028987
-0.0294858
0.00688239
-0.0357202
0.0131004
-0.0350572
0.0191934
-0.0338164
0.0251058
-0.032053
0.0307828
-0.0298445
0.0361656
-0.0272853
0.0411851
-0.0244759
0.0457577
-0.0215072
0.0497896
-0.0184406
0.0531914
-0.0152937
0.0558952
-0.0120401
0.0578637
-0.00862814
0.0590858
-0.00500312
0.0595683
-0.00112248
0.0593286
0.00304001
0.0583939
0.00749673
0.0568057
0.0122509
0.054606
0.0172938
0.0518033
0.0225918
0.0483161
0.02806
0.0436793
0.0334428
0.0369439
0.0380646
0.0278227
0.0406945
0.0171057
0.0410256
0.00567453
0.0403344
-0.00593828
0.0399416
-0.0173378
0.0402998
-0.0279857
0.0409298
-0.0369966
0.0404924
-0.0436118
0.0377476
-0.0481614
0.0330595
-0.051591
0.0276522
-0.0543403
0.0221752
-0.0564835
0.0168736
-0.0580098
0.0118284
-0.0588766
0.00707189
-0.0590435
0.00261216
-0.0584846
-0.00155398
-0.0571839
-0.00543854
-0.0551362
-0.00906733
-0.052355
-0.0124822
-0.0488806
-0.0157362
-0.0447832
-0.0188782
-0.0401537
-0.0219301
-0.0350857
-0.0248702
-0.0296627
-0.0276345
-0.0239538
-0.0301315
-0.0180183
-0.0322617
-0.0119119
-0.0339332
-0.00569088
-0.0350718
0.000585518
-0.0356262
0.00685641
-0.0355715
0.0130611
-0.0349099
0.0191409
-0.0336715
0.0250398
-0.0319118
0.030702
-0.0297086
0.0360669
-0.027156
0.0410631
-0.0243536
0.0456049
-0.0213894
0.0495976
-0.018321
0.0529531
-0.0151616
0.0556058
-0.0118832
0.0575207
-0.00843448
0.0586883
-0.00476336
0.0591161
-0.00083067
0.0588217
0.00338667
0.0578334
0.00789885
0.0561939
0.0127076
0.0539426
0.0178014
0.0510821
0.0231423
0.0475052
0.0286319
0.0426611
0.0339791
0.0356168
0.0384201
0.0262442
0.0407372
0.0154083
0.0408676
0.00393876
0.0402014
-0.00767039
0.0399554
-0.0190205
0.0404488
-0.0295281
0.0410684
-0.0382651
0.0403927
-0.0445786
0.0373424
-0.0489462
0.0325058
-0.0522949
0.0270769
-0.0549877
0.0216266
-0.0570789
0.0163696
-0.0585527
0.011376
-0.0593647
0.006674
-0.0594758
0.00226942
-0.058861
-0.00184252
-0.0575047
-0.0056762
-0.0554025
-0.00926062
-0.0525695
-0.0126409
-0.0490485
-0.0158725
-0.0449123
-0.0190044
-0.0402522
-0.0220558
-0.0351612
-0.025001
-0.0297202
-0.0277719
-0.0239963
-0.0302746
-0.0180469
-0.0324088
-0.0119268
-0.0340824
-0.0056922
-0.0352216
-0.0357759
0.00649019
-0.0416459
0.0123527
-0.0409197
0.0180948
-0.0395585
0.0236591
-0.0376174
0.0289868
-0.0351722
0.0340134
-0.0323119
0.0386664
-0.0291288
0.0428644
-0.0257052
0.046523
-0.0220992
0.0495654
-0.0183361
0.0519342
-0.0144089
0.0535964
-0.0102904
0.0545409
-0.00594761
0.0547718
-0.00135333
0.0543032
0.00350857
0.0531581
0.00864181
0.0513706
0.0140385
0.0489868
0.0196775
0.0460598
0.0255188
0.0426211
0.0314987
0.0385615
0.0375024
0.0333881
0.043238
0.0261484
0.0479342
0.0166166
0.0505574
0.00561589
0.0513351
-0.00583913
0.0513966
-0.0167927
0.0512534
-0.0262333
0.0503704
-0.0333673
0.0476264
-0.0384649
0.0428452
-0.0424758
0.0370703
-0.0458711
0.0310475
-0.0487509
0.025055
-0.0510812
0.0192039
-0.0528093
0.0135565
-0.0538897
0.00815222
-0.0542892
0.00301169
-0.0539862
-0.00185701
-0.0529675
-0.00645717
-0.0512307
-0.0108042
-0.048789
-0.014924
-0.0456776
-0.0188476
-0.0419561
-0.0225997
-0.0377026
-0.0261836
-0.0330021
-0.0295707
-0.0279359
-0.0327007
-0.0225768
-0.0354905
-0.0169895
-0.037849
-0.0112336
-0.0396891
-0.00536688
-0.0409385
0.000552812
-0.0415459
0.00646727
-0.0414859
0.0123183
-0.040761
0.0180483
-0.0394015
0.0235992
-0.0374627
0.0289108
-0.0350202
0.0339173
-0.0321625
0.0385443
-0.0289806
0.0427093
-0.0255544
0.0463275
-0.0219392
0.0493234
-0.0181576
0.0516415
-0.0142014
0.0532508
-0.0100437
0.0541412
-0.00565375
0.0543175
-0.00100701
0.0537944
0.0039098
0.0525953
0.00909791
0.0507557
0.0145472
0.048323
0.0202341
0.04535
0.0261153
0.0418589
0.032123
0.0377066
0.0381314
0.0323224
0.0438043
0.02477
0.0482897
0.0149907
0.050647
0.003879
0.0513131
-0.00756508
0.0513995
-0.0183836
0.0512673
-0.0275539
0.0502387
-0.0343806
0.0472194
-0.0392938
0.0422556
-0.0432223
0.0364343
-0.0465671
0.0304217
-0.0494
0.0244595
-0.0516801
0.0186496
-0.0533549
0.0130508
-0.0543801
0.00769924
-0.054724
0.00261332
-0.0543654
-0.00220112
-0.0532917
-0.00674996
-0.0515009
-0.0110514
-0.0490078
-0.015134
-0.0458497
-0.0190306
-0.042088
-0.0227661
-0.0378017
-0.0263421
-0.0330754
-0.0297272
-0.0279892
-0.0328581
-0.022614
-0.0356498
-0.0170131
-0.0380097
-0.0112449
-0.0398506
-0.00536653
-0.0411
-0.0417069
0.00604273
-0.0471621
0.0114955
-0.0463724
0.0168265
-0.0448895
0.0219768
-0.0427677
0.0268851
-0.0400804
0.0314859
-0.0369127
0.0357086
-0.0333515
0.0394787
-0.0294753
0.0427228
-0.0253433
0.0453762
-0.0209894
0.0473904
-0.0164232
0.0487365
-0.0116366
0.0494034
-0.00661455
0.0493938
-0.00134369
0.0487203
0.00418211
0.0474041
0.00995797
0.045476
0.0159666
0.0429767
0.0221769
0.0399545
0.028541
0.0364589
0.0349943
0.0325072
0.0414542
0.0279512
0.0477939
0.0222147
0.0536707
0.0145211
0.058251
0.005012
0.0608442
-0.00517447
0.0615831
-0.0146283
0.0607072
-0.0222378
0.0579799
-0.0279054
0.0532941
-0.0324193
0.047359
-0.0363363
0.0409873
-0.0397937
0.0345049
-0.0427718
0.0280331
-0.0452212
0.0216533
-0.0470938
0.0154291
-0.0483496
0.00940806
-0.0489589
0.003621
-0.0489014
-0.00191454
-0.0481655
-0.00719309
-0.0467499
-0.0122197
-0.0446676
-0.0170063
-0.0419492
-0.0215659
-0.0386452
-0.0259037
-0.0348213
-0.0300074
-0.030552
-0.0338401
-0.025912
-0.0373406
-0.0209723
-0.0404302
-0.0157987
-0.0430225
-0.0104533
-0.0450346
-0.00499554
-0.0463962
0.000515596
-0.0470571
0.00602148
-0.0469918
0.0114634
-0.046203
0.0167826
-0.0447206
0.021919
-0.0425991
0.0268101
-0.0399113
0.0313893
-0.0367417
0.0355849
-0.0331761
0.0393215
-0.029291
0.0425258
-0.0251435
0.045134
-0.0207658
0.0470993
-0.0161667
0.0483942
-0.0113386
0.0490086
-0.0062682
0.048946
-0.00094435
0.0482194
0.00463642
0.0468507
0.0104665
0.0448717
0.0165262
0.042324
0.0227818
0.0392566
0.0291827
0.0357173
0.0356622
0.0317129
0.0421358
0.0270535
0.0484637
0.0210926
0.0542505
0.0131212
0.0586184
0.00344378
0.0609905
-0.00672524
0.0615685
-0.0159811
0.0605231
-0.0233093
0.0575669
-0.0287745
0.0526846
-0.0331979
0.046679
-0.0370653
0.0403016
-0.0404786
0.0338351
-0.0434103
0.0273912
-0.0458101
0.0210494
-0.0476307
0.0148713
-0.048833
0.00890156
-0.0493882
0.00316856
-0.0492767
-0.00231267
-0.0484873
-0.00753932
-0.0470197
-0.012519
-0.0448878
-0.0172659
-0.042124
-0.0217944
-0.0387801
-0.02611
-0.0349229
-0.0301993
-0.0306266
-0.0340235
-0.0259652
-0.0375195
-0.0210084
-0.0406066
-0.0158209
-0.0431973
-0.0104634
-0.0452081
-0.00499481
-0.0465685
-0.0472283
0.00554085
-0.0522186
0.0105327
-0.0513643
0.0154003
-0.0497572
0.0200836
-0.047451
0.0245208
-0.0445176
0.0286482
-0.0410401
0.0324001
-0.0371034
0.0357104
-0.0327856
0.0385165
-0.0281494
0.0407649
-0.0232378
0.0424158
-0.018074
0.0434449
-0.0126657
0.0438429
-0.00701262
0.0436127
-0.00111341
0.0427663
0.00502849
0.0413243
0.0114
0.0393152
0.0179756
0.0367759
0.0247162
0.0337498
0.0315671
0.0302839
0.0384602
0.0264199
0.0453182
0.0221559
0.0520579
0.017302
0.0585245
0.0113246
0.0642284
0.00395891
0.06821
-0.00404569
0.0695877
-0.0113672
0.0680287
-0.0172922
0.063905
-0.022111
0.0581129
-0.0263487
0.0515967
-0.0301841
0.0448227
-0.0336159
0.0379367
-0.0366021
0.0310193
-0.039096
0.0241472
-0.0410545
0.0173877
-0.0424416
0.0107952
-0.0432294
0.00440877
-0.0433982
-0.00174568
-0.0429369
-0.00765439
-0.041844
-0.0133127
-0.0401301
-0.0187202
-0.037821
-0.023875
-0.0349582
-0.0287666
-0.0315964
-0.0333692
-0.027799
-0.0376375
-0.0236329
-0.0415068
-0.0191643
-0.0448988
-0.0144576
-0.0477292
-0.00957524
-0.049917
-0.00457797
-0.0513935
0.00047394
-0.052109
0.00552049
-0.0520384
0.0105017
-0.0511841
0.0153572
-0.0495761
0.0200259
-0.0472678
0.0244453
-0.0443308
0.0285507
-0.0408471
0.0322753
-0.0369008
0.0355528
-0.0325684
0.0383207
-0.0279114
0.0405264
-0.0229715
0.042131
-0.0177713
0.0431118
-0.0123193
0.0434602
-0.00661663
0.0431798
-0.000663907
0.0422832
0.00553294
0.0407917
0.0119581
0.0387345
0.0185834
0.0361494
0.025367
0.03308
0.032252
0.0295735
0.0391688
0.0256692
0.0460402
0.0213514
0.0527814
0.0163856
0.0592163
0.0102169
0.064787
0.00269669
0.0685107
-0.00529022
0.0695554
-0.0124378
0.0676707
-0.0181793
0.0633084
-0.0229002
0.0574055
-0.027088
0.0508669
-0.0308832
0.0440967
-0.0342735
0.0372254
-0.0372154
0.0303332
-0.0396623
0.0234963
-0.0415717
0.0167807
-0.0429083
0.0102382
-0.043645
0.00390524
-0.0437628
-0.0021949
-0.043251
-0.00805111
-0.0421089
-0.0136611
-0.0403483
-0.0190265
-0.0379961
-0.0241466
-0.035095
-0.0290112
-0.0317004
-0.0335939
-0.0278758
-0.0378481
-0.0236876
-0.0417077
-0.0192013
-0.0450929
-0.0144802
-0.0479184
-0.00958564
-0.0501027
-0.00457765
-0.0515765
-0.0522902
0.00498889
-0.0567697
0.00947435
-0.0558498
0.0138342
-0.054117
0.0180083
-0.0516251
0.0219367
-0.048446
0.0255589
-0.0446624
0.0288155
-0.04036
0.0316491
-0.0356191
0.0340075
-0.0305078
0.0358474
-0.0250778
0.0371374
-0.0193639
0.0378588
-0.0133872
0.0380058
-0.0071596
0.0375829
-0.000690535
0.0366036
0.00600781
0.0350889
0.0129147
0.0330671
0.0199975
0.0305733
0.02721
0.027649
0.0344913
0.0243412
0.041768
0.020701
0.0489583
0.0167802
0.0559788
0.0125892
0.0627155
0.00798045
0.0688371
0.00276371
0.0734267
-0.00277704
0.0751284
-0.00797435
0.073226
-0.0125635
0.0684941
-0.01674
0.0622894
-0.0206437
0.0555005
-0.0242609
0.0484399
-0.0275397
0.0412155
-0.0304294
0.033909
-0.0328834
0.0266012
-0.0348607
0.019365
-0.0363267
0.0122611
-0.0372537
0.00533583
-0.0376215
-0.00137787
-0.0374176
-0.00785837
-0.0366382
-0.0140921
-0.0352906
-0.0200677
-0.0333947
-0.0257709
-0.0309832
-0.031178
-0.0281008
-0.0362517
-0.0248004
-0.0409378
-0.0211404
-0.0451669
-0.0171811
-0.0488581
-0.0129837
-0.0519266
-0.0086091
-0.0542916
-0.00411818
-0.0558844
0.000428204
-0.0566554
0.00496915
-0.0565793
0.00944377
-0.0556588
0.0137912
-0.0539236
0.0179506
-0.0514272
0.021861
-0.0482411
0.0254613
-0.0444474
0.0286914
-0.0401309
0.0314937
-0.0353707
0.0338163
-0.030234
0.0356166
-0.0247717
0.036864
-0.0190187
0.0375409
-0.0129963
0.0376423
-0.00671804
0.0371735
-0.000195089
0.0361485
0.00655796
0.0345889
0.0135176
0.0325238
0.0206486
0.0299888
0.027902
0.0270261
0.0352147
0.0236832
0.0425117
0.0200118
0.0497115
0.0160617
0.0567315
0.0118304
0.0634476
0.00714433
0.0694732
0.00185142
0.0738037
-0.00367951
0.0750864
-0.00879313
0.0727843
-0.0133106
0.0678258
-0.0174502
0.0615451
-0.0213243
0.054741
-0.0249091
0.0476815
-0.0281519
0.0404681
-0.0310022
0.0331835
-0.033414
0.0259082
-0.0353469
0.0187137
-0.0367671
0.0116583
-0.0376475
0.00478569
-0.0379685
-0.0018739
-0.0377182
-0.00830149
-0.0368936
-0.0144857
-0.0355029
-0.0204172
-0.0335669
-0.0260825
-0.0311194
-0.0314586
-0.0282056
-0.0365077
-0.0248787
-0.0411749
-0.0211968
-0.0453897
-0.0172196
-0.0490701
-0.0130074
-0.0521306
-0.00862042
-0.0544897
-0.00411863
-0.0560783
-0.0568467
0.00439253
-0.0607745
0.00833216
-0.0597894
0.0121473
-0.0579321
0.0157795
-0.0552573
0.0191716
-0.051838
0.022268
-0.0477588
0.0250161
-0.043108
0.027367
-0.03797
0.0292783
-0.0324191
0.0307162
-0.0265157
0.0316574
-0.0203051
0.0320895
-0.0138193
0.0320113
-0.00708132
0.0314305
-0.000109807
0.0303635
0.00707481
0.0288336
0.0144446
0.0268706
0.0219604
0.0245112
0.0295694
0.0217985
0.0372041
0.0187837
0.0447828
0.0155288
0.0522131
0.0121145
0.0593931
0.00864159
0.0661885
0.00518948
0.0722892
0.00174694
0.0768692
-0.0017053
0.0785807
-0.0051495
0.0766702
-0.00860397
0.0719486
-0.0120752
0.0657605
-0.0154803
0.0589056
-0.0187188
0.0516783
-0.0217109
0.0442077
-0.0243954
0.0365935
-0.0267216
0.0289274
-0.0286468
0.0212902
-0.0301349
0.0137493
-0.0311566
0.00635752
-0.0316891
-0.000845328
-0.0317171
-0.00783042
-0.0312333
-0.0145758
-0.0302403
-0.0210607
-0.0287514
-0.0272598
-0.0267912
-0.0331383
-0.0243946
-0.0386483
-0.0216051
-0.0437273
-0.0184725
-0.0482995
-0.0150505
-0.05228
-0.0113956
-0.0555815
-0.00756607
-0.0581212
-0.00362118
-0.0598293
0.000378862
-0.0606554
0.0043735
-0.0605739
0.00830221
-0.0595875
0.0121049
-0.0577263
0.0157225
-0.0550448
0.019097
-0.0516156
0.0221723
-0.0475228
0.0248953
-0.0428539
0.0272171
-0.0376926
0.0290957
-0.0321126
0.0304977
-0.0261738
0.0314006
-0.0199215
0.031793
-0.0133887
0.0316742
-0.00659926
0.031053
0.000426129
0.0299461
0.0076648
0.0283776
0.0150861
0.026378
0.0226482
0.0239846
0.0302954
0.0212414
0.0379579
0.0182006
0.0455525
0.0149263
0.0529858
0.0115022
0.0601557
0.00803045
0.0669193
0.00458139
0.0729222
0.00113671
0.0772483
-0.0023146
0.0785377
-0.00575639
0.0762261
-0.00921414
0.0712836
-0.0126843
0.0650153
-0.0160773
0.058134
-0.0192946
0.0508988
-0.0222594
0.043433
-0.0249122
0.0358363
-0.0272034
0.0281993
-0.029091
0.0206012
-0.0305396
0.0131069
-0.0315205
0.00576663
-0.0320117
-0.00138271
-0.0319984
-0.00831482
-0.0314741
-0.01501
-0.0304423
-0.021449
-0.028917
-0.0276078
-0.0269237
-0.0334519
-0.0244979
-0.0389335
-0.0216833
-0.0439896
-0.0185295
-0.0485435
-0.0150899
-0.0525097
-0.0114203
-0.0558001
-0.00757834
-0.0583317
-0.00362251
-0.0600341
-0.0608569
0.00375751
-0.0641976
0.00711757
-0.0631495
0.0103576
-0.0611721
0.0134221
-0.0583219
0.0162583
-0.0546742
0.0188164
-0.0503169
0.0210506
-0.0453422
0.0229207
-0.0398401
0.0243932
-0.0338917
0.0254432
-0.0275657
0.0260551
-0.020917
0.0262233
-0.0139874
0.0259514
-0.00680945
0.0252519
0.000589641
0.024145
0.00818179
0.0226573
0.0159323
0.0208222
0.0237955
0.0186796
0.0317121
0.0162769
0.0396068
0.0136716
0.0473881
0.0109361
0.0549486
0.0081681
0.0621611
0.00550324
0.0688533
0.00309634
0.0746961
0.00100735
0.0789582
-0.000932399
0.0805204
-0.00303356
0.0787713
-0.00545417
0.0743692
-0.00812595
0.0684323
-0.0108922
0.0616719
-0.0136185
0.0544046
-0.0162082
0.0467974
-0.0185898
0.0389751
-0.0207064
0.031044
-0.0225111
0.0230949
-0.0239643
0.0152025
-0.0250334
0.00742659
-0.025692
-0.000186782
-0.0259206
-0.00760182
-0.0257075
-0.0147888
-0.02505
-0.0217183
-0.0239545
-0.0283553
-0.0224377
-0.0346551
-0.0205257
-0.0405603
-0.0182531
-0.0459999
-0.0156612
-0.0508914
-0.0127967
-0.0551445
-0.00971065
-0.0586675
-0.00645694
-0.0613749
-0.00309197
-0.0631943
0.000326386
-0.0640738
0.00373951
-0.0639871
0.00708885
-0.0629368
0.0103167
-0.0609542
0.0133672
-0.0580953
0.0161867
-0.0544351
0.018725
-0.0500611
0.0209363
-0.0450651
0.0227801
-0.0395364
0.0242235
-0.0335559
0.0252418
-0.0271921
0.0258203
-0.0205001
0.0259541
-0.0135225
0.0256477
-0.00629285
0.0249142
0.0011596
0.0237744
0.00880458
0.0222559
0.0166047
0.0203925
0.0245116
0.0182249
0.032463
0.0158018
0.040381
0.0131822
0.0481721
0.0104411
0.055727
0.00768074
0.062916
0.00504246
0.0695576
0.0026784
0.0752863
0.000624455
0.0793023
-0.001319
0.0804811
-0.00345858
0.0783657
-0.00591991
0.0737449
-0.00861429
0.0677097
-0.0113851
0.0609048
-0.0141035
0.0536172
-0.0166772
0.0460068
-0.0190371
0.0381962
-0.0211277
0.0302899
-0.022903
0.0223765
-0.0243244
0.0145283
-0.0253598
0.00680198
-0.0259834
-0.000759047
-0.0261767
-0.00812156
-0.0259286
-0.0152581
-0.025237
-0.0221406
-0.0241094
-0.0287354
-0.0225631
-0.0349983
-0.0206246
-0.040872
-0.0183289
-0.0462853
-0.0157171
-0.0511552
-0.0128359
-0.0553909
-0.00973561
-0.0589004
-0.00646977
-0.0615975
-0.00309405
-0.0634099
-0.0642853
0.00308894
-0.0670084
0.00584063
-0.0659011
0.0084802
-0.0638117
0.0109569
-0.0607986
0.0132233
-0.0569406
0.015236
-0.0523296
0.0169568
-0.047063
0.0183535
-0.0412368
0.019401
-0.0349393
0.0200826
-0.0282472
0.0203899
-0.0212243
0.0203237
-0.0139213
0.0198934
-0.00637915
0.0191162
0.0013669
0.0180164
0.00928158
0.0166249
0.0173237
0.0149789
0.0254415
0.0131222
0.0335688
0.0111065
0.0416224
0.0089944
0.0495003
0.00686386
0.0570792
0.00481706
0.0642079
0.00298917
0.0706812
0.00152793
0.0761574
0.000477172
0.080009
-0.000385189
0.0813828
-0.00145103
0.0798372
-0.0029305
0.0758487
-0.00477092
0.0702727
-0.00682246
0.0637234
-0.00895068
0.0565328
-0.0110544
0.0489011
-0.0130564
0.040977
-0.0148946
0.0328823
-0.0165179
0.0247181
-0.0178827
0.0165673
-0.0189523
0.00849622
-0.0196963
0.0005572
-0.0200907
-0.00720738
-0.0201191
-0.0147605
-0.0197727
-0.0220647
-0.0190517
-0.0290762
-0.0179653
-0.0357415
-0.0165313
-0.0419942
-0.0147759
-0.0477553
-0.0127323
-0.052935
-0.01044
-0.0574368
-0.00794339
-0.0611642
-0.00529112
-0.0640272
-0.00253496
-0.0659504
0.000271201
-0.0668799
0.00307245
-0.0667883
0.005814
-0.0656784
0.00844224
-0.0635825
0.0109059
-0.0605589
0.013157
-0.0566862
0.015152
-0.052056
0.0168524
-0.0467655
0.0182261
-0.0409101
0.0192484
-0.0345783
0.019903
-0.0278467
0.0201823
-0.0207794
0.0200878
-0.013428
0.0196296
-0.0058346
0.0188255
0.00196367
0.0177008
0.00992932
0.016287
0.0180185
0.014622
0.0261766
0.0127506
0.0343344
0.0107257
0.0424059
0.00861148
0.0502863
0.00648875
0.0578497
0.00446386
0.0649409
0.00267676
0.0713447
0.00127175
0.0766913
0.000265356
0.0803087
-0.000601879
0.0813484
-0.00171691
0.0794807
-0.00325082
0.0752788
-0.00512822
0.0695871
-0.0071985
0.062975
-0.0093322
0.0557509
-0.0114321
0.0481067
-0.0134234
0.0401874
-0.0152457
0.0321123
-0.0168489
0.0239797
-0.0181903
0.0158697
-0.019234
0.00784572
-0.0199503
-4.2753e-05
-0.020316
-0.00775588
-0.0203153
-0.0152588
-0.0199403
-0.0225156
-0.0191919
-0.0294838
-0.0180798
-0.0361103
-0.0166226
-0.0423292
-0.0148466
-0.0480614
-0.0127851
-0.0532167
-0.0104773
-0.0576987
-0.00796756
-0.0614102
-0.00530389
-0.0642612
-0.00253755
-0.0661762
-0.067101
0.00239124
-0.0691802
0.00450982
-0.0680197
0.00652789
-0.0658298
0.00840077
-0.0626715
0.0100876
-0.0586274
0.011552
-0.0537941
0.0127635
-0.0482745
0.0136978
-0.042171
0.0143376
-0.035579
0.0146734
-0.0285831
0.0147038
-0.0212548
0.0144356
-0.0136531
0.0138833
-0.00582679
0.0130686
0.00218157
0.0120202
0.01033
0.0107727
0.0185713
0.00936648
0.0268477
0.00784849
0.0350868
0.00627296
0.043198
0.00470381
0.0510694
0.0032181
0.0585649
0.00191073
0.0655152
0.000895884
0.0716961
0.000281178
0.0767721
6.8359e-05
0.0802218
3.07389e-05
0.0814204
-0.000196618
0.0800645
-0.000830524
0.0764826
-0.0018612
0.0713034
-0.00317843
0.0650407
-0.00466802
0.0580224
-0.00623562
0.0504687
-0.00780469
0.0425461
-0.00931179
0.0343894
-0.010703
0.0261093
-0.0119318
0.0177961
-0.012958
0.0095224
-0.0137472
0.00134648
-0.0142715
-0.00668316
-0.0145093
-0.0145227
-0.0144469
-0.0221271
-0.0140782
-0.0294449
-0.0134056
-0.0364141
-0.0124394
-0.0429604
-0.0111978
-0.0489969
-0.00970627
-0.0544265
-0.00799652
-0.0591466
-0.00610592
-0.0630548
-0.00407648
-0.0660566
-0.00195389
-0.068073
0.000213669
-0.0690475
0.00237682
-0.0689515
0.00448628
-0.0677878
0.00649423
-0.0655904
0.00835556
-0.0624203
0.010029
-0.0583597
0.0114782
-0.0535052
0.0126723
-0.0479596
0.0135873
-0.0418251
0.0142063
-0.0351972
0.0145203
-0.0281607
0.0145285
-0.0207876
0.0142383
-0.0131378
0.013665
-0.00526131
0.0128312
0.00279748
0.0117662
0.0109943
0.0105053
0.0192794
0.00908984
0.027592
0.00756754
0.0358567
0.00599381
0.0439796
0.0044341
0.051846
0.00296766
0.0593161
0.00169234
0.0662163
0.000724605
0.0723125
0.000166447
0.0772494
-4.98717e-06
0.0804801
-4.71388e-05
0.0813905
-0.000320986
0.0797546
-0.00101082
0.0759687
-0.00208579
0.070662
-0.00343236
0.0643216
-0.00493904
0.0572576
-0.00651432
0.049682
-0.00808372
0.0417568
-0.00958522
0.0336138
-0.010966
0.0253605
-0.0121804
0.0170841
-0.013189
0.00885431
-0.0139582
0.00072649
-0.0144607
-0.0072534
-0.0146759
-0.0150437
-0.0145905
-0.0226009
-0.0141995
-0.0298748
-0.0135056
-0.0368042
-0.0125198
-0.043315
-0.0112607
-0.0493206
-0.0097536
-0.0547238
-0.00803036
-0.0594219
-0.00612809
-0.0633124
-0.00408845
-0.0663008
-0.0019567
-0.0683079
-0.0692772
0.00166814
-0.0706897
0.00313228
-0.0694839
0.00451105
-0.0672085
0.00576723
-0.0639277
0.00686756
-0.0597277
0.00778359
-0.0547101
0.00849246
-0.0489834
0.00897747
-0.042656
0.00922869
-0.0358303
0.0092433
-0.0285977
0.00902587
-0.0210373
0.00858832
-0.0132156
0.00794971
-0.00518818
0.00713579
0.00299548
0.0061785
0.0112873
0.00511518
0.0196346
0.00398845
0.0279744
0.00284631
0.036229
0.00174282
0.0443015
0.000739242
0.052073
-9.43643e-05
0.0593985
-0.000678296
0.0660992
-0.000928003
0.0719458
-0.000781851
0.0766259
-0.000276371
0.0797163
0.000377341
0.0807667
0.000869832
0.079572
0.000997327
0.0763551
0.000729959
0.0715708
0.000132261
0.0656384
-0.000710543
0.0588652
-0.00171882
0.051477
-0.00282275
0.04365
-0.00396135
0.035528
-0.00508077
0.0272287
-0.00613323
0.0188486
-0.00707631
0.0104655
-0.0078729
0.00214307
-0.0084914
-0.00606466
-0.00890646
-0.0141076
-0.00909953
-0.021934
-0.00905931
-0.0294851
-0.00878196
-0.0366915
-0.00827109
-0.0434713
-0.00753755
-0.0497304
-0.006599
-0.0553651
-0.00547936
-0.0602662
-0.00420813
-0.064326