/*--------------------------------*- C++ -*----------------------------------*\
| =========                 |                                                 |
| \\      /  F ield         | OpenFOAM: The Open Source CFD Toolbox           |
|  \\    /   O peration     | Version:  2.3.0                                 |
|   \\  /    A nd           | Web:      www.OpenFOAM.org                      |
|    \\/     M anipulation  |                                                 |
\*---------------------------------------------------------------------------*/
FoamFile
{
    version     2.0;
    format      ascii;
    class       surfaceScalarField;
    location    "19000";
    object      phi;
}
// * * * * * * * * * * * * * * * * * * * * * * * * * * * * * * * * * * * * * //

dimensions      [0 3 -1 0 0 0 0];

internalField   nonuniform List<scalar> 
5988
(
3.61419e-08
-3.17994e-08
6.73939e-08
-3.1252e-08
9.76386e-08
-3.02447e-08
1.26449e-07
-2.88103e-08
1.5344e-07
-2.69908e-08
1.78276e-07
-2.48363e-08
2.00676e-07
-2.24e-08
2.20407e-07
-1.97313e-08
2.37267e-07
-1.68601e-08
2.51044e-07
-1.37765e-08
2.61458e-07
-1.04144e-08
2.68109e-07
-6.65044e-09
2.70436e-07
-2.32747e-09
2.67751e-07
2.68524e-09
2.59367e-07
8.38388e-09
2.44872e-07
1.44955e-08
2.24403e-07
2.04685e-08
1.98767e-07
2.56358e-08
1.69526e-07
2.92412e-08
1.38714e-07
3.08122e-08
1.08272e-07
3.04419e-08
7.97397e-08
2.85323e-08
5.38506e-08
2.58891e-08
3.04486e-08
2.3402e-08
8.72036e-09
2.17282e-08
-1.24903e-08
2.12107e-08
-3.44306e-08
2.19403e-08
-5.8217e-08
2.37864e-08
-8.45697e-08
2.63528e-08
-1.13498e-07
2.89281e-08
-1.44108e-07
3.06097e-08
-1.74749e-07
3.06418e-08
-2.03442e-07
2.86925e-08
-2.28185e-07
2.47436e-08
-2.47546e-07
1.93602e-08
-2.6084e-07
1.32945e-08
-2.6804e-07
7.19948e-09
-2.6963e-07
1.59015e-09
-2.66318e-07
-3.31227e-09
-2.58777e-07
-7.54042e-09
-2.4754e-07
-1.12368e-08
-2.32986e-07
-1.45545e-08
-2.1538e-07
-1.76061e-08
-1.94934e-07
-2.04453e-08
-1.71862e-07
-2.30719e-08
-1.46412e-07
-2.54506e-08
-1.18881e-07
-2.75305e-08
-8.96225e-08
-2.92589e-08
-5.90346e-08
-3.05879e-08
-2.75571e-08
-3.14775e-08
4.34067e-09
-3.18978e-08
3.61718e-08
-3.18312e-08
6.74528e-08
-3.1281e-08
9.77215e-08
-3.02686e-08
1.26548e-07
-2.88268e-08
1.53546e-07
-2.69978e-08
1.78377e-07
-2.48314e-08
2.00758e-07
-2.23806e-08
2.20452e-07
-1.96938e-08
2.37251e-07
-1.67988e-08
2.50933e-07
-1.36826e-08
2.61209e-07
-1.02752e-08
2.67659e-07
-6.45008e-09
2.69709e-07
-2.05001e-09
2.6666e-07
3.04904e-09
2.57835e-07
8.82423e-09
2.42862e-07
1.49733e-08
2.2194e-07
2.09225e-08
1.95948e-07
2.59919e-08
1.66517e-07
2.94307e-08
1.35696e-07
3.08212e-08
1.05408e-07
3.02882e-08
7.713e-08
2.82776e-08
5.15112e-08
2.56188e-08
2.83199e-08
2.31913e-08
6.69741e-09
2.16225e-08
-1.45306e-08
2.1228e-08
-3.66084e-08
2.20778e-08
-6.06279e-08
2.40195e-08
-8.72554e-08
2.66275e-08
-1.16419e-07
2.91632e-08
-1.47142e-07
3.07235e-08
-1.77728e-07
3.0586e-08
-2.06181e-07
2.84531e-08
-2.30534e-07
2.43529e-08
-2.49427e-07
1.88927e-08
-2.62247e-07
1.28202e-08
-2.69023e-07
6.77651e-09
-2.70272e-07
1.24902e-09
-2.66704e-07
-3.56836e-09
-2.58981e-07
-7.72351e-09
-2.47617e-07
-1.13633e-08
-2.32978e-07
-1.46396e-08
-2.15316e-07
-1.76614e-08
-1.94838e-07
-2.04786e-08
-1.7175e-07
-2.30881e-08
-1.46297e-07
-2.5453e-08
-1.18775e-07
-2.75216e-08
-8.95341e-08
-2.92409e-08
-5.89713e-08
-3.05629e-08
-2.75234e-08
-3.14478e-08
-3.18658e-08
5.46209e-08
-7.98703e-08
1.02308e-07
-7.89394e-08
1.4929e-07
-7.72259e-08
1.95268e-07
-7.4789e-08
2.39972e-07
-7.16951e-08
2.83132e-07
-6.79957e-08
3.24434e-07
-6.37023e-08
3.63471e-07
-5.87677e-08
3.99688e-07
-5.3077e-08
4.3236e-07
-4.64492e-08
4.60585e-07
-3.86391e-08
4.83272e-07
-2.93375e-08
4.99127e-07
-1.81823e-08
5.06622e-07
-4.81029e-09
5.04062e-07
1.09443e-08
4.8987e-07
2.8687e-08
4.63022e-07
4.73168e-08
4.23522e-07
6.51362e-08
3.73064e-07
7.96994e-08
3.15044e-07
8.88315e-08
2.53379e-07
9.21072e-08
1.91677e-07
9.02345e-08
1.32316e-07
8.52496e-08
7.599e-08
7.97281e-08
2.19673e-08
7.57509e-08
-3.1307e-08
7.4485e-08
-8.56197e-08
7.6253e-08
-1.42426e-07
8.05926e-08
-2.02245e-07
8.61713e-08
-2.64085e-07
9.07689e-08
-3.25297e-07
9.18219e-08
-3.82137e-07
8.74813e-08
-4.30712e-07
7.72678e-08
-4.67851e-07
6.18828e-08
-4.92205e-07
4.37137e-08
-5.04001e-07
2.5091e-08
-5.04401e-07
7.59852e-09
-4.95037e-07
-7.77324e-09
-4.77596e-07
-2.07535e-08
-4.53566e-07
-3.15698e-08
-4.2421e-07
-4.05932e-08
-3.90587e-07
-4.81779e-08
-3.53571e-07
-5.46216e-08
-3.13859e-07
-6.01576e-08
-2.71976e-07
-6.49551e-08
-2.2831e-07
-6.91157e-08
-1.83167e-07
-7.26741e-08
-1.36817e-07
-7.56091e-08
-8.95396e-08
-7.7865e-08
-4.16408e-08
-7.93763e-08
6.55091e-09
-8.00895e-08
5.46965e-08
-7.99768e-08
1.02458e-07
-7.90428e-08
1.49513e-07
-7.7323e-08
1.95562e-07
-7.48761e-08
2.40331e-07
-7.17672e-08
2.83545e-07
-6.80451e-08
3.24882e-07
-6.37175e-08
3.6392e-07
-5.8732e-08
4.0009e-07
-5.29684e-08
4.32647e-07
-4.62399e-08
4.60668e-07
-3.82956e-08
4.83039e-07
-2.88213e-08
4.98441e-07
-1.74521e-08
5.05321e-07
-3.83112e-09
5.01972e-07
1.21736e-08
4.86845e-07
3.01001e-08
4.58983e-07
4.87841e-08
4.18517e-07
6.64577e-08
3.67324e-07
8.06241e-08
3.08903e-07
8.92424e-08
2.47183e-07
9.2008e-08
1.85696e-07
8.9765e-08
1.26669e-07
8.46449e-08
7.06429e-08
7.92178e-08
1.67796e-08
7.54858e-08
-3.65214e-08
7.4529e-08
-9.10394e-08
7.65958e-08
-1.48168e-07
8.11485e-08
-2.08305e-07
8.67646e-08
-2.703e-07
9.11572e-08
-3.31366e-07
9.17901e-08
-3.87711e-07
8.69309e-08
-4.35471e-07
7.62129e-08
-4.71614e-07
6.0496e-08
-4.94964e-07
4.22431e-08
-5.05859e-07
2.37144e-08
-5.05513e-07
6.4306e-09
-4.95578e-07
-8.6857e-09
-4.77722e-07
-2.14243e-08
-4.53408e-07
-3.20376e-08
-4.23872e-07
-4.0899e-08
-3.90153e-07
-4.83592e-08
-3.53104e-07
-5.47102e-08
-3.13403e-07
-6.01797e-08
-2.7156e-07
-6.49312e-08
-2.27952e-07
-6.90609e-08
-1.82874e-07
-7.25988e-08
-1.36595e-07
-7.55201e-08
-8.93913e-08
-7.77668e-08
-4.15669e-08
-7.92723e-08
-7.99828e-08
6.12055e-08
-1.33735e-07
1.14568e-07
-1.32302e-07
1.6699e-07
-1.29648e-07
2.18034e-07
-1.25832e-07
2.67256e-07
-1.20918e-07
3.14202e-07
-1.14942e-07
3.58393e-07
-1.07893e-07
3.99323e-07
-9.96973e-08
4.36462e-07
-9.02164e-08
4.69273e-07
-7.926e-08
4.97233e-07
-6.65997e-08
5.19876e-07
-5.19803e-08
5.36828e-07
-3.51338e-08
5.47805e-07
-1.5788e-08
5.52372e-07
6.3772e-09
5.49247e-07
3.18121e-08
5.35798e-07
6.07663e-08
5.08809e-07
9.21249e-08
4.65994e-07
1.22515e-07
4.07584e-07
1.47242e-07
3.37375e-07
1.62316e-07
2.61063e-07
1.66547e-07
1.83285e-07
1.63028e-07
1.06464e-07
1.56549e-07
3.09866e-08
1.51229e-07
-4.39843e-08
1.49456e-07
-1.19629e-07
1.51898e-07
-1.96636e-07
1.57599e-07
-2.74308e-07
1.63844e-07
-3.49817e-07
1.66277e-07
-4.18204e-07
1.60209e-07
-4.73855e-07
1.43132e-07
-5.13599e-07
1.17011e-07
-5.37766e-07
8.60497e-08
-5.48934e-07
5.4882e-08
-5.50323e-07
2.64802e-08
-5.44338e-07
1.61309e-09
-5.32042e-07
-2.00689e-08
-5.13806e-07
-3.89901e-08
-4.89923e-07
-5.54528e-08
-4.6079e-07
-6.97257e-08
-4.26894e-07
-8.20741e-08
-3.88766e-07
-9.27491e-08
-3.46951e-07
-1.01973e-07
-3.01979e-07
-1.09928e-07
-2.54355e-07
-1.1674e-07
-2.04558e-07
-1.22471e-07
-1.53046e-07
-1.27121e-07
-1.00264e-07
-1.30647e-07
-4.66544e-08
-1.32986e-07
7.3401e-09
-1.34084e-07
6.12741e-08
-1.33911e-07
1.14703e-07
-1.32471e-07
1.67183e-07
-1.29804e-07
2.18274e-07
-1.25966e-07
2.67526e-07
-1.21019e-07
3.14478e-07
-1.14997e-07
3.58643e-07
-1.07883e-07
3.99509e-07
-9.95982e-08
4.3654e-07
-8.99992e-08
4.69192e-07
-7.8892e-08
4.96942e-07
-6.60452e-08
5.19323e-07
-5.12026e-08
5.35968e-07
-3.40972e-08
5.46595e-07
-1.44582e-08
5.50729e-07
8.04037e-09
5.46974e-07
3.38544e-08
5.32593e-07
6.31659e-08
5.0438e-07
9.46702e-08
4.60212e-07
1.24792e-07
4.00628e-07
1.48826e-07
3.29734e-07
1.62902e-07
2.53225e-07
1.66275e-07
1.75551e-07
1.62319e-07
9.89206e-08
1.55848e-07
2.3562e-08
1.50844e-07
-5.14295e-08
1.49521e-07
-1.27224e-07
1.5239e-07
-2.04417e-07
1.58341e-07
-2.82135e-07
1.64482e-07
-3.57325e-07
1.66348e-07
-4.24879e-07
1.59344e-07
-4.7927e-07
1.41322e-07
-5.17669e-07
1.14612e-07
-5.40679e-07
8.35067e-08
-5.51001e-07
5.25645e-08
-5.51826e-07
2.45402e-08
-5.45438e-07
4.16614e-11
-5.32804e-07
-2.13191e-08
-5.14272e-07
-3.99565e-08
-4.9014e-07
-5.61699e-08
-4.60809e-07
-7.02295e-08
-4.26767e-07
-8.24014e-08
-3.88542e-07
-9.29346e-08
-3.46674e-07
-1.02049e-07
-3.01684e-07
-1.09921e-07
-2.54072e-07
-1.16673e-07
-2.0431e-07
-1.22361e-07
-1.52847e-07
-1.26982e-07
-1.00126e-07
-1.30488e-07
-4.65834e-08
-1.32815e-07
-1.33907e-07
6.40142e-08
-1.90068e-07
1.19703e-07
-1.87991e-07
1.74185e-07
-1.84129e-07
2.26898e-07
-1.78546e-07
2.77289e-07
-1.71308e-07
3.24806e-07
-1.62459e-07
3.68913e-07
-1.52e-07
4.09096e-07
-1.39879e-07
4.44869e-07
-1.2599e-07
4.75795e-07
-1.10185e-07
5.01485e-07
-9.22904e-08
5.21619e-07
-7.21135e-08
5.35933e-07
-4.94486e-08
5.44199e-07
-2.40537e-08
5.4616e-07
4.4158e-09
5.41532e-07
3.64403e-08
5.30004e-07
7.22949e-08
5.10699e-07
1.1143e-07
4.80803e-07
1.5241e-07
4.35792e-07
1.92253e-07
3.73444e-07
2.24664e-07
2.96734e-07
2.43257e-07
2.12102e-07
2.4766e-07
1.24589e-07
2.44062e-07
3.64951e-08
2.39322e-07
-5.16105e-08
2.37561e-07
-1.39634e-07
2.39921e-07
-2.26801e-07
2.44766e-07
-3.10374e-07
2.47417e-07
-3.84858e-07
2.40761e-07
-4.44046e-07
2.19398e-07
-4.8594e-07
1.85027e-07
-5.13478e-07
1.44548e-07
-5.31103e-07
1.03675e-07
-5.4119e-07
6.49693e-08
-5.44426e-07
2.97154e-08
-5.41103e-07
-1.70951e-09
-5.31507e-07
-2.9665e-08
-5.15886e-07
-5.46114e-08
-4.94473e-07
-7.68651e-08
-4.67544e-07
-9.66547e-08
-4.35438e-07
-1.14181e-07
-3.98555e-07
-1.29632e-07
-3.57352e-07
-1.43176e-07
-3.12323e-07
-1.54956e-07
-2.63998e-07
-1.65065e-07
-2.12921e-07
-1.73547e-07
-1.59651e-07
-1.80391e-07
-1.0475e-07
-1.85548e-07
-4.87842e-08
-1.88952e-07
7.67622e-09
-1.90544e-07
6.40588e-08
-1.90293e-07
1.19791e-07
-1.88204e-07
1.74305e-07
-1.84317e-07
2.27035e-07
-1.78696e-07
2.77419e-07
-1.71403e-07
3.24901e-07
-1.6248e-07
3.68941e-07
-1.51923e-07
4.09017e-07
-1.39675e-07
4.44644e-07
-1.25626e-07
4.7538e-07
-1.09628e-07
5.00839e-07
-9.15044e-08
5.20701e-07
-7.10641e-08
5.34705e-07
-4.81018e-08
5.42621e-07
-2.23736e-08
5.44188e-07
6.47373e-09
5.3912e-07
3.89222e-08
5.27092e-07
7.51938e-08
5.07113e-07
1.14649e-07
4.76139e-07
1.55766e-07
4.29662e-07
1.95303e-07
3.65874e-07
2.26689e-07
2.8825e-07
2.43899e-07
2.0327e-07
2.47299e-07
1.15707e-07
2.43412e-07
2.76339e-08
2.38917e-07
-6.04771e-08
2.37632e-07
-1.48518e-07
2.40431e-07
-2.35581e-07
2.45405e-07
-3.18674e-07
2.47575e-07
-3.92069e-07
2.39743e-07
-4.49756e-07
2.17031e-07
-4.90259e-07
1.81824e-07
-5.16844e-07
1.41197e-07
-5.33862e-07
1.00525e-07
-5.43471e-07
6.2173e-08
-5.46278e-07
2.73471e-08
-5.42572e-07
-3.66382e-09
-5.32637e-07
-3.12548e-08
-5.16715e-07
-5.58786e-08
-4.9504e-07
-7.78443e-08
-4.6789e-07
-9.738e-08
-4.35604e-07
-1.14687e-07
-3.98585e-07
-1.29954e-07
-3.57285e-07
-1.43349e-07
-3.12197e-07
-1.55008e-07
-2.63844e-07
-1.65026e-07
-2.12766e-07
-1.73439e-07
-1.59516e-07
-1.80232e-07
-1.04651e-07
-1.85354e-07
-4.87302e-08
-1.88736e-07
-1.90318e-07
6.45652e-08
-2.46885e-07
1.20632e-07
-2.44058e-07
1.75295e-07
-2.38793e-07
2.27915e-07
-2.31166e-07
2.7787e-07
-2.21263e-07
3.24562e-07
-2.09151e-07
3.67431e-07
-1.9487e-07
4.05962e-07
-1.7841e-07
4.39694e-07
-1.59722e-07
4.68224e-07
-1.38715e-07
4.91204e-07
-1.1527e-07
5.08339e-07
-8.92494e-08
5.19382e-07
-6.04914e-08
5.24129e-07
-2.88008e-08
5.22469e-07
6.07572e-09
5.14488e-07
4.44214e-08
5.00451e-07
8.6332e-08
4.80427e-07
1.31454e-07
4.53815e-07
1.79022e-07
4.18589e-07
2.27479e-07
3.70063e-07
2.7319e-07
3.04004e-07
3.09315e-07
2.22628e-07
3.29036e-07
1.32652e-07
3.34038e-07
3.91451e-08
3.32829e-07
-5.51663e-08
3.31873e-07
-1.48253e-07
3.33008e-07
-2.3709e-07
3.33603e-07
-3.16126e-07
3.26453e-07
-3.78923e-07
3.03558e-07
-4.24549e-07
2.65024e-07
-4.57867e-07
2.18344e-07
-4.83081e-07
1.69762e-07
-5.01866e-07
1.22461e-07
-5.14668e-07
7.77706e-08
-5.21343e-07
3.63902e-08
-5.21641e-07
-1.41133e-09
-5.15521e-07
-3.57851e-08
-5.03119e-07
-6.70135e-08
-4.84649e-07
-9.53346e-08
-4.60372e-07
-1.20932e-07
-4.30595e-07
-1.43958e-07
-3.9568e-07
-1.64546e-07
-3.56048e-07
-1.82808e-07
-3.12177e-07
-1.98826e-07
-2.646e-07
-2.12643e-07
-2.13891e-07
-2.24256e-07
-1.60662e-07
-2.33621e-07
-1.05544e-07
-2.40665e-07
-4.91899e-08
-2.45306e-07
7.7406e-09
-2.47475e-07
6.45804e-08
-2.47133e-07
1.20664e-07
-2.44287e-07
1.75332e-07
-2.38985e-07
2.27938e-07
-2.31302e-07
2.77855e-07
-2.2132e-07
3.2448e-07
-2.09105e-07
3.67249e-07
-1.94692e-07
4.05644e-07
-1.78069e-07
4.39201e-07
-1.59183e-07
4.67516e-07
-1.37943e-07
4.90242e-07
-1.14231e-07
5.07086e-07
-8.79074e-08
5.17798e-07
-5.88144e-08
5.22181e-07
-2.67562e-08
5.20133e-07
8.52109e-09
5.11763e-07
4.7293e-08
4.97336e-07
8.96202e-08
4.76881e-07
1.35104e-07
4.49711e-07
1.82937e-07
4.13593e-07
2.31421e-07
3.6362e-07
2.76662e-07
2.95994e-07
3.11525e-07
2.13594e-07
3.29699e-07
1.23177e-07
3.33829e-07
2.95318e-08
3.32562e-07
-6.47602e-08
3.31924e-07
-1.57648e-07
3.33319e-07
-2.45913e-07
3.3367e-07
-3.23738e-07
3.254e-07
-3.84928e-07
3.00933e-07
-4.29247e-07
2.6135e-07
-4.61792e-07
2.14369e-07
-4.86495e-07
1.659e-07
-5.04867e-07
1.18897e-07
-5.17281e-07
7.45868e-08
-5.23564e-07
3.36305e-08
-5.23479e-07
-3.74929e-09
-5.17002e-07
-3.77316e-08
-5.04279e-07
-6.8602e-08
-4.85526e-07
-9.65973e-08
-4.61004e-07
-1.21902e-07
-4.31022e-07
-1.44669e-07
-3.95941e-07
-1.65034e-07
-3.56182e-07
-1.83108e-07
-3.12219e-07
-1.98971e-07
-2.64582e-07
-2.12663e-07
-2.13841e-07
-2.24179e-07
-1.60602e-07
-2.33471e-07
-1.05493e-07
-2.40463e-07
-4.91576e-08
-2.45071e-07
-2.47225e-07
6.3345e-08
-3.02625e-07
1.18263e-07
-2.98976e-07
1.71647e-07
-2.92176e-07
2.22804e-07
-2.82323e-07
2.71074e-07
-2.69533e-07
3.15838e-07
-2.53915e-07
3.56529e-07
-2.3556e-07
3.92639e-07
-2.14521e-07
4.2373e-07
-1.90813e-07
4.49427e-07
-1.64412e-07
4.6942e-07
-1.35263e-07
4.83454e-07
-1.03284e-07
4.91329e-07
-6.83663e-08
4.92909e-07
-3.03807e-08
4.88166e-07
1.08185e-08
4.77245e-07
5.53423e-08
4.60456e-07
1.03121e-07
4.38142e-07
1.53768e-07
4.10567e-07
2.06597e-07
3.77479e-07
2.60567e-07
3.36863e-07
3.13805e-07
2.83968e-07
3.62211e-07
2.1439e-07
3.98614e-07
1.30485e-07
4.17943e-07
3.89134e-08
4.24401e-07
-5.46491e-08
4.25435e-07
-1.45295e-07
4.23655e-07
-2.27074e-07
4.15382e-07
-2.93589e-07
3.92967e-07
-3.43792e-07
3.53761e-07
-3.82711e-07
3.03943e-07
-4.1463e-07
2.50264e-07
-4.41149e-07
1.9628e-07
-4.62351e-07
1.43663e-07
-4.77948e-07
9.33682e-08
-4.87593e-07
4.60345e-08
-4.90997e-07
1.9928e-09
-4.88052e-07
-3.87297e-08
-4.78812e-07
-7.62534e-08
-4.63429e-07
-1.10718e-07
-4.42115e-07
-1.42245e-07
-4.1514e-07
-1.70933e-07
-3.82831e-07
-1.96856e-07
-3.45579e-07
-2.2006e-07
-3.03845e-07
-2.40561e-07
-2.58155e-07
-2.58333e-07
-2.09095e-07
-2.73316e-07
-1.57302e-07
-2.85414e-07
-1.03451e-07
-2.94516e-07
-4.82452e-08
-3.00512e-07
7.59218e-09
-3.03312e-07
6.333e-08
-3.02871e-07
1.18238e-07
-2.99196e-07
1.71599e-07
-2.92346e-07
2.22714e-07
-2.82418e-07
2.7092e-07
-2.69525e-07
3.1559e-07
-2.53776e-07
3.56156e-07
-2.35257e-07
3.92107e-07
-2.1402e-07
4.23002e-07
-1.90079e-07
4.48467e-07
-1.63409e-07
4.68193e-07
-1.33956e-07
4.81925e-07
-1.01639e-07
4.89465e-07
-6.63544e-08
4.90683e-07
-2.79741e-08
4.85562e-07
1.36417e-08
4.74264e-07
5.85908e-08
4.57109e-07
1.06776e-07
4.34437e-07
1.57775e-07
4.06496e-07
2.10878e-07
3.7293e-07
2.64987e-07
3.31488e-07
3.18104e-07
2.77194e-07
3.65819e-07
2.06097e-07
4.00796e-07
1.21218e-07
4.18707e-07
2.9265e-08
4.24516e-07
-6.42399e-08
4.25429e-07
-1.54362e-07
4.23441e-07
-2.34984e-07
4.14292e-07
-2.99933e-07
3.90348e-07
-3.48888e-07
3.49889e-07
-3.87103e-07
2.99565e-07
-4.18593e-07
2.45859e-07
-4.44751e-07
1.92059e-07
-4.65594e-07
1.39739e-07
-4.80821e-07
8.98147e-08
-4.90087e-07
4.28957e-08
-4.93115e-07
-7.21121e-10
-4.89813e-07
-4.10329e-08
-4.80246e-07
-7.81695e-08
-4.64568e-07
-1.12275e-07
-4.42995e-07
-1.43474e-07
-4.15797e-07
-1.71868e-07
-3.83301e-07
-1.97531e-07
-3.45897e-07
-2.20512e-07
-3.04045e-07
-2.40823e-07
-2.58268e-07
-2.5844e-07
-2.09149e-07
-2.73298e-07
-1.5732e-07
-2.85301e-07
-1.03449e-07
-2.94334e-07
-4.82357e-08
-3.00285e-07
-3.03064e-07
6.06742e-08
-3.56015e-07
1.13198e-07
-3.515e-07
1.64112e-07
-3.4309e-07
2.12699e-07
-3.3091e-07
2.58282e-07
-3.15116e-07
3.0024e-07
-2.95873e-07
3.38012e-07
-2.73333e-07
3.71111e-07
-2.4762e-07
3.99123e-07
-2.18824e-07
4.21706e-07
-1.86995e-07
4.38588e-07
-1.52145e-07
4.49561e-07
-1.14257e-07
4.54482e-07
-7.32869e-08
4.53282e-07
-2.91812e-08
4.46002e-07
1.80991e-08
4.3282e-07
6.85244e-08
4.14045e-07
1.21896e-07
3.90047e-07
1.77766e-07
3.61204e-07
2.3544e-07
3.27809e-07
2.93961e-07
2.89628e-07
3.51986e-07
2.44579e-07
4.0726e-07
1.88066e-07
4.55127e-07
1.17113e-07
4.88896e-07
3.54113e-08
5.06103e-07
-4.95334e-08
5.1038e-07
-1.29826e-07
5.03947e-07
-1.98274e-07
4.8383e-07
-2.52342e-07
4.47035e-07
-2.95828e-07
3.97248e-07
-3.32998e-07
3.41113e-07
-3.65486e-07
2.82751e-07
-3.93368e-07
2.24163e-07
-4.16319e-07
1.66613e-07
-4.33956e-07
1.11006e-07
-4.45918e-07
5.79962e-08
-4.51914e-07
7.98856e-09
-4.51792e-07
-3.88514e-08
-4.45537e-07
-8.25081e-08
-4.33234e-07
-1.23021e-07
-4.15043e-07
-1.60437e-07
-3.91186e-07
-1.9479e-07
-3.61954e-07
-2.26088e-07
-3.27708e-07
-2.54307e-07
-2.88882e-07
-2.79386e-07
-2.45987e-07
-3.01228e-07
-1.99605e-07
-3.19698e-07
-1.50377e-07
-3.34642e-07
-9.89972e-08
-3.45896e-07
-4.61959e-08
-3.53313e-07
7.26968e-09
-3.56778e-07
6.06306e-08
-3.56232e-07
1.1312e-07
-3.51685e-07
1.63986e-07
-3.43212e-07
2.12507e-07
-3.30939e-07
2.58003e-07
-3.15021e-07
2.99846e-07
-2.95619e-07
3.37474e-07
-2.72885e-07
3.70398e-07
-2.46944e-07
3.98202e-07
-2.17882e-07
4.20544e-07
-1.85751e-07
4.37154e-07
-1.50566e-07
4.47826e-07
-1.12311e-07
4.52418e-07
-7.09466e-08
4.5087e-07
-2.64257e-08
4.4323e-07
2.12815e-08
4.29691e-07
7.21296e-08
4.10572e-07
1.25896e-07
3.86242e-07
1.82105e-07
3.57082e-07
2.40039e-07
3.23362e-07
2.98707e-07
2.84746e-07
3.5672e-07
2.38897e-07
4.11668e-07
1.81087e-07
4.58606e-07
1.08881e-07
4.90913e-07
2.65451e-08
5.06851e-07
-5.82992e-08
5.10273e-07
-1.3776e-07
5.02902e-07
-2.04869e-07
4.81401e-07
-2.57752e-07
4.43231e-07
-3.00564e-07
3.927e-07
-3.37349e-07
3.3635e-07
-3.69518e-07
2.78028e-07
-3.9708e-07
2.19621e-07
-4.19695e-07
1.62354e-07
-4.36983e-07
1.07103e-07
-4.48585e-07
5.4498e-08
-4.54222e-07
4.91598e-09
-4.53755e-07
-4.14999e-08
-4.47178e-07
-8.47472e-08
-4.34579e-07
-1.24873e-07
-4.16123e-07
-1.61931e-07
-3.92033e-07
-1.95957e-07
-3.62601e-07
-2.26963e-07
-3.28186e-07
-2.54926e-07
-2.89223e-07
-2.79786e-07
-2.4622e-07
-3.01443e-07
-1.99756e-07
-3.19763e-07
-1.50467e-07
-3.34589e-07
-9.90427e-08
-3.45758e-07
-4.62084e-08
-3.53119e-07
-3.56558e-07
5.68291e-08
-4.06019e-07
1.05953e-07
-4.00624e-07
1.53439e-07
-3.90576e-07
1.98567e-07
-3.76038e-07
2.40665e-07
-3.57214e-07
2.7912e-07
-3.34329e-07
3.13396e-07
-3.07608e-07
3.4303e-07
-2.77254e-07
3.67643e-07
-2.43437e-07
3.86933e-07
-2.06285e-07
4.00673e-07
-1.65886e-07
4.08709e-07
-1.22293e-07
4.10955e-07
-7.55327e-08
4.07406e-07
-2.56318e-08
3.98152e-07
2.73528e-08
3.83397e-07
8.32788e-08
3.63449e-07
1.41844e-07
3.38681e-07
2.02535e-07
3.095e-07
2.64621e-07
2.76314e-07
3.27148e-07
2.39396e-07
3.88904e-07
1.98426e-07
4.48229e-07
1.51359e-07
5.02195e-07
9.48394e-08
5.45415e-07
2.89598e-08
5.71983e-07
-4.03197e-08
5.7966e-07
-1.04828e-07
5.68456e-07
-1.59487e-07
5.3849e-07
-2.05186e-07
4.92733e-07
-2.45291e-07
4.37353e-07
-2.81471e-07
3.77294e-07
-3.13873e-07
3.15152e-07
-3.42181e-07
2.52471e-07
-3.65983e-07
1.90415e-07
-3.84874e-07
1.29896e-07
-3.98489e-07
7.16117e-08
-4.06539e-07
1.60382e-08
-4.08841e-07
-3.65496e-08
-4.05324e-07
-8.60248e-08
-3.96011e-07
-1.32333e-07
-3.81004e-07
-1.75444e-07
-3.60475e-07
-2.15319e-07
-3.3467e-07
-2.51893e-07
-3.0391e-07
-2.85067e-07
-2.68598e-07
-3.14698e-07
-2.29219e-07
-3.40606e-07
-1.86335e-07
-3.62582e-07
-1.40578e-07
-3.80399e-07
-9.26381e-08
-3.93836e-07
-4.32539e-08
-4.02697e-07
6.80652e-09
-4.06839e-07
5.67604e-08
-4.06186e-07
1.05827e-07
-4.00751e-07
1.53245e-07
-3.9063e-07
1.98288e-07
-3.75982e-07
2.40279e-07
-3.57012e-07
2.78605e-07
-3.33945e-07
3.12724e-07
-3.07004e-07
3.42174e-07
-2.76393e-07
3.66574e-07
-2.42282e-07
3.85623e-07
-2.04801e-07
3.99096e-07
-1.6404e-07
4.06841e-07
-1.20055e-07
4.08774e-07
-7.28804e-08
4.04899e-07
-2.255e-08
3.95313e-07
3.08675e-08
3.8023e-07
8.72123e-08
3.59965e-07
1.4616e-07
3.34896e-07
2.07174e-07
3.05436e-07
2.69499e-07
2.71983e-07
3.3216e-07
2.34789e-07
3.93914e-07
1.93423e-07
4.53034e-07
1.4563e-07
5.06399e-07
8.81344e-08
5.48409e-07
2.16071e-08
5.73379e-07
-4.75607e-08
5.79441e-07
-1.11271e-07
5.66612e-07
-1.64977e-07
5.35107e-07
-2.10054e-07
4.88308e-07
-2.49814e-07
4.32461e-07
-2.85727e-07
3.72263e-07
-3.1786e-07
3.1016e-07
-3.45882e-07
2.47643e-07
-3.69378e-07
1.8585e-07
-3.87948e-07
1.25673e-07
-4.01232e-07
6.77823e-08
-4.08949e-07
1.26328e-08
-4.10926e-07
-3.95226e-08
-4.07101e-07
-8.85722e-08
-3.97502e-07
-1.34472e-07
-3.82233e-07
-1.772e-07
-3.6147e-07
-2.16721e-07
-3.35457e-07
-2.52975e-07
-3.04519e-07
-2.85864e-07
-2.69058e-07
-3.15248e-07
-2.29555e-07
-3.40946e-07
-1.86569e-07
-3.62748e-07
-1.40731e-07
-3.80428e-07
-9.27255e-08
-3.93763e-07
-4.32862e-08
-4.02558e-07
-4.06668e-07
5.20345e-08
-4.51804e-07
9.69455e-08
-4.45535e-07
1.40236e-07
-4.33867e-07
1.81198e-07
-4.17e-07
2.19179e-07
-3.95194e-07
2.53593e-07
-3.68743e-07
2.83934e-07
-3.37949e-07
3.09778e-07
-3.03098e-07
3.30785e-07
-2.64444e-07
3.46702e-07
-2.22201e-07
3.57351e-07
-1.76536e-07
3.62633e-07
-1.27575e-07
3.62523e-07
-7.54222e-08
3.57073e-07
-2.01818e-08
3.46423e-07
3.8003e-08
3.30805e-07
9.88962e-08
3.10538e-07
1.62111e-07
2.86003e-07
2.2707e-07
2.57632e-07
2.92992e-07
2.25891e-07
3.58889e-07
1.91257e-07
4.23538e-07
1.54093e-07
4.85393e-07
1.14179e-07
5.42109e-07
7.01738e-08
5.89421e-07
2.13247e-08
6.20832e-07
-2.95394e-08
6.30524e-07
-7.76134e-08
6.1653e-07
-1.20753e-07
5.81629e-07
-1.60073e-07
5.32054e-07
-1.96743e-07
4.74023e-07
-2.30823e-07
4.11374e-07
-2.61908e-07
3.46238e-07
-2.89522e-07
2.80085e-07
-3.132e-07
2.14093e-07
-3.32519e-07
1.49215e-07
-3.47107e-07
8.61995e-08
-3.5666e-07
2.55912e-08
-3.60963e-07
-3.22469e-08
-3.59893e-07
-8.70943e-08
-3.53415e-07
-1.38811e-07
-3.41571e-07
-1.87289e-07
-3.24477e-07
-2.32412e-07
-3.02331e-07
-2.7404e-07
-2.75408e-07
-3.1199e-07
-2.44071e-07
-3.46035e-07
-2.08767e-07
-3.7591e-07
-1.70029e-07
-4.01321e-07
-1.28463e-07
-4.21966e-07
-8.47418e-08
-4.37557e-07
-3.95912e-08
-4.47848e-07
6.2298e-09
-4.5266e-07
5.19451e-08
-4.51901e-07
9.67811e-08
-4.45587e-07
1.39986e-07
-4.33835e-07
1.80848e-07
-4.16844e-07
2.1871e-07
-3.94874e-07
2.52985e-07
-3.6822e-07
2.83163e-07
-3.37183e-07
3.0882e-07
-3.0205e-07
3.29617e-07
-2.63079e-07
3.453e-07
-2.20484e-07
3.55695e-07
-1.74434e-07
3.60704e-07
-1.25064e-07
3.60306e-07
-7.24828e-08
3.5456e-07
-1.68044e-08
3.43614e-07
4.18144e-08
3.27706e-07
1.0312e-07
3.07163e-07
1.66704e-07
2.8237e-07
2.31966e-07
2.53765e-07
2.98104e-07
2.21818e-07
3.64107e-07
1.87002e-07
4.28729e-07
1.49656e-07
4.9038e-07
1.09461e-07
5.46594e-07
6.50038e-08
5.92866e-07
1.57836e-08
6.22599e-07
-3.50118e-08
6.30236e-07
-8.26495e-08
6.1425e-07
-1.25375e-07
5.77832e-07
-1.64454e-07
5.27387e-07
-2.00947e-07
4.68954e-07
-2.3484e-07
4.06156e-07
-2.65711e-07
3.41031e-07
-2.93084e-07
2.75016e-07
-3.16499e-07
2.09265e-07
-3.35536e-07
1.4471e-07
-3.49831e-07
8.20765e-08
-3.59085e-07
2.18875e-08
-3.63093e-07
-3.5515e-08
-3.61738e-07
-8.99267e-08
-3.5499e-07
-1.4122e-07
-3.42895e-07
-1.89295e-07
-3.25573e-07
-2.34043e-07
-3.03221e-07
-2.75327e-07
-2.76117e-07
-3.12969e-07
-2.44622e-07
-3.46743e-07
-2.09183e-07
-3.76384e-07
-1.7033e-07
-4.01601e-07
-1.28668e-07
-4.22091e-07
-8.48641e-08
-4.37567e-07
-3.96401e-08
-4.47782e-07
-4.52558e-07
4.64744e-08
-4.92696e-07
8.65207e-08
-4.85581e-07
1.25002e-07
-4.72348e-07
1.61239e-07
-4.53237e-07
1.94614e-07
-4.28569e-07
2.24578e-07
-3.98708e-07
2.50667e-07
-3.64038e-07
2.72502e-07
-3.24933e-07
2.89792e-07
-2.81735e-07
3.02334e-07
-2.34743e-07
3.10005e-07
-1.84207e-07
3.12763e-07
-1.30333e-07
3.10641e-07
-7.33004e-08
3.03749e-07
-1.32899e-08
2.92276e-07
4.94764e-08
2.7649e-07
1.14682e-07
2.56737e-07
1.81864e-07
2.33423e-07
2.50384e-07
2.07017e-07
3.19398e-07
1.78052e-07
3.87854e-07
1.47133e-07
4.54457e-07
1.14942e-07
5.17583e-07
8.20948e-08
5.74957e-07
4.87322e-08
6.22783e-07
1.4556e-08
6.55008e-07
-2.00414e-08
6.65121e-07
-5.40586e-08
6.50547e-07
-8.72878e-08
6.14858e-07
-1.20013e-07
5.64779e-07
-1.51979e-07
5.05989e-07
-1.82533e-07
4.41928e-07
-2.11005e-07
3.74709e-07
-2.368e-07
3.0588e-07
-2.59398e-07
2.36691e-07
-2.78341e-07
1.68158e-07
-2.93231e-07
1.0109e-07
-3.03738e-07
3.60981e-08
-3.09606e-07
-2.63787e-08
-3.10663e-07
-8.60378e-08
-3.06814e-07
-1.4266e-07
-2.98042e-07
-1.9606e-07
-2.8441e-07
-2.46044e-07
-2.66058e-07
-2.92392e-07
-2.43212e-07
-3.34835e-07
-2.16186e-07
-3.7306e-07
-1.85384e-07
-4.06712e-07
-1.51296e-07
-4.35409e-07
-1.14491e-07
-4.5877e-07
-7.56104e-08
-4.76437e-07
-3.53485e-08
-4.8811e-07
5.56172e-09
-4.9357e-07
4.63697e-08
-4.92709e-07
8.63276e-08
-4.85545e-07
1.24711e-07
-4.72218e-07
1.60838e-07
-4.52971e-07
1.94087e-07
-4.28123e-07
2.23908e-07
-3.9804e-07
2.49833e-07
-3.63108e-07
2.71485e-07
-3.23702e-07
2.88574e-07
-2.80167e-07
3.00895e-07
-2.32805e-07
3.08332e-07
-1.8187e-07
3.10843e-07
-1.27575e-07
3.08466e-07
-7.01061e-08
3.01317e-07
-9.65525e-09
2.8959e-07
5.3541e-08
2.73562e-07
1.19148e-07
2.53584e-07
1.86682e-07
2.30069e-07
2.55481e-07
2.03492e-07
3.24681e-07
1.74392e-07
3.93206e-07
1.43385e-07
4.59737e-07
1.11156e-07
5.22609e-07
7.8297e-08
5.79453e-07
4.48873e-08
6.26276e-07
1.06424e-08
6.56844e-07
-2.39404e-08
6.64819e-07
-5.78839e-08
6.48193e-07
-9.10803e-08
6.11028e-07
-1.23791e-07
5.60099e-07
-1.55706e-07
5.00869e-07
-1.86158e-07
4.36609e-07
-2.14484e-07
3.69357e-07
-2.40099e-07
3.00631e-07
-2.62488e-07
2.31654e-07
-2.812e-07
1.63422e-07
-2.95844e-07
9.67203e-08
-3.06095e-07
3.21383e-08
-3.11705e-07
-2.99051e-08
-3.12507e-07
-8.91247e-08
-3.08412e-07
-1.45315e-07
-2.99409e-07
-1.98299e-07
-2.8556e-07
-2.47892e-07
-2.6701e-07
-2.93878e-07
-2.43985e-07
-3.35994e-07
-2.168e-07
-3.73927e-07
-1.85858e-07
-4.07326e-07
-1.51647e-07
-4.35812e-07
-1.14735e-07
-4.59003e-07
-7.57593e-08
-4.76543e-07
-3.54104e-08
-4.88131e-07
-4.93552e-07
4.02975e-08
-5.28151e-07
7.49556e-08
-5.20239e-07
1.08139e-07
-5.05531e-07
1.39213e-07
-4.84312e-07
1.67607e-07
-4.56962e-07
1.92821e-07
-4.23922e-07
2.1444e-07
-3.85657e-07
2.32137e-07
-3.4263e-07
2.45676e-07
-2.95273e-07
2.54906e-07
-2.43973e-07
2.59762e-07
-1.89063e-07
2.60257e-07
-1.30828e-07
2.56483e-07
-6.95259e-08
2.48602e-07
-5.4095e-09
2.36854e-07
6.12246e-08
2.21549e-07
1.29987e-07
2.03066e-07
2.00347e-07
1.81848e-07
2.71601e-07
1.58406e-07
3.4284e-07
1.33331e-07
4.1293e-07
1.07314e-07
4.80473e-07
8.11755e-08
5.43722e-07
5.58131e-08
6.00319e-07
3.18922e-08
6.46704e-07
9.33414e-09
6.77566e-07
-1.27395e-08
6.87195e-07
-3.5482e-08
6.73289e-07
-5.96587e-08
6.39035e-07
-8.51895e-08
5.9031e-07
-1.11329e-07
5.32128e-07
-1.37178e-07
4.67777e-07
-1.6194e-07
3.99471e-07
-1.84941e-07
3.28882e-07
-2.05607e-07
2.57357e-07
-2.23439e-07
1.8599e-07
-2.38004e-07
1.15655e-07
-2.48936e-07
4.70296e-08
-2.55936e-07
-1.93789e-08
-2.5878e-07
-8.31937e-08
-2.57319e-07
-1.44121e-07
-2.51479e-07
-2.01899e-07
-2.41265e-07
-2.56259e-07
-2.26762e-07
-3.06895e-07
-2.0814e-07
-3.53457e-07
-1.85662e-07
-3.95538e-07
-1.59679e-07
-4.32696e-07
-1.30629e-07
-4.6446e-07
-9.90335e-08
-4.90365e-07
-6.54869e-08
-5.09984e-07
-3.06392e-08
-5.22957e-07
4.82012e-09
-5.29029e-07
4.01829e-08
-5.28072e-07
7.47441e-08
-5.20106e-07
1.07823e-07
-5.05297e-07
1.38782e-07
-4.83931e-07
1.67047e-07
-4.56388e-07
1.92118e-07
-4.23111e-07
2.13579e-07
-3.84569e-07
2.31104e-07
-3.41227e-07
2.44455e-07
-2.93519e-07
2.53485e-07
-2.41836e-07
2.58132e-07
-1.86517e-07
2.58412e-07
-1.27855e-07
2.54421e-07
-6.61149e-08
2.46328e-07
-1.5621e-09
2.34377e-07
6.54921e-08
2.18885e-07
1.34639e-07
2.00237e-07
2.05329e-07
1.78884e-07
2.76834e-07
1.55344e-07
3.48222e-07
1.30215e-07
4.18335e-07
1.04203e-07
4.85748e-07
7.81399e-08
5.48672e-07
5.29219e-08
6.04671e-07
2.91659e-08
6.50032e-07
6.70804e-09
6.79301e-07
-1.53823e-08
6.86909e-07
-3.82499e-08
6.71061e-07
-6.25936e-08
6.35372e-07
-8.82521e-08
5.85757e-07
-1.14446e-07
5.27063e-07
-1.40283e-07
4.62445e-07
-1.64978e-07
3.94052e-07
-1.8787e-07
3.23523e-07
-2.08392e-07
2.52176e-07
-2.26052e-07
1.81082e-07
-2.40424e-07
1.11093e-07
-2.51149e-07
4.28626e-08
-2.57933e-07
-2.31208e-08
-2.60559e-07
-8.64984e-08
-2.58883e-07
-1.46991e-07
-2.52835e-07
-2.04346e-07
-2.42423e-07
-2.58304e-07
-2.27735e-07
-3.08566e-07
-2.08943e-07
-3.54785e-07
-1.8631e-07
-3.9656e-07
-1.60186e-07
-4.3345e-07
-1.31011e-07
-4.64988e-07
-9.9303e-08
-4.90711e-07
-6.56536e-08
-5.10192e-07
-3.071e-08
-5.23075e-07
-5.29103e-07
3.36226e-08
-5.57733e-07
6.24726e-08
-5.49089e-07
8.99708e-08
-5.33029e-07
1.15542e-07
-5.09883e-07
1.38672e-07
-4.80092e-07
1.58921e-07
-4.4417e-07
1.75931e-07
-4.02667e-07
1.89434e-07
-3.56133e-07
1.99248e-07
-3.05088e-07
2.0528e-07
-2.50005e-07
2.07518e-07
-1.91301e-07
2.06031e-07
-1.29342e-07
2.00963e-07
-6.44574e-08
1.92527e-07
3.02582e-09
1.8101e-07
7.27426e-08
1.6676e-07
1.44237e-07
1.50191e-07
2.16916e-07
1.31777e-07
2.90015e-07
1.12061e-07
3.62556e-07
9.16617e-08
4.33329e-07
7.12944e-08
5.00841e-07
5.178e-08
5.63236e-07
3.39915e-08
6.18108e-07
1.85673e-08
6.62128e-07
5.31501e-09
6.90818e-07
-7.14148e-09
6.99651e-07
-2.0701e-08
6.86849e-07
-3.65455e-08
6.54879e-07
-5.4674e-08
6.08438e-07
-7.4368e-08
5.51822e-07
-9.4751e-08
4.8816e-07
-1.15019e-07
4.19739e-07
-1.34475e-07
3.48338e-07
-1.52513e-07
2.75395e-07
-1.68604e-07
2.02081e-07
-1.82283e-07
1.29335e-07
-1.93149e-07
5.78953e-08
-2.00862e-07
-1.16659e-08
-2.05151e-07
-7.89046e-08
-2.05816e-07
-1.43457e-07
-2.02728e-07
-2.04987e-07
-1.95837e-07
-2.6315e-07
-1.85173e-07
-3.17559e-07
-1.70852e-07
-3.67778e-07
-1.53076e-07
-4.13314e-07
-1.32139e-07
-4.53633e-07
-1.08421e-07
-4.88177e-07
-8.23854e-08
-5.16401e-07
-5.45658e-08
-5.37804e-07
-2.55538e-08
-5.51969e-07
4.01927e-09
-5.58602e-07
3.35038e-08
-5.57556e-07
6.2253e-08
-5.48856e-07
8.96444e-08
-5.32688e-07
1.151e-07
-5.09387e-07
1.38105e-07
-4.79393e-07
1.58217e-07
-4.43224e-07
1.7508e-07