/*--------------------------------*- C++ -*----------------------------------*\
| =========                 |                                                 |
| \\      /  F ield         | OpenFOAM: The Open Source CFD Toolbox           |
|  \\    /   O peration     | Version:  2.3.0                                 |
|   \\  /    A nd           | Web:      www.OpenFOAM.org                      |
|    \\/     M anipulation  |                                                 |
\*---------------------------------------------------------------------------*/
FoamFile
{
    version     2.0;
    format      ascii;
    class       volScalarField;
    location    "19000";
    object      T;
}
// * * * * * * * * * * * * * * * * * * * * * * * * * * * * * * * * * * * * * //

dimensions      [0 0 0 1 0 0 0];

internalField   nonuniform List<scalar> 
3060
(
33.5882
33.6145
33.6629
33.7315
33.8179
33.9187
34.0302
34.148
34.2678
34.3853
34.4973
34.6097
34.7242
34.8402
34.9579
35.0778
35.2002
35.324
35.4471
35.5668
35.6796
35.7815
35.8685
35.9358
35.9788
35.9935
35.9778
35.9338
35.8656
35.778
35.6755
35.5623
35.4422
35.3187
35.1947
35.072
34.9517
34.8337
34.7172
34.6026
34.4901
34.3779
34.2598
34.1406
34.0241
33.9146
33.8162
33.7329
33.6677
33.6229
33.6008
33.603
33.6292
33.6776
33.7462
33.8324
33.9329
34.044
34.1613
34.2804
34.3974
34.5095
34.6222
34.7373
34.854
34.9724
35.0931
35.216
35.3402
35.4633
35.5824
35.6941
35.7944
35.879
35.9432
35.9826
35.9931
35.9733
35.9257
35.8546
35.7648
35.6606
35.5464
35.4259
35.3025
35.1788
35.0568
34.9372
34.8198
34.704
34.5899
34.4778
34.3654
34.2468
34.127
34.01
33.9001
33.8015
33.7181
33.6528
33.6081
33.586
28.2095
28.2743
28.394
28.5634
28.7764
29.0254
29.302
29.5975
29.9047
30.2209
30.5482
30.883
31.2262
31.5731
31.9234
32.2809
32.6457
33.0144
33.3809
33.7362
34.0708
34.374
34.6336
34.836
34.9664
35.0113
34.9632
34.8299
34.6252
34.3636
34.0587
33.7227
33.3662
32.9988
32.6292
32.2636
31.9051
31.5536
31.2048
30.861
30.5263
30.1999
29.8862
29.5816
29.2898
29.018
28.7752
28.5695
28.4084
28.2979
28.2432
28.2485
28.3132
28.4328
28.6021
28.8148
29.0633
29.3391
29.6336
29.94
30.256
30.5837
30.9199
31.2653
31.614
31.9666
32.3263
32.6929
33.0626
33.4289
33.7826
34.114
34.4123
34.6651
34.8585
34.9779
35.0102
34.9495
34.8056
34.5923
34.3242
34.0147
33.6758
33.3179
32.9504
32.5819
32.2182
31.8618
31.5124
31.1656
30.8239
30.4904
30.1643
29.8502
29.5447
29.252
28.9795
28.7362
28.5303
28.3692
28.2588
28.2041
23.5194
23.6088
23.774
24.0082
24.3035
24.6507
25.0397
25.4611
25.9073
26.3743
26.8619
27.371
27.9041
28.4655
29.0385
29.6265
30.2266
30.832
31.4314
32.0109
32.556
33.0506
33.476
33.8099
34.027
34.1027
34.0217
33.8
33.4623
33.0337
32.5364
31.989
31.4075
30.8064
30.1998
29.5984
29.0092
28.4346
27.8735
27.341
26.8331
26.3474
25.8835
25.4413
25.0253
24.6431
24.3045
24.0193
23.7964
23.6439
23.5683
23.5756
23.6649
23.8301
24.0642
24.3594
24.7061
25.0947
25.5158
25.9619
26.4296
26.9189
27.4308
27.9677
28.533
29.11
29.7015
30.3044
30.911
31.5098
32.0865
32.6265
33.1134
33.5279
33.8474
34.0464
34.1007
33.9988
33.7596
33.4081
32.9692
32.4646
31.9125
31.3285
30.7271
30.1219
29.5234
28.9376
28.3661
27.8097
27.2809
26.7756
26.2915
25.828
25.3857
24.9693
24.5868
24.248
23.9627
23.7399
23.5874
23.512
19.6346
19.7379
19.9291
20.2009
20.5448
20.9514
21.4113
21.9156
22.4574
23.0328
23.641
24.2832
24.9618
25.6789
26.4305
27.209
28.0104
28.8249
29.6366
30.4244
31.1661
31.8389
32.4185
32.8755
33.1749
33.2801
33.1677
32.8621
32.4
31.8162
31.1398
30.395
29.6047
28.7911
27.9752
27.1729
26.3937
25.6413
24.9256
24.2485
23.6083
23.0029
22.4313
21.8945
21.3967
20.9449
20.548
20.2156
19.9569
19.7801
19.6926
19.701
19.8043
19.9957
20.2677
20.6117
21.0186
21.4789
21.9838
22.5267
23.1041
23.7154
24.3619
25.0459
25.7698
26.5262
27.3097
28.1153
28.9322
29.7434
30.5275
31.2623
31.9245
32.4895
32.9272
33.2019
33.2773
33.1359
32.8065
32.3258
31.7283
31.0419
30.2906
29.4972
28.6837
27.8705
27.0725
26.2986
25.5518
24.8418
24.1697
23.5335
22.9309
22.3611
21.8254
21.3282
20.8768
20.4803
20.1482
19.8898
19.7133
19.6261
16.5602
16.6709
16.8764
17.1688
17.5399
17.9808
18.4826
19.0376
19.64
20.2864
20.9759
21.7099
22.4906
23.3204
24.1999
25.1218
26.0792
27.0597
28.0448
29.0095
29.924
30.7556
31.4723
32.0385
32.4109
32.5424
32.4021
32.0221
31.4498
30.728
29.892
28.9741
28.0068
27.02
26.0385
25.0808
24.159
23.2802
22.4519
21.6731
20.9416
20.2553
19.6131
19.0162
18.468
17.9747
17.5442
17.1851
16.9063
16.7161
16.6221
16.6312
16.742
16.9478
17.2409
17.6127
18.0545
18.5576
19.1144
19.7193
20.369
21.0629
21.8025
22.5899
23.4272
24.3141
25.2429
26.206
27.1901
28.1757
29.1369
30.0431
30.8618
31.5605
32.1029
32.4446
32.5389
32.3624
31.9529
31.3578
30.6189
29.7707
28.8453
27.8752
26.8895
25.912
24.9603
24.0455
23.1742
22.3529
21.5805
20.8543
20.1722
19.5332
18.9386
18.3921
17.9002
17.4707
17.1124
16.8344
16.6447
16.5511
14.2201
14.3356
14.5502
14.8557
15.2438
15.7056
16.2328
16.8183
17.457
18.146
18.8849
19.6755
20.5207
21.424
22.3883
23.4093
24.4781
25.5806
26.6961
27.797
28.8486
29.8113
30.6427
31.299
31.7307
31.8833
31.7207
31.2804
30.617
29.7798
28.8125
27.7574
26.6541
25.5372
24.4342
23.3656
22.3454
21.3827
20.4812
19.6381
18.8501
18.1143
17.4294
16.7961
16.2173
15.6985
15.247
14.871
14.5793
14.3805
14.2823
14.2916
14.4074
14.6225
14.929
15.3184
15.7818
16.3112
16.8995
17.5417
18.2352
18.9798
19.7771
20.6301
21.5422
22.5156
23.5452
24.6213
25.7287
26.8458
27.9436
28.9868
29.9348
30.7453
31.3739
31.77
31.8792
31.6745
31.1999
30.51
29.6529
28.672
27.6093
26.5038
25.3891
24.2914
23.2303
22.2188
21.2651
20.3721
19.5366
18.7551
18.0247
17.3442
16.7143
16.1382
15.6216
15.1717
14.7971
14.5065
14.3084
14.2106
12.4931
12.6135
12.8371
13.1552
13.5585
14.0377
14.5841
15.1906
15.852
16.5659
17.3323
18.1537
19.0341
19.9787
20.993
22.075
23.2153
24.3989
25.6039
26.8004
27.9507
29.0099
29.9281
30.6524
31.1271
31.2942
31.1163
30.6323
29.9003
28.9759
27.912
26.7584
25.5598
24.3537
23.17
22.0304
20.9497
19.9375
18.9947
18.1161
17.297
16.5333
15.823
15.1663
14.5661
14.0277
13.5584
13.1671
12.8631
12.6556
12.5531
12.5628
12.6836
12.9079
13.2272
13.6322
14.1137
14.6629
15.2729
15.9387
16.658
17.4309
18.26
19.1493
20.1039
21.1287
22.2208
23.3697
24.5595
25.767
26.9612
28.103
29.1467
30.0418
30.7351
31.1702
31.2898
31.0654
30.5433
29.7816
28.8355
27.7573
26.5963
25.3961
24.1932
23.0161
21.8854
20.8148
19.813
18.8799
18.01
17.1984
16.441
15.7359
15.0835
14.4867
13.951
13.484
13.0945
12.7918
12.5853
12.4833
11.2445
11.3716
11.6072
11.9418
12.3645
12.8645
13.4318
14.0582
14.7381
15.4686
16.2503
17.0862
17.9818
18.9445
19.9821
21.0943
22.2724
23.5015
24.7593
26.0144
27.2266
28.3473
29.3214
30.0894
30.5901
30.7651
30.5789
30.0684
29.2924
28.312
27.1866
25.9713
24.7144
23.456
22.2271
21.0499
19.9392
18.9037
17.9426
17.0483
16.2138
15.434
14.7061
14.0301
13.4091
12.8492
12.3589
11.9482
11.6281
11.4092
11.301
11.3112
11.4386
11.6752
12.0112
12.4359
12.9385
13.509
14.1394
14.8242
15.5608
16.3496
17.1939
18.0992
19.0727
20.122
21.2454
22.4333
23.6697
24.9308
26.1842
27.388
28.4928
29.4424
30.177
30.6355
30.7604
30.5253
29.974
29.1662
28.1628
27.0227
25.8002
24.5424
23.2881
22.0668
20.8996
19.8001
18.7762
17.8257
16.9408
16.1145
15.3417
14.6195
13.9483
13.3313
12.7746
12.2868
11.8782
11.5597
11.3418
11.2342
10.3476
10.4839
10.7366
11.0941
11.5436
12.0719
12.6668
13.318
14.0187
14.7652
15.5577
16.4003
17.2996
18.2649
19.3067
20.4257
21.6147
22.8598
24.1388
25.4198
26.6609
27.8109
28.8112
29.5984
30.1089
30.2857
30.0976
29.5772
28.7818
27.7752
26.6207
25.3768
24.0943
22.8148
21.5701
20.3822
19.2645
18.2245
17.2601
16.3612
15.519
14.727
13.9819
13.284
12.6372
12.0492
11.5304
11.0932
10.7508
10.5161
10.3999
10.4109
10.5476
10.8012
11.1603
11.6119
12.143
12.7413
13.3969
14.1027
14.8555
15.6556
16.507
17.4164
18.3931
19.4474
20.5784
21.778
23.0311
24.3142
25.5939
26.8268
27.9605
28.9355
29.6881
30.1549
30.2809
30.0431
29.4805
28.652
27.6217
26.4523
25.2013
23.9185
22.6438
21.4076
20.2304
19.1247
18.097
17.1438
16.2548
15.4211
14.6364
13.8974
13.2045
12.5619
11.9774
11.4613
11.0263
10.6857
10.4521
10.3366
9.69562
9.84413
10.1191
10.507
10.9921
11.5582
12.1898
12.8742
13.6022
14.3688
15.1738
16.0212
16.9191
17.8784
18.9116
20.0205
21.1998
22.4373
23.7115
24.9906
26.2319
27.3829
28.3832
29.168
29.6739
29.8475
29.6628
29.1471
28.3542
27.3477
26.1924
24.9484
23.6679
22.3935
21.1564
19.9779
18.87
17.8378
16.8785
15.9798
15.1313
14.3254
13.5587
12.8322
12.1514
11.526
10.9694
10.4972
10.1256
9.8701
9.74363
9.75552
9.90445
10.1804
10.5699
11.0572
11.6261
12.2613
12.9501
13.6833
14.4563
15.2689
16.1253
17.0335
18.0043
19.0504
20.1717
21.3621
22.6081
23.8868
25.1649
26.3982
27.5328
28.5074
29.2571
29.7192
29.8429
29.609
29.0509
28.2244
27.1939
26.0236
24.7727
23.4923
22.223
20.9949
19.8276
18.7321
17.7124
16.7646
15.876
15.0361
14.2375
13.477
12.7556
12.079
11.4572
10.9035
10.4335
10.0637
9.80937
9.68359
9.20525
9.36869
9.67108
10.0965
10.626
11.2395
11.9179
12.6451
13.4089
14.2026
15.0248
15.8795
16.7755
17.725
18.742
19.8292
20.9838
22.1955
23.4442
24.6987
25.9165
27.0449
28.0233
28.788
29.2779
29.4448
29.2673
28.7678
27.9952
27.0107
25.8782
24.6578
23.4021
22.1531
20.9416
19.7874
18.7005
17.6834
16.7327
15.8345
14.977
14.1523
13.357
12.5932
11.8687
11.1962
10.5924
10.0766
9.669
9.38805
9.24897
9.26205
9.42591
9.7293
10.1563
10.688
11.3043
11.9863
12.7178
13.4868
14.2867
15.1164
15.98
16.8863
17.8476
18.8771
19.9766
21.1423
22.3627
23.6161
24.8697
26.0796
27.1916
28.1445
28.8744
29.3215
29.4404
29.2154
28.6743
27.8685
26.86
25.7126
24.4855
23.2299
21.9863
20.7839
19.6409
18.5663
17.5617
16.6224
15.7341
14.8852
14.0676
13.2783
12.5196
11.7993
11.1302
10.5293
10.0159
9.61005
9.33036
9.192
8.81517
8.99588
9.33013
9.79936
10.3809
11.0507
11.7852
12.5644
13.373
14.2017
15.0477
15.9144
16.811
17.7506
18.7471
19.8053
20.9249
22.0976
23.3049
24.517
25.6924
26.7794
27.719
28.45
28.9157
29.0734
28.9057
28.4308
27.6921
26.7466
25.6555
24.4777
23.2643
22.0566
20.8838
19.7639
18.7049
17.7069
16.7648
15.8644
14.9932
14.1429
13.3109
12.5011
11.7236
10.9947
10.3351
9.7684
9.3188
9.00837
8.85474
8.8692
9.05031
9.38555
9.85636
10.4401
11.1126
11.8506
12.634
13.4476
14.2823
15.1355
16.0107
16.9172
17.8683
18.8769
19.9471
21.0775
22.2587
23.4706
24.6818
25.8493
26.9202
27.8348
28.5322
28.9569
29.0692
28.8566
28.3418
27.5709
26.6019
25.4961
24.3115
23.0983
21.8958
20.7319
19.623
18.5759
17.5897
16.6588
15.768
14.905
14.0615
13.2353
12.4303
11.6569
10.9314
10.2746
9.71028
9.2625
8.95337
8.80051
8.48221
8.68198
9.05151
9.56943
10.2092
10.9422
11.7407
12.58
13.4415
14.3129
15.1895
16.074
16.9751
17.9064
18.8812
19.9068
20.985
22.1097
23.2641
24.4204
25.5392
26.5708
27.459
28.1468
28.5828
28.7297
28.5734
28.1287
27.4335
26.5397
25.5041
24.3828
23.2251
22.0699
20.9446
19.8653
18.8378
17.86
16.9245
16.0178
15.1271
14.2442
13.3679
12.5039
11.6655
10.8725
10.1502
9.52668
9.03047
8.68742
8.51777
8.53376
8.73391
9.10442
9.62391
10.2659
11.0016
11.8034
12.6467
13.5129
14.39
15.2734
16.1659
17.0764
18.0185
19.0047
20.0416
21.1302
22.2628
23.4215
24.5768
25.6877
26.7036
27.5678
28.2236
28.6211
28.7257
28.5276
28.0454
27.3195
26.403
25.353
24.2251
23.0673
21.917
20.8001
19.7312
18.7149
17.7483
16.8233
15.9256
15.0425
14.1661
13.2952
12.4357
11.6012
10.8116
10.0921
9.47088
8.97653
8.63484
8.46598
8.17693
8.39696
8.80407
9.37393
10.0761
10.8773
11.7452
12.6509
13.5717
14.4924
15.4062
16.3141
17.2244
18.1502
19.1044
20.0965
21.1303
22.2013
23.2951
24.3862
25.4382
26.405
27.2326
27.8707
28.2739
28.4095
28.265
27.8536
27.2086
26.3756
25.4049
24.3502
23.2574
22.1623
21.09
20.0542
19.059
18.1003
17.1685
16.2508
15.3346
14.4128
13.4856
12.561
11.6556
10.7931
10.0033
9.31893
8.77302
8.39527
8.2086
8.22622
8.44661
8.85469
9.42613
10.1304
10.9343
11.8054
12.7149
13.6402
14.5662
15.4863
16.4016
17.3205
18.2563
19.2209
20.2235
21.2667
22.3449
23.4425
24.5323
25.5769
26.5282
27.333
27.9413
28.3089
28.4058
28.2229
27.7769
27.1032
26.2486
25.2637
24.2027
23.1094
22.0187
20.9541
19.9277
18.9429
17.9945
17.0722
16.1627
15.2535
14.3377
13.4154
12.4951
11.5934
10.7342
9.94719
9.26521
8.72121
8.34487
8.15905
7.87968
8.12059
8.56636
9.18966
9.956
10.8278
11.7681
12.7438
13.7284
14.7035
15.6598
16.5966
17.5208
18.4447
19.3807
20.3409
21.3303
22.3448
23.3732
24.3926
25.3702
26.2642
27.0275
27.6142
27.9843
28.1087
27.9759
27.5982
27.0049
26.2364
25.3385
24.358
23.3365
22.3064
21.2897
20.2972
19.3326
18.3905
17.4587
16.5251
15.5782
14.6122
13.6291
12.6397
11.6637
10.7288
9.86926
9.12224
8.5252
8.11173
7.90753
7.92684
8.16809
8.61484
9.23974
10.0082
10.8827
11.8262
12.8055
13.7943
14.7743
15.7363
16.6798
17.6118
18.5445
19.4899
20.4597
21.4573
22.4781
23.5094
24.5272
25.4973
26.377
27.1191
27.6785
28.0162
28.1053
27.9376
27.5282
26.9085
26.12
25.2089
24.222
23.1996
22.173
21.1629
20.1787
19.2236
18.2906
17.3673
16.4411
15.5004
14.5397
13.5612
12.5759
11.6034
10.6717
9.815
9.07042
8.47537
8.06337
7.86008
7.57736
7.83926
8.32363
8.99999
9.82993
10.7717
11.7846
12.8312
13.8813
14.9136
15.9164
16.8867
17.8295
18.7554
19.6764
20.6054
21.5493
22.5071
23.469
24.4154
25.3173
26.1378
26.8361
27.3715
27.7087
27.8221
27.7009
27.3564
26.8148
26.1114
25.2868
24.3819
23.4329
22.4684
21.5076
20.5595
19.6247
18.6959
17.7603
16.8063
15.8242
14.8102
13.7686
12.7128
11.6655
10.6581
9.72936
8.92029
8.27246
7.82329
7.60144
7.62245
7.88469
8.37006
9.04804
9.88016
10.8246
11.8408
12.8908
13.9448
14.9817
15.9896
16.9659
17.9155
18.8489
19.7781
20.7152
21.6663
22.6293
23.5935
24.5379
25.4325
26.2399
26.9189
27.4295
27.7375
27.819
27.6663
27.2932
26.7276
26.006
25.1691
24.2578
23.3076
22.3459
21.3906
20.4497
19.5229
18.6021
17.6736
16.726
15.7494
14.7402
13.7028
12.6507
11.6068
10.6027
9.67684
8.87028
8.22452
7.77691
7.55602
7.26108
7.54382
8.0656
8.79269
9.68297
10.6909
11.772
12.8858
13.9994
15.0887
16.1392
17.1458
18.1109
19.0428
19.9534
20.856
21.759
22.6632
23.5612
24.4366
25.2647
26.0138
26.6486
27.1342
27.4396
27.5423
27.4322
27.12
26.6284
25.9885
25.2352
24.4037
23.5251
22.6237
21.7154
20.807
19.8972
18.9772
18.0338
17.0559
16.0362
14.9731
13.8735
12.7534
11.6386
10.5634
9.5692
8.70118
8.0047
7.52081
7.28134
7.3041
7.58717
8.10999
8.83875
9.73127
10.7419
11.8261
12.9433
14.0607
15.1541
16.2093
17.2211
18.1919
19.1301
20.0475
20.957
21.8659
22.7744
23.6739
24.5471
25.3682
26.1052
26.7226
27.186
27.4653
27.5395
27.4012
27.0634
26.5504
25.8939
25.1294
24.2917
23.4115
22.512
21.6081
20.7057
19.8025
18.8892
17.9516
16.9791
15.9641
14.9053
13.8096
12.6931
11.5817
10.5096
9.51838
8.65296
7.95865
7.4764
7.23797
6.92339
7.22525
7.78078
8.55312
9.49701
10.5639
11.7065
12.882
14.055
15.1991
16.2973
17.3417
18.3322
19.2743
20.1799
21.0623
21.9306
22.787
23.6265
24.4359
25.1947
25.8766
26.4516
26.8901
27.1654
27.2579
27.1584
26.8765
26.4322
25.852
25.1658
24.403
23.5897
22.746
21.8844
21.0095
20.1184
19.2021
18.2468
17.2421
16.1833
15.0716
13.9166
12.7366
11.56
10.4236
9.37116
8.45077
7.71081
7.19554
6.93986
6.96427
7.26647
7.82307
8.59713
9.54332
10.613
11.7587
12.9375
14.1142
15.2621
16.3645
17.4134
18.4087
19.3559
20.267
21.1549
22.0279
22.8875
23.7277
24.5346
25.2869
25.9577
26.5172
26.9359
27.1881
27.2554
27.1308
26.8263
26.3629
25.7679
25.0714
24.3027
23.4874
22.6447
21.7864
20.9163
20.0305
19.1194
18.1688
17.1685
16.1138
15.0059
13.8544
12.678
11.5047
10.3715
9.3221
8.40441
7.66672
7.15317
6.89858
6.55873
6.8766
7.46001
8.26942
9.25723
10.3728
11.5671
12.7956
14.0212
15.2154
16.359
17.4413
18.4594
19.4158
20.3221
21.1912
22.0322
22.8485
23.637
24.3878
25.0843
25.7051
26.2255
26.6208
26.8686
26.9517
26.8618
26.6077
26.2066
25.6809
25.0554
24.3543
23.5989
22.8051
21.9825
21.1336
20.2546
19.3362
18.3654
17.332
16.2344
15.0768
13.8712
12.6386
11.4091
10.2214
9.12095
8.15766
7.38205
6.84081
6.57154
6.59738
6.91559
7.5001
8.3113
9.30149
10.4199
11.6173
12.8492
14.0783
15.2762
16.4234
17.5096
18.5316
19.4919
20.4026
21.2759
22.1204
22.9389
23.7275
24.4754
25.1658
25.7765
26.2832
26.661
26.8885
26.9494
26.8375
26.5635
26.1455
25.6066
24.9716
24.2649
23.5071
22.7137
21.8933
21.0479
20.1729
19.2585
18.2912
17.2613
16.1672
15.013
13.8108
12.5816
11.3555
10.1711
9.07377
8.11328
7.34003
6.80059
6.53247
6.16322
6.49275
7.09605
7.93165
8.95053
10.1011
11.3336
12.6028
13.8706
15.1071
16.2908
17.4088
18.455
19.4287
20.3412
21.2041
22.026
22.8111
23.5579
24.2591
24.902
25.4695
25.942
26.2991
26.5224
26.5971
26.5158
26.2862
25.9232
25.4453
24.8725
24.2244
23.5177
22.7647
21.9722
21.1411
20.2672
19.3415
18.3524
17.2902
16.1565
14.9585
13.7107
12.4362
11.1664
9.94088
8.80602
7.8124
7.0116
6.45178
6.17259
6.1995
6.52939
7.13382
7.97127
8.99262
10.1462
11.3818
12.6544
13.9257
15.1656
16.3528
17.474
18.5233
19.5
20.4157
21.2817
22.1061
22.8924
23.6385
24.3367
24.9737
25.5322
25.9924
26.3343
26.5397
26.595
26.4944
26.2475
25.8696
25.3799
24.7985
24.1449
23.4355
22.6821
21.8908
21.0621
20.191
19.2683
18.2816
17.2222
16.0915
14.8966
13.6521
12.381
11.1146
9.8925
8.76088
7.77017
6.97181
6.41387
6.13586
5.73419
6.06986
6.68301
7.53117
8.56502
9.73326
10.9865
12.2799
13.5753
14.8419
16.0569
17.2049
18.2769
19.2691
20.1917
21.0547
21.8657
22.6288
23.3438
24.0055
24.6046
25.128
25.5601
25.8849
26.0872
26.1547
26.0805
25.8719
25.541
25.103
24.5739
23.9689
23.3007
22.5786
21.807
20.986
20.111
19.1744
18.1661
17.0778
15.9142
14.6852
13.4078
12.1062
10.8128
9.56706
8.41503
7.40686
6.59394
6.02487
5.74041
5.76795
6.10398
6.7183
7.56837
8.60476
9.77602
11.0326
12.3294
13.6283
14.8982
16.1163
17.2671
18.3416
19.3361
20.2611
21.1262
21.9386
22.7021
23.4158
24.0743
24.6677
25.1828
25.6041
25.9154
26.1022
26.1527
26.0618
25.8379
25.4941
25.0456
24.5086
23.8982
23.227
22.5038
21.7325
20.9128
20.0397
19.105
18.0985
17.0124
15.8513
14.6253
13.3511
12.053
10.763
9.52085
8.37216
7.36698
6.55658
5.98943
5.70619
5.26993
5.60509
6.2161
7.06051
8.08996
9.25466
10.5069
11.8033
13.1067
14.3864
15.6186
16.7861
17.8775
18.8859
19.8199
20.6872
21.4937
22.243
22.9356
23.568
24.1334
24.6219
25.0217
25.3203
25.5055
25.567
25.4987
25.3069
25.0019
24.5958
24.1009
23.5288
22.8892
22.1885
21.4298
20.6124
19.7327
18.7843
17.7598
16.6523
15.4696
14.2243
12.9347
11.626
10.3302
9.08606
7.93783
6.93405
6.12466
5.55747
5.27338
5.30099
5.63652
6.24873
7.0951
8.12715
9.29494
10.5506
11.8505
13.1574
14.4403
15.6754
16.8454
17.9387
18.9489
19.8847
20.7533
21.5604
22.3094
23.0002
23.6291
24.189
24.67
25.0601
25.3469
25.5186
25.5652
25.4822
25.2771
24.9607
24.5451
24.0429
23.4657
22.8227
22.1204
21.3612
20.5443
19.6655
18.7184
17.695
16.5894
15.409
14.1665
12.8802
11.575
10.2829
9.04232
7.89752
6.89679
6.08997
5.52472
5.24186
4.76956
5.09655
5.69165
6.51358
7.51616
8.65241
9.87751
11.1508
12.437
13.7065
14.9355
16.1059
17.2043
18.2215
19.1634
20.0348
20.8398
21.5808
22.2582
22.8697
23.4101
23.8724
24.2475
24.5258
24.6976
24.7544
24.6905
24.5118
24.2267
23.8448
23.3755
22.8276
22.2082
21.5219
20.7709
19.9546
19.0705
18.1144
17.0818
15.968
14.7835
13.5425
12.2643
10.974
9.70219
8.48556
7.36575
6.3883
5.60044
5.04792
4.77069
4.79773
5.1251
5.7214
6.54529
7.5505
8.68988
9.91844
11.1953
12.485
13.7577
14.9896
16.1621
17.2618
18.2809
19.2242
20.0963
20.9013
21.6413
22.3165
22.9243
23.4596
23.9149
24.2812
24.549
24.709
24.7527
24.6759
24.4855
24.1902
23.7998
23.3237
22.7708
22.1478
21.4593
20.7073
19.8908
19.007
18.0517
17.0199
15.9078
14.7255
13.4874
12.2125
10.9257
9.65768
8.44472
7.32836
6.35398
5.56868
5.01808
4.74207
4.23301
4.54335
5.1073
5.88596
6.83655
7.91606
9.08376
10.3027
11.5407
12.7701
13.9684
15.1172
16.2022
17.2135
18.1529
19.0218
19.8222
20.555
21.2199
21.815
22.3364
22.7785
23.1346
23.3972
23.5587
23.6117
23.5512
23.3824
23.1126
22.7492
22.2995
21.7702
21.1666
20.4923
19.7491
18.9374
18.056
17.1034
16.0783
14.979
13.8174
12.6087
11.3721
10.1313
8.91469
7.75571
6.69219
5.76559
5.01921
4.49551
4.23233
4.25808
4.5688
5.13394
5.91453
6.86771
7.95033
9.12147
10.344
11.5855
12.8182
14.0193
15.1704
16.2568
17.2697
18.21
19.0792
19.8791
20.6105
21.273
21.8644
22.3807
22.8163
23.1644
23.4177
23.5686
23.6101
23.5382
23.3591
23.0801
22.7089
22.2529
21.7186
21.1113
20.4345
19.6899
18.8775
17.9962
17.0441
16.0197
14.922
13.7627
12.557
11.3237
10.0865
8.87359
7.71826
6.65815
5.73456
4.99066
4.46883
4.20682
3.66104
3.94571
4.46235
5.17555
6.04708
7.03897
8.11552
9.24449
10.3976
11.5505
12.6827
13.7772
14.8199
15.8008
16.7174
17.568
18.352
19.0686
19.7165
20.2933
20.7958
21.2193
21.5586
21.8076
21.9602
22.01
21.9524
21.7922
21.5356
21.1887
20.7572
20.2465
19.6608
19.0035
18.2768
17.4818
16.6196
15.6911
14.6984
13.6433
12.538
11.3973
10.2389
9.08411
7.95819
6.89027
5.91345
5.06406
4.38042
3.90059
3.65912
3.68281
3.96784
4.48561
5.20066
6.07467
7.06954
8.14942
9.2819
10.4385
11.5947
12.7298
13.8267
14.8711
15.8534
16.7707
17.6214
18.4047
19.1196
19.7648
20.338
20.8356
21.2531
21.5851
21.8258
21.9689
22.0085
21.9407
21.7713
21.5065
21.1524
20.715
20.1995
19.6102
18.9502
18.2218
17.426
16.5636
15.6356
14.6438
13.5904
12.4875
11.3498
10.1947
9.04352
7.92121
6.85681
5.88324
5.03671
4.35542
3.87733
3.63695
3.05537
3.30517
3.75802
4.38311
5.14771
6.01972
6.96925
7.96946
8.99683
10.0311
11.055
12.054
13.0157
13.9311
14.7935
15.5986
16.3432
17.0248
17.6409
18.1885
18.6642
19.0639
19.383
19.6166
19.7594
19.8058
19.7515
19.601
19.3598
19.0329
18.6253
18.1414
17.5852
16.9601
16.269
15.5144
14.699
13.8264
12.9015
11.9299
10.9225
9.89223
8.85418
7.82627
6.82948
5.88807
5.02961
4.28456
3.68538
3.26473
3.05278
3.07362
3.32376
3.77765
4.40442
5.17128
6.04602
6.99864
8.00213
9.03283
10.0703
11.0972
12.0986
13.0623
13.979
14.8422
15.6473
16.3911
17.0711
17.6845
18.2286
18.6998
19.0939
19.4065
19.6326
19.7671
19.8043
19.741
19.5823
19.3338
19.0005
18.5874
18.099
17.5393
16.9116
16.2188
15.4634
14.6479
13.7759
12.8522
11.8825
10.8776
9.85025
8.8154
7.79085
6.79743
5.85926
5.00377
4.26131
3.66424
3.24515
3.03418
2.41865
2.62469
2.99786
3.51288
4.14334
4.86364
5.6502
6.48203
7.34087
8.2111
9.07954
9.93512
10.7686
11.5731
12.3387
13.0589
13.7287
14.3441
14.9017
15.3979
15.8289
16.1909
16.4795
16.6905
16.8194
16.8611
16.8118
16.6757
16.4574
16.1614
15.7921
15.3535
14.8495
14.2838
13.66
12.9818
12.2532
11.4794
10.6679
9.82737
8.96599
8.0933
7.22082
6.36226
5.53382
4.75436
4.04545
3.43119
2.9375
2.59082
2.41595
2.43318
2.63952
3.01357
3.53003
4.16242
4.88507
5.6743
6.509
7.3708
8.24396
9.11517
9.97327
10.8089
11.6148
12.3812
13.1015
13.7706
14.3846
14.9399
15.4329
15.8599
16.2169
16.4998
16.7044
16.826
16.8598
16.8027
16.6594
16.4347
16.1332
15.759
15.3164
14.8093
14.2413
13.6161
12.9371
12.2086
11.4357
10.6257
9.78728
8.9283
8.0583
7.18869
6.33309
5.50758
4.73089
4.02452
3.41245
2.92055
2.57518
2.40113
1.75454
1.9088
2.18791
2.57301
3.04462
3.58407
4.17435
4.8005
5.44968
6.11113
6.77606
7.43759
8.09063
8.73131
9.34812
9.93337
10.4814
10.9878
11.4485
11.8597
12.2176
12.5185
12.7586
12.9342
13.0414
13.0761
13.0349
12.9214
12.7396
12.4932
12.1861
11.8219
11.4043
10.9372
10.4243
9.86979
9.27829
8.65569
8.01006
7.35321
6.68838
6.02105
5.35853
4.71002
4.08674
3.50197
2.97116
2.51169
2.14253
1.88318
1.75223
1.76515
1.91964
2.19943
2.58564
3.05874
3.6
4.19236
4.82077
5.47231
6.13616
6.80347
7.4673
8.12253
8.76467
9.38229
9.96772
10.5153
11.0206
11.4794
11.888
12.2426
12.5396
12.7751
12.9454
13.0467
13.075
13.0275
12.9082
12.7212
12.4703
12.1593
11.7918
11.3717
10.9028
10.3888
9.83382
9.24259
8.62103
7.97746
7.32243
6.65966
5.99455
5.33433
4.68816
4.06715
3.48454
2.95567
2.49789
2.13008
1.87174
1.7414
1.06764
1.1635
1.33679
1.57572
1.86826
2.20296
2.5695
2.95891
3.36364
3.77758
4.19614
4.6164
5.03754
5.45966
5.87132
6.26563
6.63777
6.98384
7.30038
7.58415
7.83201
8.04092
8.20793
8.33018
8.40486
8.42901
8.40023
8.32108
8.19443
8.02308
7.80987
7.55772
7.26968
6.9489
6.59866
6.22249
5.82439
5.40939
4.98467
4.56224
4.14062
3.72102
3.30669
2.90256
2.51504
2.15197
1.82264
1.53762
1.30854
1.14749
1.06609
1.07414
1.17015
1.34387
1.5835
1.87698
2.21283
2.58069
2.97155
3.37781
3.79335
4.21356
4.63557
5.05864
5.48197
5.89433
6.28889
6.6608
7.00617
7.3215
7.60355
7.84918
8.05538
8.21921
8.33785
8.40852
8.42825
8.39512
8.31201
8.1818
8.00732
7.79144
7.53711
7.24739
6.92543
6.57452
6.19818
5.80043
5.38638
4.96351
4.54263
4.12252
3.70442
3.2916
2.88896
2.50289
2.14118
1.81307
1.52911
1.30088
1.14047
1.05946
0.363333
0.39622
0.45557
0.537249
0.637042
0.750961
0.87544
1.00741
1.14436
1.28434
1.4261
1.56947
1.71639
1.87084
2.02427
2.17306
2.31494
2.4481
2.57087
2.68167
2.779
2.86139
2.92747
2.97595
3.00558
3.01517
3.00374
2.97233
2.92213
2.85435
2.77031
2.67136
2.55898
2.43469
2.30008
2.15683
2.00682
1.8524
1.69734
1.55077
1.40722
1.26518
1.12509
0.988327
0.856957
0.733619
0.621485
0.524222
0.445886
0.390712
0.362782
0.365544
0.398481
0.457977
0.539893
0.640004
0.75431
0.879231
1.01169
1.14915
1.28968
1.43205
1.57616
1.72427
1.87932
2.0331
2.18205
2.32392
2.45685
2.57918
2.68934
2.78581
2.86714
2.93196
2.979
3.00704
3.01487
3.00171
2.96872
2.9171
2.84809
2.763
2.66322
2.55022
2.42551
2.2907
2.14745
1.99766
1.84373
1.68972
1.54403
1.40108
1.25958
1.12
0.983732
0.852843
0.729957
0.618235
0.521328
0.443282
0.388323
0.360525
)
;

boundaryField
{
    top
    {
        type            fixedValue;
        value           uniform 0;
    }
    bottom
    {
        type            fixedValue;
        value           uniform 36.5;
    }
    frontAndBack
    {
        type            empty;
    }
    left_cyc
    {
        type            cyclic;
    }
    right_cyc
    {
        type            cyclic;
    }
}


// ************************************************************************* //
