/*--------------------------------*- C++ -*----------------------------------*\
| =========                 |                                                 |
| \\      /  F ield         | OpenFOAM: The Open Source CFD Toolbox           |
|  \\    /   O peration     | Version:  2.3.0                                 |
|   \\  /    A nd           | Web:      www.OpenFOAM.org                      |
|    \\/     M anipulation  |                                                 |
\*---------------------------------------------------------------------------*/
FoamFile
{
    version     2.0;
    format      ascii;
    class       volVectorField;
    location    "19000";
    object      U;
}
// * * * * * * * * * * * * * * * * * * * * * * * * * * * * * * * * * * * * * //

dimensions      [0 1 -1 0 0 0 0];

internalField   nonuniform List<vector> 
765
(
(2.04097 0 -2.29244)
(5.22835 0 -2.20063)
(8.18737 0 -2.01452)
(10.7766 0 -1.72024)
(12.8538 0 -1.29884)
(14.2628 0 -0.708696)
(14.8112 0 0.113122)
(14.2547 0 1.10443)
(12.3995 0 1.73072)
(9.52831 0 1.66041)
(6.16609 0 1.34589)
(2.98968 0 1.02092)
(0.287591 0 0.845505)
(-2.34552 0 0.958863)
(-5.40611 0 1.27125)
(-8.79608 0 1.59826)
(-11.8299 0 1.75678)
(-13.9605 0 1.3122)
(-14.81 0 0.335845)
(-14.4945 0 -0.539345)
(-13.2684 0 -1.17731)
(-11.3346 0 -1.63223)
(-8.85552 0 -1.95341)
(-5.97414 0 -2.16354)
(-2.83082 0 -2.27649)
(0.433321 0 -2.3057)
(3.67921 0 -2.25536)
(6.76724 0 -2.11807)
(9.55615 0 -1.88011)
(11.906 0 -1.52698)
(13.6713 0 -1.03085)
(14.6812 0 -0.33535)
(14.7218 0 0.592673)
(13.534 0 1.50843)
(11.1224 0 1.74975)
(7.93849 0 1.51787)
(4.56712 0 1.18598)
(1.63971 0 0.90082)
(-0.945046 0 0.861659)
(-3.74698 0 1.09923)
(-7.03921 0 1.43033)
(-10.3332 0 1.71406)
(-12.9937 0 1.65068)
(-14.5237 0 0.854154)
(-14.7748 0 -0.11677)
(-13.9902 0 -0.875544)
(-12.3978 0 -1.4176)
(-10.1792 0 -1.80443)
(-7.48477 0 -2.0704)
(-4.4556 0 -2.23176)
(-1.23343 0 -2.30238)
(2.26918 0 -4.93665)
(5.79703 0 -4.68566)
(9.03617 0 -4.21854)
(11.834 0 -3.54373)
(14.0632 0 -2.66449)
(15.6278 0 -1.57232)
(16.4775 0 -0.256229)
(16.6013 0 1.26619)
(15.977 0 2.98848)
(14.0581 0 4.79874)
(10.3509 0 5.54417)
(5.59151 0 5.06166)
(0.557864 0 4.66322)
(-4.45686 0 4.92656)
(-9.35278 0 5.4843)
(-13.3696 0 5.13894)
(-15.7215 0 3.41084)
(-16.5541 0 1.64306)
(-16.5982 0 0.0792989)
(-15.917 0 -1.28535)
(-14.5177 0 -2.42661)
(-12.4387 0 -3.35241)
(-9.76628 0 -4.07387)
(-6.62052 0 -4.59025)
(-3.1477 0 -4.89354)
(0.483367 0 -4.97611)
(4.0902 0 -4.8348)
(7.49257 0 -4.47455)
(10.5272 0 -3.90371)
(13.0544 0 -3.12945)
(14.9619 0 -2.14956)
(16.1752 0 -0.951411)
(16.6669 0 0.466321)
(16.433 0 2.07865)
(15.3137 0 3.88869)
(12.47 0 5.41494)
(8.15565 0 5.36997)
(3.16021 0 4.79247)
(-1.83324 0 4.70002)
(-6.86909 0 5.21862)
(-11.432 0 5.54283)
(-14.7404 0 4.36328)
(-16.2259 0 2.53142)
(-16.6508 0 0.864004)
(-16.3445 0 -0.608207)
(-15.3134 0 -1.86677)
(-13.5757 0 -2.90353)
(-11.1941 0 -3.73103)
(-8.27322 0 -4.35458)
(-4.94688 0 -4.76867)
(-1.37349 0 -4.96471)
(2.15342 0 -8.52521)
(5.49142 0 -8.06265)
(8.52858 0 -7.2164)
(11.1125 0 -6.02409)
(13.1248 0 -4.52233)
(14.4831 0 -2.73697)
(15.1414 0 -0.682492)
(15.0647 0 1.63992)
(14.2297 0 4.27405)
(12.6571 0 7.08815)
(10.1864 0 9.505)
(6.09689 0 10.57)
(0.625511 0 10.5604)
(-4.9267 0 10.599)
(-9.47281 0 9.91606)
(-12.2062 0 7.70344)
(-13.9591 0 4.91877)
(-14.9662 0 2.21587)
(-15.2188 0 -0.168805)
(-14.7282 0 -2.28071)
(-13.5316 0 -4.12615)
(-11.668 0 -5.69322)
(-9.2106 0 -6.95951)
(-6.26911 0 -7.89054)
(-2.98758 0 -8.44789)
(0.460073 0 -8.60116)
(3.88227 0 -8.33948)
(7.09031 0 -7.68038)
(9.91741 0 -6.65769)
(12.2284 0 -5.31015)
(13.923 0 -3.66962)
(14.9379 0 -1.75548)
(15.2381 0 0.422897)
(14.787 0 2.88351)
(13.589 0 5.64911)
(11.6167 0 8.35867)
(8.51865 0 10.2646)
(3.53427 0 10.5906)
(-2.0588 0 10.5691)
(-7.35653 0 10.4741)
(-10.9244 0 8.96942)
(-13.1378 0 6.38284)
(-14.5231 0 3.57579)
(-15.1688 0 1.02776)
(-15.0571 0 -1.22347)
(-14.2204 0 -3.20987)
(-12.6927 0 -4.925)
(-10.5284 0 -6.35184)
(-7.81878 0 -7.46126)
(-4.69104 0 -8.21516)
(-1.30521 0 -8.57734)
(1.89661 0 -11.8597)
(4.82747 0 -11.1816)
(7.46605 0 -9.94995)
(9.66598 0 -8.23439)
(11.3162 0 -6.10803)
(12.3408 0 -3.63358)
(12.6958 0 -0.858967)
(12.3579 0 2.17967)
(11.3461 0 5.45997)
(9.73958 0 8.90562)
(7.63225 0 12.2422)
(4.75661 0 14.768)
(0.535142 0 15.7393)
(-3.96229 0 15.1351)
(-7.08709 0 12.9259)
(-9.32259 0 9.69068)
(-11.0507 0 6.24242)
(-12.2078 0 2.91516)
(-12.7067 0 -0.176485)
(-12.5118 0 -3.01029)
(-11.6414 0 -5.55396)
(-10.1333 0 -7.76334)
(-8.05491 0 -9.57979)
(-5.50844 0 -10.9321)
(-2.63167 0 -11.7483)
(0.406664 0 -11.9735)
(3.42025 0 -11.5893)
(6.2256 0 -10.6259)
(8.66128 0 -9.14483)
(10.5988 0 -7.21956)
(11.9453 0 -4.91888)
(12.6419 0 -2.29745)
(12.6566 0 0.603653)
(11.9793 0 3.75587)
(10.664 0 7.13101)
(8.80618 0 10.5645)
(6.39475 0 13.6302)
(2.93857 0 15.4441)
(-1.74956 0 15.6464)
(-5.5963 0 14.2571)
(-8.22593 0 11.4305)
(-10.208 0 8.0291)
(-11.6738 0 4.60972)
(-12.5223 0 1.39083)
(-12.6851 0 -1.58189)
(-12.1594 0 -4.28333)
(-10.9728 0 -6.67448)
(-9.17671 0 -8.70387)
(-6.8554 0 -10.3053)
(-4.12887 0 -11.4049)
(-1.15153 0 -11.9363)
(1.53843 0 -14.5704)
(3.90609 0 -13.6949)
(6.00794 0 -12.1118)
(7.71339 0 -9.92299)
(8.92751 0 -7.23676)
(9.59105 0 -4.14803)
(9.67665 0 -0.731223)
(9.18307 0 2.95123)
(8.14723 0 6.82427)
(6.65055 0 10.7485)
(4.83463 0 14.4791)
(2.79011 0 17.5674)
(0.298952 0 19.0203)
(-2.28959 0 18.0835)
(-4.41048 0 15.2616)
(-6.2765 0 11.6286)
(-7.86255 0 7.7282)
(-9.01263 0 3.83109)
(-9.63726 0 0.101914)
(-9.68746 0 -3.3762)
(-9.15803 0 -6.54209)
(-8.06945 0 -9.32634)
(-6.47278 0 -11.6394)
(-4.45393 0 -13.3753)
(-2.13492 0 -14.4285)
(0.331352 0 -14.7197)
(2.77504 0 -14.2232)
(5.02901 0 -12.9815)
(6.94755 0 -11.0839)
(8.41799 0 -8.63837)
(9.36393 0 -5.7479)
(9.74285 0 -2.49639)
(9.54112 0 1.05054)
(8.77262 0 4.82955)
(7.49928 0 8.7452)
(5.82294 0 12.6051)
(3.90303 0 16.1005)
(1.67277 0 18.5493)
(-0.985191 0 18.8715)
(-3.34748 0 16.8887)
(-5.32454 0 13.5696)
(-7.07766 0 9.76223)
(-8.4674 0 5.83351)
(-9.37335 0 2.00235)
(-9.72286 0 -1.61668)
(-9.49138 0 -4.95526)
(-8.68633 0 -7.94954)
(-7.34253 0 -10.5202)
(-5.5278 0 -12.5677)
(-3.34611 0 -13.9829)
(-0.93612 0 -14.6694)
(1.11416 0 -16.682)
(2.81836 0 -15.6319)
(4.29987 0 -13.7396)
(5.4529 0 -11.1389)
(6.2059 0 -7.97386)
(6.52229 0 -4.37386)
(6.39794 0 -0.444552)
(5.85819 0 3.72041)
(4.96188 0 8.00679)
(3.80159 0 12.2384)
(2.51126 0 16.147)
(1.27472 0 19.2708)
(0.123682 0 20.7267)
(-1.01941 0 19.7869)
(-2.23182 0 16.9504)
(-3.5263 0 13.1716)
(-4.73116 0 8.99143)
(-5.69755 0 4.70361)
(-6.32696 0 0.50474)
(-6.5516 0 -3.48124)
(-6.33923 0 -7.16092)
(-5.68678 0 -10.4342)
(-4.62276 0 -13.1782)
(-3.21003 0 -15.251)
(-1.54628 0 -16.5137)
(0.241451 0 -16.8634)
(2.01012 0 -16.2673)
(3.61924 0 -14.7799)
(4.94855 0 -12.5173)
(5.90931 0 -9.62243)
(6.44794 0 -6.2335)
(6.54455 0 -2.46705)
(6.20994 0 1.58099)
(5.48445 0 5.81324)
(4.44519 0 10.0927)
(3.19895 0 14.1997)
(1.91214 0 17.8028)
(0.723896 0 20.2544)
(-0.415822 0 20.5778)
(-1.58242 0 18.5936)
(-2.84703 0 15.206)
(-4.12194 0 11.1858)
(-5.22608 0 6.921)
(-6.04068 0 2.65512)
(-6.48033 0 -1.45693)
(-6.4957 0 -5.31034)
(-6.06863 0 -8.81065)
(-5.21104 0 -11.8466)
(-3.96802 0 -14.2836)
(-2.41987 0 -15.9771)
(-0.68007 0 -16.8008)
(0.64578 0 -18.0745)
(1.62131 0 -16.8858)
(2.43348 0 -14.7509)
(3.00951 0 -11.8329)
(3.30666 0 -8.3094)
(3.3133 0 -4.34282)
(3.04783 0 -0.0700445)
(2.55729 0 4.38489)
(1.91574 0 8.87693)
(1.22021 0 13.2)
(0.589377 0 17.0564)
(0.171295 0 19.9956)
(0.0081259 0 21.3051)
(-0.120116 0 20.4652)
(-0.476134 0 17.828)
(-1.07296 0 14.136)
(-1.76607 0 9.89422)
(-2.42995 0 5.4248)
(-2.96368 0 0.952911)
(-3.28711 0 -3.36663)
(-3.34701 0 -7.41003)
(-3.11814 0 -11.0465)
(-2.60485 0 -14.1206)
(-1.84232 0 -16.4569)
(-0.896308 0 -17.8856)
(0.141555 0 -18.2819)
(1.16522 0 -17.6064)
(2.07097 0 -15.9248)
(2.77315 0 -13.3781)
(3.21386 0 -10.1413)
(3.36612 0 -6.38613)
(3.23349 0 -2.26107)
(2.84879 0 2.10755)
(2.27202 0 6.59224)
(1.58948 0 11.0249)
(0.906765 0 15.158)
(0.358331 0 18.6369)
(0.072217 0 20.8868)
(-0.0345131 0 21.1743)
(-0.252549 0 19.374)
(-0.738696 0 16.1447)
(-1.39988 0 12.1372)
(-2.09252 0 7.74957)
(-2.70502 0 3.25375)
(-3.14534 0 -1.16441)
(-3.34639 0 -5.36984)
(-3.268 0 -9.23759)
(-2.89915 0 -12.6248)
(-2.25912 0 -15.3636)
(-1.39841 0 -17.2763)
(-0.396538 0 -18.2091)
(0.148788 0 -18.7001)
(0.354932 0 -17.4196)
(0.472164 0 -15.1277)
(0.467536 0 -12.0119)
(0.330283 0 -8.27759)
(0.0729022 0 -4.115)
(-0.268622 0 0.311683)
(-0.635473 0 4.85318)
(-0.950948 0 9.3449)
(-1.12826 0 13.5664)
(-1.07908 0 17.2129)
(-0.722494 0 19.8703)
(-0.0808461 0 21.0078)
(0.597681 0 20.2825)
(1.02765 0 17.9242)
(1.13967 0 14.4651)
(1.00553 0 10.3491)
(0.71312 0 5.90221)
(0.350036 0 1.36214)
(-0.00384341 0 -3.09783)
(-0.285217 0 -7.32985)
(-0.452617 0 -11.1763)
(-0.488044 0 -14.4539)
(-0.396768 0 -16.9595)
(-0.206597 0 -18.4978)
(0.0349636 0 -18.9252)
(0.268485 0 -18.1968)
(0.436478 0 -16.3877)
(0.49614 0 -13.6601)
(0.425437 0 -10.2153)
(0.225176 0 -6.25312)
(-0.080521 0 -1.94955)
(-0.444053 0 2.5427)
(-0.797465 0 7.07384)
(-1.05809 0 11.4583)
(-1.13788 0 15.438)
(-0.94958 0 18.6612)
(-0.440008 0 20.6495)
(0.261461 0 20.8966)
(0.845037 0 19.321)
(1.11752 0 16.3653)
(1.10029 0 12.5401)
(0.879005 0 8.22745)
(0.541999 0 3.70832)
(0.174321 0 -0.815328)
(-0.151421 0 -5.18769)
(-0.381683 0 -9.2578)
(-0.486392 0 -12.8553)
(-0.458913 0 -15.7843)
(-0.315721 0 -17.8398)
(-0.094873 0 -18.8453)
(-0.364036 0 -18.5248)
(-0.947997 0 -17.2095)
(-1.53343 0 -14.8637)
(-2.10861 0 -11.6912)
(-2.65107 0 -7.91503)
(-3.127 0 -3.7441)
(-3.48977 0 0.638604)
(-3.68 0 5.06778)
(-3.63103 0 9.37106)
(-3.27863 0 13.33)
(-2.57463 0 16.658)
(-1.50587 0 18.9998)
(-0.157799 0 19.9718)
(1.22399 0 19.3548)
(2.3689 0 17.2944)
(3.1561 0 14.1607)
(3.58485 0 10.3221)
(3.69747 0 6.08109)
(3.55583 0 1.67017)
(3.22704 0 -2.73146)
(2.77267 0 -6.96152)
(2.24244 0 -10.8439)
(1.67292 0 -14.1766)
(1.08906 0 -16.7385)
(0.505021 0 -18.3178)
(-0.0755262 0 -18.7576)
(-0.656793 0 -18.0083)
(-1.24166 0 -16.1527)
(-1.82374 0 -13.3673)
(-2.38608 0 -9.87056)
(-2.90086 0 -5.88044)
(-3.32824 0 -1.59176)
(-3.61501 0 2.82478)
(-3.69751 0 7.20734)
(-3.50898 0 11.3666)
(-2.99113 0 15.0534)
(-2.10929 0 17.9474)
(-0.885 0 19.669)
(0.517797 0 19.8783)
(1.81236 0 18.5242)
(2.7905 0 15.8951)
(3.40184 0 12.3772)
(3.67157 0 8.30912)
(3.65335 0 3.9588)
(3.41304 0 -0.470771)
(3.01612 0 -4.81408)
(2.51924 0 -8.90286)
(1.9656 0 -12.5478)
(1.38598 0 -15.5344)
(0.800124 0 -17.6406)
(0.217104 0 -18.6742)
(-0.878551 0 -17.535)
(-2.25173 0 -16.2501)
(-3.52975 0 -13.967)
(-4.65387 0 -10.8944)
(-5.5689 0 -7.25936)
(-6.22316 0 -3.27631)
(-6.56617 0 0.865085)
(-6.54744 0 4.99509)
(-6.12013 0 8.94471)
(-5.25051 0 12.5112)
(-3.93379 0 15.4431)
(-2.21533 0 17.4535)
(-0.227662 0 18.2706)
(1.79068 0 17.7537)
(3.58589 0 15.9954)
(5.00022 0 13.2505)
(5.97277 0 9.80889)
(6.49908 0 5.93204)
(6.6079 0 1.83301)
(6.34418 0 -2.31458)
(5.75806 0 -6.34541)
(4.89993 0 -10.0766)
(3.82071 0 -13.3005)
(2.5744 0 -15.7915)
(1.21884 0 -17.3332)
(-0.186763 0 -17.7637)
(-1.58486 0 -17.0306)
(-2.91757 0 -15.2206)
(-4.12563 0 -12.5157)
(-5.15215 0 -9.13831)
(-5.9442 0 -5.31111)
(-6.45134 0 -1.23517)
(-6.6231 0 2.91242)
(-6.41005 0 6.96879)
(-5.77021 0 10.7531)
(-4.68156 0 14.0401)
(-3.16025 0 16.5581)
(-1.28751 0 18.018)
(0.749944 0 18.1928)
(2.68863 0 17.0503)
(4.31338 0 14.7782)
(5.51852 0 11.6602)
(6.27412 0 7.97706)
(6.59416 0 3.96735)
(6.51688 0 -0.177747)
(6.09065 0 -4.294)
(5.36612 0 -8.20742)
(4.3937 0 -11.7221)
(3.2257 0 -14.6187)
(1.91826 0 -16.6707)
(0.530649 0 -17.6813)
(-1.37612 0 -15.742)
(-3.50975 0 -14.5577)
(-5.44837 0 -12.4612)
(-7.08685 0 -9.65193)
(-8.33923 0 -6.34575)
(-9.13922 0 -2.74675)
(-9.43727 0 0.963174)
(-9.19779 0 4.62226)
(-8.39945 0 8.07484)
(-7.04273 0 11.1441)
(-5.16529 0 13.6232)
(-2.85984 0 15.2922)
(-0.291623 0 15.9614)
(2.30536 0 15.539)
(4.68805 0 14.0851)
(6.67368 0 11.7741)
(8.15463 0 8.82393)
(9.08241 0 5.44656)
(9.44967 0 1.82539)
(9.27382 0 -1.88149)
(8.58743 0 -5.51729)
(7.43642 0 -8.90646)
(5.88253 0 -11.8508)
(4.00654 0 -14.1362)
(1.90896 0 -15.5561)
(-0.294584 0 -15.9537)
(-2.482 0 -15.2769)
(-4.53215 0 -13.6115)
(-6.33264 0 -11.1325)
(-7.78799 0 -8.05196)
(-8.82272 0 -4.58126)
(-9.37971 0 -0.91266)
(-9.41677 0 2.78384)
(-8.90491 0 6.35512)
(-7.83182 0 9.63875)
(-6.21369 0 12.4437)
(-4.11234 0 14.5533)
(-1.65331 0 15.7555)
(0.961566 0 15.8981)
(3.48368 0 14.9602)
(5.69332 0 13.0655)
(7.44522 0 10.417)
(8.66252 0 7.2342)
(9.31882 0 3.71647)
(9.4205 0 0.0329814)
(8.99275 0 -3.66331)
(8.07428 0 -7.20591)
(6.71844 0 -10.4072)
(4.99615 0 -13.0586)
(2.99834 0 -14.945)
(0.834204 0 -15.8771)
(-1.83216 0 -13.1905)
(-4.66089 0 -12.1772)
(-7.19927 0 -10.3895)
(-9.29971 0 -8.00333)
(-10.849 0 -5.20693)
(-11.7691 0 -2.1782)
(-12.0136 0 0.923774)
(-11.5635 0 3.95766)
(-10.4242 0 6.78996)
(-8.63006 0 9.27682)
(-6.25683 0 11.2594)
(-3.43388 0 12.5779)
(-0.349111 0 13.1024)
(2.76366 0 12.7718)
(5.66503 0 11.6261)
(8.15476 0 9.78357)
(10.0904 0 7.40038)
(11.385 0 4.6374)
(11.9961 0 1.6418)
(11.9126 0 -1.45228)
(11.1479 0 -4.50797)
(9.74129 0 -7.37159)
(7.76264 0 -9.87027)
(5.31622 0 -11.8173)
(2.5413 0 -13.0314)
(-0.393525 0 -13.3722)
(-3.30386 0 -12.7923)
(-6.00781 0 -11.3695)
(-8.34354 0 -9.25957)
(-10.1808 0 -6.64813)
(-11.4247 0 -3.71935)
(-12.0139 0 -0.641054)
(-11.9165 0 2.43789)
(-11.1255 0 5.38424)
(-9.65903 0 8.06198)
(-7.56948 0 10.32)
(-4.95709 0 11.9965)
(-1.97929 0 12.9415)
(1.15085 0 13.053)
(4.19069 0 12.317)
(6.91551 0 10.8159)
(9.15233 0 8.69099)
(10.7864 0 6.10381)
(11.754 0 3.20973)
(12.0294 0 0.148379)
(11.6132 0 -2.94771)
(10.5304 0 -5.93305)
(8.83482 0 -8.64376)
(6.61313 0 -10.8981)
(3.98729 0 -12.5081)
(1.11256 0 -13.3063)
(-2.21667 0 -9.96717)
(-5.63032 0 -9.1895)
(-8.67141 0 -7.82161)
(-11.1572 0 -6.00168)
(-12.9528 0 -3.87603)
(-13.9709 0 -1.58206)
(-14.1683 0 0.757473)
(-13.5403 0 3.03303)
(-12.1155 0 5.14123)
(-9.95755 0 6.97586)
(-7.17313 0 8.42544)
(-3.91858 0 9.3823)
(-0.398072 0 9.76122)
(3.15054 0 9.52249)
(6.48556 0 8.69232)
(9.39352 0 7.34779)
(11.7069 0 5.59341)
(13.3082 0 3.54095)
(14.1249 0 1.29776)
(14.121 0 -1.0333)
(13.2933 0 -3.34567)
(11.6752 0 -5.52074)
(9.34269 0 -7.42503)
(6.4187 0 -8.91382)
(3.07432 0 -9.84501)
(-0.476979 0 -10.1071)
(-3.99646 0 -9.66136)
(-7.24951 0 -8.57085)
(-10.0327 0 -6.95891)
(-12.1876 0 -4.9704)
(-13.6041 0 -2.74792)
(-14.2177 0 -0.420969)
(-14.0056 0 1.8956)
(-12.9799 0 4.09769)
(-11.1851 0 6.08223)
(-8.70427 0 7.74054)
(-5.66749 0 8.96131)
(-2.25467 0 9.64509)
(1.31133 0 9.72557)
(4.78672 0 9.19348)
(7.94019 0 8.10246)
(10.5792 0 6.54544)
(12.5605 0 4.63242)
(13.7894 0 2.47367)
(14.2119 0 0.173658)
(13.8075 0 -2.16404)
(12.5896 0 -4.42719)
(10.6119 0 -6.48943)
(7.97318 0 -8.21023)
(4.8204 0 -9.44318)
(1.34727 0 -10.0563)
(-2.49767 0 -6.21344)
(-6.33803 0 -5.72345)
(-9.74486 0 -4.8637)
(-12.5107 0 -3.72285)
(-14.486 0 -2.39371)
(-15.5778 0 -0.962692)
(-15.7446 0 0.493579)
(-14.9906 0 1.90612)
(-13.3603 0 3.20874)
(-10.9385 0 4.33603)
(-7.85386 0 5.22194)
(-4.28072 0 5.80431)
(-0.434913 0 6.03447)
(3.43955 0 5.8895)
(7.09557 0 5.38462)
(10.3095 0 4.56385)
(12.8972 0 3.4873)
(14.7197 0 2.22074)
(15.683 0 0.829623)
(15.7333 0 -0.620689)
(14.8571 0 -2.06249)
(13.0842 0 -3.42179)
(10.4945 0 -4.61483)
(7.22324 0 -5.54999)
(3.46372 0 -6.13642)
(-0.537955 0 -6.30177)
(-4.5023 0 -6.02062)
(-8.1553 0 -5.33428)
(-11.2638 0 -4.32244)
(-13.6497 0 -3.07749)
(-15.193 0 -1.68947)
(-15.8277 0 -0.239456)
(-15.5358 0 1.20101)
(-14.342 0 2.56508)
(-12.3098 0 3.78795)
(-9.54446 0 4.80405)
(-6.19634 0 5.54839)
(-2.46052 0 5.96395)
(1.43165 0 6.01282)
(5.23143 0 5.68958)
(8.70034 0 5.025)
(11.6325 0 4.07225)
(13.8652 0 2.89513)
(15.2817 0 1.55949)
(15.8076 0 0.130345)
(15.4082 0 -1.32549)
(14.0901 0 -2.73801)
(11.9068 0 -4.02825)
(8.96502 0 -5.10767)
(5.42868 0 -5.88313)
(1.51875 0 -6.26965)
(-2.64656 0 -2.11202)
(-6.71255 0 -1.94436)
(-10.3122 0 -1.65073)
(-13.2257 0 -1.26184)
(-15.2964 0 -0.809594)
(-16.4291 0 -0.323446)
(-16.583 0 0.170727)
(-15.7653 0 0.649475)
(-14.0279 0 1.08987)
(-11.4668 0 1.46984)
(-8.22208 0 1.76761)
(-4.47739 0 1.96295)
(-0.455012 0 2.04008)
(3.59651 0 1.9915)
(7.42573 0 1.82221)
(10.8032 0 1.5465)
(13.536 0 1.18389)
(15.4743 0 0.755984)
(16.5123 0 0.284742)
(16.5881 0 -0.207326)
(15.6838 0 -0.696994)
(13.8284 0 -1.15932)
(11.1031 0 -1.56582)
(7.64886 0 -1.88507)
(3.66998 0 -2.08564)
(-0.570256 0 -2.14227)
(-4.77013 0 -2.04601)
(-8.63429 0 -1.81136)
(-11.9141 0 -1.46611)
(-14.4219 0 -1.04213)
(-16.0335 0 -0.57025)
(-16.682 0 -0.0779642)
(-16.3514 0 0.410661)
(-15.0709 0 0.872467)
(-12.9141 0 1.28528)
(-9.99777 0 1.62727)
(-6.48286 0 1.87716)
(-2.57235 0 2.01645)
(1.49714 0 2.03282)
(5.47274 0 1.92449)
(9.11107 0 1.70149)
(12.1991 0 1.38106)
(14.5643 0 0.98399)
(16.0781 0 0.532097)
(16.6553 0 0.0474622)
(16.2554 0 -0.446653)
(14.8827 0 -0.926662)
(12.5908 0 -1.36585)
(9.48933 0 -1.73398)
(5.75064 0 -1.99897)
(1.60958 0 -2.13126)
)
;

boundaryField
{
    top
    {
        type            directionMixed;
        refValue        uniform (0 0 0);
        refGradient     uniform (0 0 0);
        valueFraction   uniform (0 0 0 0 0 1);
        value           nonuniform List<vector> 
51
(
(-2.64656 0 0)
(-6.71255 0 0)
(-10.3122 0 0)
(-13.2257 0 0)
(-15.2964 0 0)
(-16.4291 0 0)
(-16.583 0 0)
(-15.7653 0 0)
(-14.0279 0 0)
(-11.4668 0 0)
(-8.22208 0 0)
(-4.47739 0 0)
(-0.455012 0 0)
(3.59651 0 0)
(7.42573 0 0)
(10.8032 0 0)
(13.536 0 0)
(15.4743 0 0)
(16.5123 0 0)
(16.5881 0 0)
(15.6838 0 0)
(13.8284 0 0)
(11.1031 0 0)
(7.64886 0 0)
(3.66998 0 0)
(-0.570256 0 0)
(-4.77013 0 0)
(-8.63429 0 0)
(-11.9141 0 0)
(-14.4219 0 0)
(-16.0335 0 0)
(-16.682 0 0)
(-16.3514 0 0)
(-15.0709 0 0)
(-12.9141 0 0)
(-9.99777 0 0)
(-6.48286 0 0)
(-2.57235 0 0)
(1.49714 0 0)
(5.47274 0 0)
(9.11107 0 0)
(12.1991 0 0)
(14.5643 0 0)
(16.0781 0 0)
(16.6553 0 0)
(16.2554 0 0)
(14.8827 0 0)
(12.5908 0 0)
(9.48933 0 0)
(5.75064 0 0)
(1.60958 0 0)
)
;
    }
    bottom
    {
        type            fixedValue;
        value           uniform (0 0 0);
    }
    frontAndBack
    {
        type            empty;
    }
    left_cyc
    {
        type            cyclic;
    }
    right_cyc
    {
        type            cyclic;
    }
}


// ************************************************************************* //
