/*--------------------------------*- C++ -*----------------------------------*\
| =========                 |                                                 |
| \\      /  F ield         | OpenFOAM: The Open Source CFD Toolbox           |
|  \\    /   O peration     | Version:  2.3.0                                 |
|   \\  /    A nd           | Web:      www.OpenFOAM.org                      |
|    \\/     M anipulation  |                                                 |
\*---------------------------------------------------------------------------*/
FoamFile
{
    version     2.0;
    format      ascii;
    class       volScalarField;
    location    "23000";
    object      p;
}
// * * * * * * * * * * * * * * * * * * * * * * * * * * * * * * * * * * * * * //

dimensions      [0 2 -2 0 0 0 0];

internalField   nonuniform List<scalar> 
192
(
-1662.44
-1671.27
-1679.93
-1689.12
-1699.73
-1712.74
-1728.63
-1746.78
-1765.05
-1779.56
-1784.42
-1775.15
-1758.75
-1497.26
-1505.77
-1514.53
-1523.88
-1534.16
-1545.56
-1557.98
-1570.87
-1582.67
-1591.23
-1594.15
-1588.65
-1578.75
-1359.57
-1366.63
-1374.12
-1382.08
-1390.54
-1399.44
-1408.55
-1417.13
-1423.98
-1428.18
-1429.6
-1426.95
-1421.84
-1237
-1242
-1247.29
-1252.8
-1258.44
-1264.15
-1269.67
-1274.23
-1277.01
-1277.91
-1278.14
-1277.71
-1276.3
-1118.04
-1120.86
-1123.79
-1126.73
-1129.66
-1132.54
-1135.16
-1136.9
-1137.15
-1136.16
-1135.62
-1136.59
-1137.32
-996.828
-997.817
-998.765
-999.642
-1000.45
-1001.16
-1001.59
-1001.37
-1000.09
-998.032
-997.078
-998.839
-1000.76
-871.256
-870.854
-870.348
-869.755
-869.075
-868.216
-867.054
-865.361
-862.971
-860.23
-859.093
-861.261
-863.997
-741.082
-739.682
-738.173
-736.557
-734.787
-732.749
-730.322
-727.404
-724.069
-720.888
-719.692
-722.033
-725.376
-606.952
-604.795
-602.511
-600.055
-597.338
-594.256
-590.697
-586.695
-582.564
-579.103
-577.882
-580.288
-584.077
-469.808
-466.898
-463.835
-460.525
-456.854
-452.711
-448.053
-443.045
-438.198
-434.482
-433.217
-435.676
-439.87
-331.31
-327.396
-323.318
-318.934
-314.107
-308.74
-302.86
-296.755
-291.094
-286.984
-285.611
-288.2
-292.931
-195.332
-189.899
-184.352
-178.496
-172.162
-165.252
-157.836
-150.299
-143.455
-138.583
-136.961
-139.903
-145.552
-68.0151
-60.1324
-52.0233
-43.5251
-34.5085
-24.9319
-14.9501
-5.06119
3.76381
10.0279
12.1323
8.45367
23.6379
33.2601
43.0027
53.0664
63.7209
75.2066
87.5633
100.348
112.323
121.222
124.347
119.05
73.9491
69.1478
63.3832
56.6581
48.8393
39.7439
29.2957
17.787
6.30136
-2.89006
-5.85743
-0.537377
)
;

boundaryField
{
    top
    {
        type            calculated;
        value           nonuniform List<scalar> 
12
(
-9.81
-9.81
-9.81
-9.81
-9.81
-9.81
-9.81
-9.81
-9.81
-9.81
-9.81
-9.81
)
;
    }
    bottom
    {
        type            calculated;
        value           nonuniform List<scalar> 
13
(
-1753.45
-1762.42
-1770.97
-1779.91
-1790.35
-1803.48
-1819.97
-1838.77
-1857.93
-1873.61
-1879.11
-1868.75
-1851.25
)
;
    }
    frontAndBack
    {
        type            empty;
    }
    left_cyc
    {
        type            cyclic;
    }
    right_cyc
    {
        type            cyclic;
    }
    procBoundary0to1
    {
        type            processor;
        value           nonuniform List<scalar> 
16
(
-1740.09
-1566.27
-1414.18
-1272.81
-1136.51
-1001.66
-866.149
-728.601
-588.234
-444.869
-298.858
-152.764
1.19336
1.19336
108.893
9.91131
)
;
    }
    procBoundary0to3throughleft_cyc
    {
        type            processorCyclic;
        value           nonuniform List<scalar> 
15
(
-1652.99
-1488.71
-1352.83
-1232.35
-1115.42
-995.847
-871.551
-742.353
-609.003
-472.647
-335.198
-200.849
-75.8625
14.1524
77.7656
)
;
    }
}


// ************************************************************************* //
