/*--------------------------------*- C++ -*----------------------------------*\
| =========                 |                                                 |
| \\      /  F ield         | OpenFOAM: The Open Source CFD Toolbox           |
|  \\    /   O peration     | Version:  2.3.0                                 |
|   \\  /    A nd           | Web:      www.OpenFOAM.org                      |
|    \\/     M anipulation  |                                                 |
\*---------------------------------------------------------------------------*/
FoamFile
{
    version     2.0;
    format      ascii;
    class       volScalarField;
    location    "23000";
    object      p_rgh;
}
// * * * * * * * * * * * * * * * * * * * * * * * * * * * * * * * * * * * * * //

dimensions      [0 2 -2 0 0 0 0];

internalField   nonuniform List<scalar> 
192
(
-1753.45
-1762.42
-1770.97
-1779.91
-1790.35
-1803.48
-1819.97
-1838.77
-1857.93
-1873.61
-1879.11
-1868.75
-1851.25
-1722.58
-1732.35
-1741.61
-1751.01
-1761.49
-1774.11
-1789.39
-1807.95
-1829.06
-1849.91
-1859.33
-1842.88
-1821.42
-1679.19
-1689.91
-1700.22
-1710.51
-1721.4
-1733.87
-1749.47
-1771.64
-1801.25
-1835.3
-1852.23
-1823.27
-1789.81
-1650.65
-1661.63
-1672.4
-1682.9
-1693.22
-1704.14
-1718.97
-1743.1
-1780.56
-1828.44
-1852.95
-1811.25
-1765.44
-1649.44
-1659.17
-1668.88
-1677.98
-1686
-1693.7
-1705.5
-1728.67
-1771.57
-1831.03
-1861.44
-1809.68
-1753.66
-1669.34
-1677.27
-1684.94
-1691.3
-1695.57
-1699.14
-1705.96
-1726.86
-1773.51
-1840.97
-1874.69
-1817.06
-1753.62
-1699.81
-1705.78
-1710.71
-1713.42
-1713.46
-1712.79
-1716.88
-1737.72
-1785.45
-1853.68
-1888.11
-1829.91
-1765.42
-1732.76
-1736.32
-1738.12
-1737.84
-1736.49
-1734.91
-1739.61
-1759.63
-1803.26
-1865.49
-1898.87
-1844.1
-1785.39
-1762.39
-1764.58
-1765.46
-1765.19
-1763.97
-1763.95
-1769.61
-1787.43
-1823.75
-1875.64
-1906.15
-1858.24
-1809.4
-1785.32
-1788.88
-1791.22
-1792.49
-1793.38
-1795.42
-1801.51
-1816.1
-1843.82
-1883.48
-1909.46
-1870.87
-1833.54
-1787.08
-1795.4
-1802.52
-1808.56
-1813.85
-1819.26
-1826.54
-1838.58
-1858.59
-1886.58
-1906.91
-1878.59
-1852.05
-1732.93
-1750.59
-1766.83
-1781.76
-1795.48
-1808.23
-1820.72
-1834.37
-1851.05
-1871.17
-1886.08
-1866.44
-1846.69
-1549.73
-1579.08
-1606.56
-1632.5
-1657.13
-1680.53
-1702.73
-1723.89
-1744.28
-1763.33
-1774.88
-1759.45
-1151.72
-1185.8
-1218.36
-1249.6
-1279.42
-1307.52
-1333.43
-1356.72
-1377.01
-1393.41
-1401.15
-1390.15
-427.506
-458.273
-489.748
-522.022
-555.183
-589.144
-623.411
-656.77
-686.789
-709.286
-717.158
-704.079
)
;

boundaryField
{
    top
    {
        type            fixedValue;
        value           uniform 0;
    }
    bottom
    {
        type            fixedFluxPressure;
        gradient        uniform 0;
        value           nonuniform List<scalar> 
13
(
-1753.45
-1762.42
-1770.97
-1779.91
-1790.35
-1803.48
-1819.97
-1838.77
-1857.93
-1873.61
-1879.11
-1868.75
-1851.25
)
;
    }
    frontAndBack
    {
        type            empty;
    }
    left_cyc
    {
        type            cyclic;
    }
    right_cyc
    {
        type            cyclic;
    }
    procBoundary0to1
    {
        type            processor;
        value           nonuniform List<scalar> 
16
(
-1831.79
-1801.01
-1762.63
-1732.8
-1718.29
-1716.81
-1727.61
-1750.33
-1779.7
-1810.41
-1834.74
-1830.96
-1739.44
-1739.44
-1372.17
-678.446
)
;
    }
    procBoundary0to3throughleft_cyc
    {
        type            processorCyclic;
        value           nonuniform List<scalar> 
15
(
-1743.63
-1711.75
-1667.86
-1639.49
-1640.09
-1661.92
-1693.86
-1728.27
-1759.01
-1780.56
-1777.51
-1713.74
-1518.24
-1115.82
-397.425
)
;
    }
}


// ************************************************************************* //
