/*--------------------------------*- C++ -*----------------------------------*\
| =========                 |                                                 |
| \\      /  F ield         | OpenFOAM: The Open Source CFD Toolbox           |
|  \\    /   O peration     | Version:  2.3.0                                 |
|   \\  /    A nd           | Web:      www.OpenFOAM.org                      |
|    \\/     M anipulation  |                                                 |
\*---------------------------------------------------------------------------*/
FoamFile
{
    version     2.0;
    format      ascii;
    class       volScalarField;
    location    "23000";
    object      T;
}
// * * * * * * * * * * * * * * * * * * * * * * * * * * * * * * * * * * * * * //

dimensions      [0 0 0 1 0 0 0];

internalField   nonuniform List<scalar> 
192
(
40.0073
40.0649
40.0154
39.9123
39.8353
39.8882
40.1536
40.4379
40.8228
41.3357
41.6165
41.1408
40.657
33.0404
33.2249
33.2967
33.3033
33.3331
33.5115
33.9294
34.7555
36.1161
37.9102
38.8598
37.2608
35.5727
28.1419
28.4622
28.7098
28.9135
29.1263
29.4393
30.0079
31.1976
33.1919
35.8061
37.165
34.8611
32.3772
26.0257
26.4006
26.7431
27.0554
27.3478
27.6739
28.2568
29.4811
31.6515
34.5904
36.11
33.5273
30.7492
26.0046
26.3409
26.671
26.9705
27.2183
27.453
27.8996
28.9429
31.0183
33.9602
35.4665
32.8999
30.1385
26.9212
27.1978
27.4656
27.6838
27.8216
27.9355
28.1896
29.031
30.9394
33.7076
35.0883
32.7232
30.1206
28.0591
28.2739
28.4569
28.5682
28.5924
28.5988
28.7757
29.5349
31.2238
33.6149
34.8133
32.7791
30.5143
29.1004
29.245
29.3417
29.3808
29.393
29.4065
29.6144
30.2841
31.6556
33.5656
34.5754
32.9077
31.0956
29.9128
30.0247
30.1063
30.1626
30.2011
30.28
30.5176
31.0797
32.1219
33.5481
34.3656
33.0694
31.7132
30.4693
30.6185
30.7429
30.8486
30.9537
31.0961
31.3439
31.7958
32.5466
33.5465
34.1745
33.2282
32.2709
30.5063
30.7616
30.9952
31.2126
31.4236
31.6483
31.9228
32.3012
32.8367
33.5062
33.9589
33.3142
32.6621
29.4245
29.8642
30.2791
30.675
31.0568
31.4313
31.8104
32.2138
32.6618
33.1377
33.4526
33.0224
32.5389
26.1028
26.7553
27.3787
27.9821
28.5716
29.1494
29.7131
30.2571
30.7689
31.2125
31.4517
31.1169
19.2102
19.919
20.6054
21.2754
21.932
22.5742
23.1949
23.7801
24.3036
24.7139
24.8902
24.6258
7.71693
8.10909
8.49741
8.88329
9.26605
9.6416
10.0014
10.3314
10.6113
10.8122
10.8863
10.7691
)
;

boundaryField
{
    top
    {
        type            fixedValue;
        value           uniform 0;
    }
    bottom
    {
        type            fixedValue;
        value           uniform 43.8;
    }
    frontAndBack
    {
        type            empty;
    }
    left_cyc
    {
        type            cyclic;
    }
    right_cyc
    {
        type            cyclic;
    }
    procBoundary0to1
    {
        type            processor;
        value           nonuniform List<scalar> 
16
(
40.3064
34.4151
30.6666
28.9255
28.457
28.6192
29.1679
29.9777
30.841
31.6225
32.1774
32.1018
30.6391
30.6391
24.1693
10.5398
)
;
    }
    procBoundary0to3throughleft_cyc
    {
        type            processorCyclic;
        value           nonuniform List<scalar> 
15
(
39.8426
32.707
27.7399
25.618
25.6775
26.665
27.8487
28.9321
29.7728
30.2941
30.2258
28.9539
25.4136
18.474
7.32024
)
;
    }
}


// ************************************************************************* //
