/*--------------------------------*- C++ -*----------------------------------*\
| =========                 |                                                 |
| \\      /  F ield         | OpenFOAM: The Open Source CFD Toolbox           |
|  \\    /   O peration     | Version:  2.3.0                                 |
|   \\  /    A nd           | Web:      www.OpenFOAM.org                      |
|    \\/     M anipulation  |                                                 |
\*---------------------------------------------------------------------------*/
FoamFile
{
    version     2.0;
    format      ascii;
    class       volScalarField;
    location    "6000";
    object      p_rgh;
}
// * * * * * * * * * * * * * * * * * * * * * * * * * * * * * * * * * * * * * //

dimensions      [0 2 -2 0 0 0 0];

internalField   nonuniform List<scalar> 
191
(
-1660.14
-1637.16
-1608.55
-1571.69
-1522.49
-1457.89
-1386.02
-1300.8
-1210.87
-1171.29
-1214.25
-1305.63
-1390.83
-1621.79
-1599
-1571.82
-1538.9
-1499.63
-1457.27
-1413.13
-1390.4
-1393.88
-1391.78
-1395.27
-1392.51
-1416.73
-1580.2
-1561.39
-1541.31
-1518.81
-1485.23
-1451.68
-1406.08
-1360.16
-1343.96
-1338.14
-1344.68
-1361.73
-1409.3
-1569.87
-1555.14
-1537.2
-1512.76
-1468.23
-1410.15
-1364.33
-1325.64
-1296.05
-1283.78
-1297.12
-1327.26
-1366.75
-1588.69
-1573.82
-1552.27
-1521.53
-1471.04
-1397.34
-1324.76
-1272.67
-1236.79
-1222.15
-1237.98
-1274.58
-1622.24
-1605.55
-1579.01
-1539.57
-1480.33
-1398.66
-1307.43
-1236
-1185.67
-1165.69
-1187.27
-1238.89
-1658.93
-1639.79
-1608.18
-1560.24
-1490.89
-1400.15
-1297.29
-1203.59
-1133.66
-1106.87
-1135.82
-1207.74
-1690.24
-1667.62
-1630.63
-1574.72
-1495.01
-1395.92
-1289.17
-1171.59
-1079.18
-1044.28
-1081.99
-1177.13
-1726.23
-1709.02
-1681.18
-1638.44
-1575.74
-1487.63
-1382.03
-1273.72
-1132.62
-1017.87
-974.342
-1021.47
-1139.59
-1731.55
-1707.55
-1672.3
-1622.47
-1552.91
-1458.49
-1347.47
-1234.66
-1076.02
-943.889
-892.971
-948.325
-1084.84
-1699.27
-1666.93
-1623.43
-1566.8
-1491.49
-1391.42
-1277.54
-1155.71
-990.584
-852.399
-797.015
-857.389
-1000.74
-1592.74
-1552.7
-1501.67
-1437.09
-1352.3
-1249.64
-1145.56
-1026.04
-869.303
-740.886
-685.954
-745.829
-878.668
-1353.85
-1309.33
-1253.6
-1185.79
-1095.7
-1009.74
-935.941
-842.384
-723.35
-618.764
-571.005
-623.035
-730.764
-925.905
-880.372
-831.194
-783.619
-734.863
-688.626
-645.695
-581.493
-501.354
-427.936
-393.073
-431.096
-506.516
-277.516
-269.411
-271.031
-287.475
-321.89
-371.232
-426.736
-469.506
-491.475
-495.694
-492.203
-495.146
-489.816
)
;

boundaryField
{
    top
    {
        type            fixedValue;
        value           uniform 0;
    }
    bottom
    {
        type            fixedFluxPressure;
        gradient        uniform 0;
        value           nonuniform List<scalar> 
13
(
-1660.14
-1637.16
-1608.55
-1571.69
-1522.49
-1457.89
-1386.02
-1300.8
-1210.87
-1171.29
-1214.25
-1305.63
-1390.83
)
;
    }
    frontAndBack
    {
        type            empty;
    }
    left_cyc
    {
        type            cyclic;
    }
    right_cyc
    {
        type            cyclic;
    }
    procBoundary2to1
    {
        type            processor;
        value           nonuniform List<scalar> 
16
(
-1679.29
-1641.48
-1597.84
-1582.8
-1599.43
-1632.53
-1669.73
-1703.01
-1703.01
-1736.94
-1747.9
-1723.27
-1625.02
-1391.81
-966.97
-294.101
)
;
    }
    procBoundary2to3
    {
        type            processor;
        value           nonuniform List<scalar> 
16
(
-1462.77
-1461.09
-1454.67
-1414.66
-1328.07
-1328.07
-1311.74
-1302.97
-1296.32
-1282.4
-1246.35
-1168.29
-1038.23
-851.997
-587.866
-466.517
)
;
    }
}


// ************************************************************************* //
