/*--------------------------------*- C++ -*----------------------------------*\
| =========                 |                                                 |
| \\      /  F ield         | OpenFOAM: The Open Source CFD Toolbox           |
|  \\    /   O peration     | Version:  2.3.0                                 |
|   \\  /    A nd           | Web:      www.OpenFOAM.org                      |
|    \\/     M anipulation  |                                                 |
\*---------------------------------------------------------------------------*/
FoamFile
{
    version     2.0;
    format      ascii;
    class       surfaceScalarField;
    location    "6000";
    object      phi;
}
// * * * * * * * * * * * * * * * * * * * * * * * * * * * * * * * * * * * * * //

dimensions      [0 3 -1 0 0 0 0];

internalField   nonuniform List<scalar> 
353
(
-0.421767
0.0267223
-0.454465
0.0326981
-0.491549
0.0370836
-0.522333
0.0307842
-0.519756
-0.00257735
-0.458913
-0.060843
-0.355852
-0.103061
-0.222008
-0.133844
-0.0720557
-0.149952
0.0802014
-0.152257
0.23028
-0.150078
0.36357
-0.13329
-0.101693
-0.515133
0.0125514
-0.490092
0.00765675
-0.450522
-0.00248681
-0.392896
-0.0268412
-0.31621
-0.0792632
-0.230495
-0.146559
-0.152203
-0.181352
-0.0875497
-0.198498
-0.0280242
-0.209478
0.0327565
-0.213038
0.0921631
-0.209485
0.157194
-0.198321
-0.180589
-0.439977
-0.0248949
-0.388343
-0.0439772
-0.323437
-0.0673936
-0.253843
-0.0964348
-0.196431
-0.136675
-0.155735
-0.187254
-0.113675
-0.223412
-0.0680505
-0.244122
-0.0216209
-0.255907
0.0251941
-0.259853
0.071548
-0.255839
0.117072
-0.243845
-0.222532
-0.365201
-0.063802
-0.31345
-0.095729
-0.251074
-0.129769
-0.188352
-0.159156
-0.141235
-0.183792
-0.111258
-0.217232
-0.0824663
-0.252204
-0.0506451
-0.275943
-0.0162757
-0.290276
0.0190004
-0.295129
0.0532734
-0.290112
0.0849687
-0.27554
-0.292832
-0.0951709
-0.250685
-0.137876
-0.198987
-0.181467
-0.144663
-0.21348
-0.102286
-0.226169
-0.076525
-0.242993
-0.0554873
-0.273242
-0.0339677
-0.297463
-0.0108605
-0.313384
0.0129213
-0.318911
0.0359612
-0.313152
-0.297008
-0.206087
-0.115306
-0.178052
-0.165912
-0.142151
-0.217368
-0.101913
-0.253718
-0.0667996
-0.261282
-0.0454284
-0.264364
-0.0319363
-0.286734
-0.0194625
-0.309937
-0.00609515
-0.326751
0.00773857
-0.332744
0.0210585
-0.326472
-0.309476
-0.0970582
-0.123807
-0.084237
-0.178733
-0.0667912
-0.234814
-0.0460131
-0.274496
-0.02636
-0.280935
-0.0155644
-0.275159
-0.0108917
-0.291407
-0.00674035
-0.314088
-0.00188701
-0.331604
0.00331833
-0.33795
0.00812053
-0.331274
-0.313592
0.0311374
-0.121961
0.0292281
-0.176823
0.02684
-0.232426
0.0238963
-0.271553
0.0202225
-0.277262
0.0143958
-0.269333
0.00912247
-0.286134
0.00514396
-0.31011
0.00206364
-0.328524
-0.000711881
-0.335174
-0.0038652
-0.328121
-0.309478
0.176517
-0.0706908
0.16582
-0.111264
0.150169
-0.161172
0.12791
-0.210166
0.0996564
-0.243299
0.069465
-0.24707
0.0447994
-0.244667
0.0295391
-0.270873
0.0173824
-0.297953
0.00616821
-0.31731
-0.00484697
-0.324159
-0.0161451
-0.316822
-0.297095
0.30403
-0.0585359
0.285318
-0.0925522
0.257116
-0.132971
0.216782
-0.169832
0.165615
-0.192133
0.114035
-0.19549
0.0762861
-0.206918
0.0521499
-0.246737
0.0313776
-0.277181
0.0108952
-0.296828
-0.00964599
-0.303618
-0.0301678
-0.296301
-0.276143
0.388064
-0.0420109
0.362064
-0.066552
0.323541
-0.094448
0.269739
-0.116029
0.203257
-0.12565
0.146788
-0.139022
0.110136
-0.170266
0.0788667
-0.215468
0.0482173
-0.246531
0.0165341
-0.265144
-0.0155933
-0.27149
-0.0472536
-0.26464
-0.24547
0.402763
-0.0218387
0.371812
-0.0356002
0.32908
-0.0517162
0.277113
-0.0640624
0.223823
-0.0723606
0.181568
-0.0967665
0.148566
-0.137265
0.109999
-0.1769
0.0675543
-0.204087
0.0228808
-0.220471
-0.0225822
-0.226027
-0.0672012
-0.220021
-0.203105
0.366077
-0.00856439
0.345381
-0.0149039
0.315897
-0.0222328
0.28364
-0.0318053
0.256574
-0.0452946
0.227297
-0.0674898
0.188982
-0.0989494
0.140642
-0.12856
0.086463
-0.149908
0.0290194
-0.163027
-0.0295354
-0.167473
-0.0869025
-0.162654
-0.149096
0.362657
3.58471e-05
0.350702
-0.00294859
0.335056
-0.00658704
0.315531
-0.0122806
0.292069
-0.0218326
0.261297
-0.036718
0.218194
-0.0558459
0.163515
-0.0738808
0.10098
-0.0873728
0.0337667
-0.0958142
-0.0350285
-0.0986774
-0.102138
-0.0955449
-0.0867983
0.366661
0.359237
0.349391
0.335902
0.315998
0.285355
0.240328
0.181602
0.112752
0.037654
-0.0395682
-0.114518
)
;

boundaryField
{
    top
    {
        type            calculated;
        value           nonuniform List<scalar> 
13
(
0.00521795
0.00447594
0.00325879
0.00120864
-0.00192866
-0.00607489
-0.0108195
-0.0151548
-0.0185227
-0.0207158
-0.0214552
-0.0205952
-0.0182855
)
;
    }
    bottom
    {
        type            calculated;
        value           uniform 0;
    }
    frontAndBack
    {
        type            empty;
        value           nonuniform 0();
    }
    left_cyc
    {
        type            cyclic;
        value           nonuniform 0();
    }
    right_cyc
    {
        type            cyclic;
        value           nonuniform 0();
    }
    procBoundary2to1
    {
        type            processor;
        value           nonuniform List<scalar> 
16
(
0.395045
0.529304
0.477424
0.404108
0.3242
0.226222
0.105559
-0.0329832
0.0782587
-0.184085
-0.316185
-0.404589
-0.422936
-0.379351
-0.371257
-0.371844
)
;
    }
    procBoundary2to3
    {
        type            processor;
        value           nonuniform List<scalar> 
16
(
0.465264
0.236089
0.159016
0.113802
-0.251366
0.0574289
0.0335268
0.0122359
-0.00797847
-0.0285291
-0.0511193
-0.0779266
-0.109566
-0.140912
-0.164435
-0.183031
)
;
    }
}


// ************************************************************************* //
