/*--------------------------------*- C++ -*----------------------------------*\
| =========                 |                                                 |
| \\      /  F ield         | OpenFOAM: The Open Source CFD Toolbox           |
|  \\    /   O peration     | Version:  2.3.0                                 |
|   \\  /    A nd           | Web:      www.OpenFOAM.org                      |
|    \\/     M anipulation  |                                                 |
\*---------------------------------------------------------------------------*/
FoamFile
{
    version     2.0;
    format      ascii;
    class       volScalarField;
    location    "6000";
    object      T;
}
// * * * * * * * * * * * * * * * * * * * * * * * * * * * * * * * * * * * * * //

dimensions      [0 0 0 1 0 0 0];

internalField   nonuniform List<scalar> 
191
(
37.5942
36.8284
35.8796
34.7281
33.3476
31.6513
30.3216
29.3264
28.6938
28.4749
28.6972
29.3417
30.354
28.5671
27.3803
25.902
24.0249
21.8714
20.1108
18.6252
17.3926
16.5038
16.1496
16.5217
17.4256
18.6744
23.439
22.3799
21.1976
19.8786
18.3568
16.7078
15.0449
13.54
12.4243
11.9802
12.4552
13.5948
15.1197
22.6301
21.9167
21.0185
19.8387
18.295
16.43
14.4184
12.5282
11.1163
10.5662
11.1592
12.6056
14.5237
23.7946
23.2142
22.3535
21.0867
19.3154
17.0947
14.649
12.3222
10.5833
9.91908
10.637
12.4217
25.3503
24.7856
23.8688
22.4639
20.4633
17.9003
15.0252
12.2711
10.2119
9.43467
10.2749
12.3909
26.7185
26.1236
25.1301
23.5988
21.4111
18.5658
15.3188
12.1869
9.83545
8.94898
9.90608
12.3248
27.7053
27.0474
25.9736
24.3464
22.0299
18.9853
15.4515
12.0163
9.41258
8.41713
9.48914
12.1702
28.7059
28.2207
27.458
26.2998
24.6159
22.2404
19.0646
15.3285
11.6954
8.90718
7.81335
8.99185
11.864
28.8273
28.1911
27.2828
26.0141
24.2689
21.8497
18.6102
14.816
11.1325
8.26368
7.10591
8.3552
11.3109
28.1195
27.313
26.2506
24.8764
23.086
20.6394
17.4389
13.8013
10.2575
7.44321
6.27317
7.53927
10.4391
26.0013
25.0611
23.9026
22.4847
20.7127
18.3678
15.4288
12.1794
8.98751
6.39624
5.28802
6.49205
9.16187
21.7118
20.7697
19.6877
18.3991
16.8194
14.848
12.4629
9.82903
7.21722
5.06016
4.11548
5.14655
7.36935
14.8958
14.1562
13.3524
12.4322
11.3259
9.97331
8.37196
6.61277
4.8565
3.38182
2.7221
3.4455
4.96589
5.51048
5.18974
4.87433
4.53805
4.15445
3.70025
3.1632
2.55352
1.91327
1.34774
1.08494
1.37422
1.95678
)
;

boundaryField
{
    top
    {
        type            fixedValue;
        value           uniform 0;
    }
    bottom
    {
        type            fixedValue;
        value           uniform 43.8;
    }
    frontAndBack
    {
        type            empty;
    }
    left_cyc
    {
        type            cyclic;
    }
    right_cyc
    {
        type            cyclic;
    }
    procBoundary2to1
    {
        type            processor;
        value           nonuniform List<scalar> 
16
(
38.206
29.5572
24.3979
23.2351
24.205
25.6912
27.052
28.0827
28.0827
29.0235
29.2793
28.7354
26.7757
22.5574
15.5983
5.8636
)
;
    }
    procBoundary2to3
    {
        type            processor;
        value           nonuniform List<scalar> 
16
(
31.7129
20.1805
16.7963
16.5519
14.7861
14.7861
15.1925
15.5138
15.6718
15.5703
15.0719
14.0597
12.4198
10.0336
6.7579
2.60868
)
;
    }
}


// ************************************************************************* //
