/*--------------------------------*- C++ -*----------------------------------*\
| =========                 |                                                 |
| \\      /  F ield         | OpenFOAM: The Open Source CFD Toolbox           |
|  \\    /   O peration     | Version:  2.3.0                                 |
|   \\  /    A nd           | Web:      www.OpenFOAM.org                      |
|    \\/     M anipulation  |                                                 |
\*---------------------------------------------------------------------------*/
FoamFile
{
    version     2.0;
    format      ascii;
    class       surfaceScalarField;
    location    "4000";
    object      phi;
}
// * * * * * * * * * * * * * * * * * * * * * * * * * * * * * * * * * * * * * //

dimensions      [0 3 -1 0 0 0 0];

internalField   nonuniform List<scalar> 
353
(
-0.36361
0.101653
-0.401738
0.038128
-0.398059
-0.00367919
-0.374421
-0.0236377
-0.347427
-0.0269946
-0.326383
-0.0210437
-0.314645
-0.0117381
-0.311972
-0.00267254
-0.316523
0.00455022
-0.326165
0.0096424
-0.339425
0.0132595
-0.355577
0.016152
0.0189878
-0.551545
0.263742
-0.627137
0.11372
-0.644519
0.0137026
-0.630816
-0.0373412
-0.605268
-0.0525423
-0.579562
-0.0467497
-0.55935
-0.0319501
-0.546283
-0.0157398
-0.539759
-0.00197359
-0.538044
0.00792739
-0.538834
0.0140495
-0.539733
0.0170515
0.0175318
-0.523732
0.422751
-0.607294
0.197282
-0.639279
0.0456872
-0.641062
-0.035558
-0.627754
-0.0658503
-0.608881
-0.065623
-0.589796
-0.0510347
-0.572974
-0.0325618
-0.55902
-0.015928
-0.547355
-0.00373718
-0.53637
0.00306478
-0.523659
0.00433974
1.21293e-05
-0.404584
0.552425
-0.482788
0.275487
-0.52374
0.0866391
-0.540127
-0.0191715
-0.541552
-0.0644253
-0.534557
-0.072618
-0.523354
-0.0622372
-0.510483
-0.0454333
-0.497259
-0.0291515
-0.484024
-0.0169728
-0.470225
-0.010734
-0.454323
-0.0115621
-0.0205016
-0.253121
0.641919
-0.317675
0.340041
-0.361096
0.13006
-0.387927
0.0076599
-0.402369
-0.0499837
-0.407953
-0.0670332
-0.40737
-0.0628206
-0.402639
-0.050164
-0.395213
-0.0365782
-0.385969
-0.0262161
-0.375135
-0.0215683
-0.362105
-0.0245922
-0.0373055
-0.0964066
0.686627
-0.140642
0.384276
-0.179169
0.168587
-0.209935
0.0384265
-0.232645
-0.0272742
-0.248039
-0.0516386
-0.257182
-0.0536781
-0.261211
-0.0461345
-0.261236
-0.0365538
-0.258231
-0.0292208
-0.252892
-0.0269071
-0.245397
-0.0320877
-0.0475516
0.0513416
0.685624
0.0319198
0.403698
0.00424268
0.196264
-0.024233
0.0669022
-0.049708
-0.00179927
-0.0704891
-0.0308575
-0.0862246
-0.0379427
-0.0971566
-0.0352024
-0.10384
-0.0298706
-0.107035
-0.0260252
-0.107583
-0.0263594
-0.106157
-0.0335134
-0.0507506
0.18098
0.640909
0.188831
0.395846
0.175761
0.209335
0.153576
0.0890864
0.129338
0.0224392
0.106919
-0.00843879
0.0880212
-0.0190448
0.073163
-0.0203442
0.0622484
-0.018956
0.0547517
-0.0185285
0.049819
-0.0214267
0.0464803
-0.0301747
0.285407
0.557998
0.320377
0.360877
0.323779
0.205933
0.310104
0.102762
0.289378
0.0431648
0.267633
0.0133058
0.248064
0.000524433
0.232013
-0.00429306
0.21973
-0.00667311
0.210758
-0.00955652
0.204081
-0.0147494
-0.0244391
0.358147
0.446388
0.416264
0.302759
0.43546
0.186737
0.431131
0.107091
0.415332
0.0589637
0.395982
0.032656
0.377605
0.0189017
0.362361
0.0109507
0.350869
0.00481877
0.342695
-0.001383
0.336498
-0.00855202
-0.0182475
0.390984
0.320122
0.463701
0.230042
0.494829
0.155609
0.499181
0.102739
0.489391
0.0687535
0.474239
0.0478086
0.458917
0.0342236
0.445991
0.0238762
0.436332
0.014478
0.429619
0.0053298
0.424306
-0.00323888
-0.0118094
0.370921
0.198795
0.445047
0.155916
0.481438
0.119218
0.492861
0.0913162
0.490513
0.0711006
0.48221
0.0561124
0.47248
0.0439535
0.463467
0.0328895
0.455891
0.022054
0.449616
0.0116045
0.443505
0.00287221
-0.00371119
0.190278
0.115746
0.282856
0.106217
0.343904
0.0948682
0.379754
0.0833682
0.398617
0.0724537
0.407402
0.0623155
0.410647
0.0528671
0.410704
0.0438961
0.408444
0.0351501
0.404088
0.0264094
0.39795
0.0177427
0.390748
0.0100744
0.00402705
0.101233
0.0546375
0.155337
0.0521125
0.201852
0.0483536
0.241338
0.043882
0.274642
0.0391502
0.302513
0.0344446
0.325484
0.0298961
0.343857
0.0255228
0.357733
0.021274
0.367056
0.0170863
0.371759
0.01304
0.372292
0.00954124
0.00669735
0.0884073
0.137929
0.182988
0.222898
0.257478
0.286845
0.311239
0.330908
0.34605
0.356806
0.363405
0.366447
)
;

boundaryField
{
    top
    {
        type            calculated;
        value           nonuniform List<scalar> 
13
(
0.00197697
0.00259068
0.00329475
0.00397219
0.00457002
0.0050778
0.00550226
0.00585282
0.00613202
0.00633089
0.00644134
0.00649882
0.00650019
)
;
    }
    bottom
    {
        type            calculated;
        value           uniform 0;
    }
    frontAndBack
    {
        type            empty;
        value           nonuniform 0();
    }
    left_cyc
    {
        type            cyclic;
        value           nonuniform 0();
    }
    right_cyc
    {
        type            cyclic;
        value           nonuniform 0();
    }
    procBoundary1to0
    {
        type            processor;
        value           nonuniform List<scalar> 
16
(
0.261957
0.389456
0.364723
0.27491
0.163628
0.0516977
-0.0503377
-0.136265
-0.202496
-0.246538
-0.264718
-0.249594
-0.23849
-0.0675337
-0.0401246
-0.0357468
)
;
    }
    procBoundary1to2
    {
        type            processor;
        value           nonuniform List<scalar> 
16
(
-0.374564
-0.538277
-0.506139
-0.433809
-0.345301
-0.235151
-0.102958
0.0439483
-0.0482185
0.198345
0.330306
0.417868
0.435406
0.38301
0.369622
0.366644
)
;
    }
}


// ************************************************************************* //
