/*--------------------------------*- C++ -*----------------------------------*\
| =========                 |                                                 |
| \\      /  F ield         | OpenFOAM: The Open Source CFD Toolbox           |
|  \\    /   O peration     | Version:  2.3.0                                 |
|   \\  /    A nd           | Web:      www.OpenFOAM.org                      |
|    \\/     M anipulation  |                                                 |
\*---------------------------------------------------------------------------*/
FoamFile
{
    version     2.0;
    format      ascii;
    class       volVectorField;
    location    "4000";
    object      U;
}
// * * * * * * * * * * * * * * * * * * * * * * * * * * * * * * * * * * * * * //

dimensions      [0 1 -1 0 0 0 0];

internalField   nonuniform List<vector> 
191
(
(-49.3631 0 5.99509)
(-59.2448 0 1.66042)
(-61.04 0 -1.11958)
(-58.3212 0 -2.28416)
(-54.0813 0 -2.19672)
(-50.266 0 -1.4752)
(-47.7588 0 -0.599461)
(-46.7167 0 0.166425)
(-46.927 0 0.739577)
(-48.0573 0 1.14345)
(-49.8157 0 1.4712)
(-52.0401 0 1.8133)
(-54.6754 0 2.25824)
(-74.1503 0 26.1158)
(-91.0311 0 10.422)
(-96.9424 0 0.0126193)
(-96.365 0 -5.09909)
(-92.8736 0 -6.26615)
(-88.7328 0 -5.15936)
(-85.172 0 -3.15442)
(-82.6686 0 -1.10809)
(-81.249 0 0.56628)
(-80.7068 0 1.753)
(-80.7241 0 2.54096)
(-80.9401 0 3.06698)
(-80.9949 0 3.44593)
(-69.8404 0 52.4236)
(-87.1459 0 23.4875)
(-94.9256 0 4.1199)
(-96.802 0 -6.00547)
(-95.4998 0 -9.41345)
(-92.8236 0 -8.84001)
(-89.8432 0 -6.46688)
(-87.1017 0 -3.69907)
(-84.798 0 -1.28073)
(-82.9199 0 0.47767)
(-81.2961 0 1.50917)
(-79.6201 0 1.86365)
(-77.4784 0 1.59473)
(-53.1503 0 74.4648)
(-68.1775 0 35.8564)
(-76.5793 0 9.76879)
(-80.4862 0 -4.51344)
(-81.5365 0 -10.239)
(-80.9239 0 -10.7885)
(-79.4377 0 -8.81942)
(-77.5642 0 -6.06644)
(-75.5789 0 -3.50259)
(-73.5991 0 -1.60425)
(-71.6116 0 -0.586393)
(-69.4605 0 -0.544646)
(-66.8411 0 -1.55776)
(-32.261 0 91.1758)
(-43.6628 0 46.8254)
(-51.5813 0 16.3185)
(-56.7036 0 -1.11913)
(-59.6607 0 -8.9719)
(-61.048 0 -10.8875)
(-61.3347 0 -9.75609)
(-60.8712 0 -7.48362)
(-59.9162 0 -5.17684)
(-58.6455 0 -3.43134)
(-57.1471 0 -2.58317)
(-55.3996 0 -2.87118)
(-53.2429 0 -4.52703)
(-11.0082 0 101.34)
(-17.9147 0 55.1962)
(-24.239 0 22.7153)
(-29.4834 0 3.43394)
(-33.4848 0 -6.00096)
(-36.3073 0 -9.19247)
(-38.1042 0 -9.05511)
(-39.0481 0 -7.53071)
(-39.3121 0 -5.76591)
(-39.0566 0 -4.40849)
(-38.4142 0 -3.86739)
(-37.4601 0 -4.48851)
(-36.1709 0 -6.64316)
(8.64137 0 104.604)
(6.7457 0 60.0943)
(2.84999 0 27.8652)
(-1.55822 0 8.07938)
(-5.70236 0 -2.19941)
(-9.20416 0 -6.31588)
(-11.9427 0 -7.05588)
(-13.926 0 -6.3095)
(-15.221 0 -5.19688)
(-15.9304 0 -4.35494)
(-16.1812 0 -4.20458)
(-16.0981 0 -5.14134)
(-15.7573 0 -7.63088)
(25.4624 0 101.047)
(28.7882 0 61.0097)
(27.8609 0 31.0221)
(24.8786 0 11.9931)
(21.2033 0 1.64977)
(17.6073 0 -2.95681)
(14.4718 0 -4.34278)
(11.9339 0 -4.26173)
(10.0136 0 -3.76889)
(8.66006 0 -3.45387)
(7.76432 0 -3.70471)
(7.17879 0 -4.91753)
(6.76205 0 -7.60488)
(38.6373 0 91.1982)
(46.9112 0 57.7247)
(49.1794 0 31.7719)
(47.9549 0 14.7376)
(45.0863 0 5.08606)
(41.7366 0 0.425929)
(38.5604 0 -1.37718)
(35.8629 0 -1.85323)
(33.7429 0 -1.93033)
(32.1774 0 -2.11541)
(31.0506 0 -2.73251)
(30.1728 0 -4.14449)
(47.5261 0 76.1708)
(59.8205 0 50.5069)
(65.0159 0 29.9891)
(65.6107 0 16.0863)
(63.7347 0 7.86607)
(60.8756 0 3.56818)
(57.9294 0 1.53458)
(55.3614 0 0.559891)
(53.3546 0 -0.0830569)
(51.9136 0 -0.76779)
(50.9007 0 -1.71122)
(50.0501 0 -3.20669)
(51.2757 0 57.8288)
(65.9038 0 40.3842)
(73.1455 0 26.0889)
(75.2798 0 16.0935)
(74.475 0 9.86886)
(72.3531 0 6.26416)
(69.9325 0 4.16046)
(67.7568 0 2.74197)
(66.0546 0 1.54078)
(64.8615 0 0.364059)
(64.0383 0 -0.839478)
(63.2563 0 -2.24709)
(48.342 0 37.7987)
(62.8027 0 28.2142)
(70.637 0 20.2041)
(73.7633 0 14.385)
(74.0925 0 10.4728)
(73.0733 0 7.85384)
(71.6067 0 5.93265)
(70.1555 0 4.27873)
(68.9022 0 2.66632)
(67.8865 0 1.07758)
(67.0152 0 -0.315396)
(66.0333 0 -1.47226)
(20.2708 0 26.9517)
(36.6685 0 23.9041)
(48.0608 0 20.5241)
(55.0374 0 17.3779)
(58.8563 0 14.632)
(60.7223 0 12.2557)
(61.5044 0 10.1501)
(61.7 0 8.2132)
(61.5222 0 6.37036)
(61.0224 0 4.59125)
(60.226 0 2.92499)
(59.1731 0 1.55362)
(58.0309 0 0.54908)
(10.8177 0 9.08861)
(19.5103 0 8.83643)
(27.0566 0 8.34822)
(33.4821 0 7.67017)
(38.9143 0 6.88136)
(43.4798 0 6.04867)
(47.2777 0 5.21206)
(50.3709 0 4.38415)
(52.7881 0 3.55459)
(54.5307 0 2.70003)
(55.5839 0 1.82707)
(55.9406 0 1.05284)
(55.7458 0 0.443953)
(9.4039 0 4.11117)
(17.1269 0 4.08859)
(24.2563 0 4.02875)
(30.6421 0 3.93589)
(36.2277 0 3.81856)
(41.0155 0 3.68469)
(45.0376 0 3.5388)
(48.3338 0 3.38141)
(50.9389 0 3.20941)
(52.8761 0 3.01783)
(54.1634 0 2.80605)
(54.8584 0 2.58318)
(55.083 0 2.34265)
)
;

boundaryField
{
    top
    {
        type            directionMixed;
        refValue        uniform (0 0 0);
        refGradient     uniform (0 0 0);
        valueFraction   uniform (0 0 0 0 0 1);
        value           nonuniform List<vector> 
13
(
(9.4039 0 0)
(17.1269 0 0)
(24.2563 0 0)
(30.6421 0 0)
(36.2277 0 0)
(41.0155 0 0)
(45.0376 0 0)
(48.3338 0 0)
(50.9389 0 0)
(52.8761 0 0)
(54.1634 0 0)
(54.8584 0 0)
(55.083 0 0)
)
;
    }
    bottom
    {
        type            fixedValue;
        value           uniform (0 0 0);
    }
    frontAndBack
    {
        type            empty;
    }
    left_cyc
    {
        type            cyclic;
    }
    right_cyc
    {
        type            cyclic;
    }
    procBoundary1to0
    {
        type            processor;
        value           nonuniform List<vector> 
16
(
(-28.495 0 10.8701)
(-42.357 0 43.6172)
(-39.538 0 84.91)
(-29.4288 0 117.911)
(-16.9821 0 140.606)
(-4.66992 0 151.783)
(6.28117 0 151.87)
(15.2424 0 142.114)
(21.9563 0 124.375)
(26.3008 0 100.863)
(28.0153 0 74.2595)
(26.4014 0 46.7443)
(26.4014 0 46.7443)
(-0.188989 0 28.4416)
(1.17004 0 9.15244)
(1.3257 0 4.10536)
)
;
    }
    procBoundary1to2
    {
        type            processor;
        value           nonuniform List<vector> 
16
(
(-57.7615 0 2.90776)
(-80.5068 0 3.75873)
(-74.3623 0 0.722457)
(-63.3075 0 -3.70583)
(-50.361 0 -7.77512)
(-34.389 0 -10.7031)
(-15.14 0 -12.1692)
(6.42087 0 -12.3401)
(29.3318 0 -6.87417)
(29.3318 0 -6.87417)
(49.0456 0 -5.76095)
(62.1096 0 -4.34549)
(64.59 0 -2.86363)
(56.8505 0 -0.351933)
(55.139 0 -0.123047)
(54.9137 0 2.05629)
)
;
    }
}


// ************************************************************************* //
