/*--------------------------------*- C++ -*----------------------------------*\
| =========                 |                                                 |
| \\      /  F ield         | OpenFOAM: The Open Source CFD Toolbox           |
|  \\    /   O peration     | Version:  2.3.0                                 |
|   \\  /    A nd           | Web:      www.OpenFOAM.org                      |
|    \\/     M anipulation  |                                                 |
\*---------------------------------------------------------------------------*/
FoamFile
{
    version     2.0;
    format      ascii;
    class       surfaceScalarField;
    location    "23000";
    object      phi;
}
// * * * * * * * * * * * * * * * * * * * * * * * * * * * * * * * * * * * * * //

dimensions      [0 3 -1 0 0 0 0];

internalField   nonuniform List<scalar> 
354
(
0.510334
-0.0751654
0.526982
-0.0166486
0.501926
0.0250568
0.464816
0.0371094
0.430489
0.0343272
0.4021
0.0283894
0.378926
0.0231739
0.359598
0.0193274
0.343157
0.0164408
0.329222
0.0139353
0.317997
0.0112254
0.00762973
0.293079
-0.160665
0.374413
-0.0979833
0.437854
-0.0383837
0.482071
-0.00710809
0.510592
0.00580622
0.527212
0.0117694
0.535387
0.0149996
0.538031
0.0166826
0.537593
0.0168792
0.536221
0.0153076
0.535964
0.0114818
0.00465824
0.184027
-0.200401
0.237101
-0.151057
0.305334
-0.106617
0.373011
-0.074785
0.428582
-0.0497647
0.469642
-0.0292904
0.498095
-0.0134539
0.517345
-0.00256689
0.530832
0.00339183
0.541539
0.00460094
0.551913
0.00110788
-0.00725264
0.132036
-0.229349
0.173959
-0.19298
0.233936
-0.166594
0.29808
-0.138929
0.353283
-0.104968
0.395604
-0.071611
0.426198
-0.0440476
0.448157
-0.0245258
0.464706
-0.0131578
0.478477
-0.00917001
0.491314
-0.0117291
-0.0201487
0.0704067
-0.281375
0.0936849
-0.252627
0.131057
-0.230352
0.184013
-0.219551
0.237602
-0.192518
0.282792
-0.150158
0.317037
-0.105856
0.341705
-0.0687158
0.359534
-0.0423552
0.373116
-0.0267398
0.384295
-0.0203492
0.394045
-0.0214783
-0.0286434
0.0416262
-0.294315
0.0595358
-0.270536
0.0902104
-0.261027
0.130637
-0.259977
0.168515
-0.230397
0.199008
-0.18065
0.221245
-0.128092
0.236773
-0.0842445
0.247733
-0.0533153
0.255811
-0.0348178
0.261901
-0.0264391
0.266132
-0.0257086
-0.0305619
0.0146532
-0.298766
0.0232586
-0.279142
0.0398272
-0.277595
0.0607708
-0.280921
0.0793386
-0.248964
0.093497
-0.194809
0.103078
-0.137674
0.10912
-0.0902856
0.112801
-0.0569965
0.114825
-0.0368424
0.11525
-0.0268634
0.113585
-0.0240442
-0.026022
-0.0122665
-0.293741
-0.0187691
-0.272639
-0.0234279
-0.272936
-0.0265723
-0.277776
-0.0291196
-0.246417
-0.0311302
-0.192798
-0.0330389
-0.135765
-0.0350878
-0.0882367
-0.0374178
-0.0546664
-0.0403196
-0.0339406
-0.04438
-0.022803
-0.0504621
-0.017962
-0.0169992
-0.0398044
-0.279104
-0.0631437
-0.2493
-0.0919336
-0.244147
-0.12099
-0.24872
-0.144944
-0.222464
-0.162309
-0.175432
-0.174291
-0.123783
-0.182703
-0.0798251
-0.189128
-0.0482415
-0.194836
-0.0282327
-0.200982
-0.0166571
-0.208787
-0.0101564
-0.00640288
-0.0687165
-0.255842
-0.101233
-0.216784
-0.149318
-0.196061
-0.202748
-0.19529
-0.246735
-0.178477
-0.278329
-0.143838
-0.299568
-0.102544
-0.313398
-0.0659955
-0.322572
-0.0390669
-0.329289
-0.0215158
-0.335334
-0.0106125
-0.34246
-0.00303017
0.00335405
-0.100167
-0.225267
-0.132278
-0.184673
-0.183435
-0.144903
-0.251147
-0.127578
-0.309523
-0.120102
-0.352324
-0.101037
-0.381641
-0.073227
-0.40048
-0.0471561
-0.412146
-0.027401
-0.419542
-0.0141204
-0.424983
-0.00517105
-0.430707
0.00269404
0.0112683
-0.136775
-0.185726
-0.171607
-0.149841
-0.210083
-0.106427
-0.261285
-0.0763764
-0.315109
-0.0662777
-0.360914
-0.0552314
-0.395031
-0.0391098
-0.417681
-0.0245063
-0.431801
-0.0132811
-0.440723
-0.00519783
-0.44696
0.00106577
-0.452516
0.00825031
0.0176376
-0.175063
-0.135452
-0.216897
-0.108006
-0.248048
-0.0752771
-0.274365
-0.0500588
-0.30607
-0.0345735
-0.337198
-0.0241028
-0.360015
-0.0162933
-0.374764
-0.00975742
-0.384274
-0.00377108
-0.391296
0.00182485
-0.39763
0.00739922
-0.40341
0.0140304
0.0221005
-0.202995
-0.0781633
-0.249784
-0.061217
-0.283503
-0.0415582
-0.308382
-0.0251794
-0.328838
-0.014118
-0.345368
-0.00757248
-0.358101
-0.00356102
-0.367379
-0.000478555
-0.37355
0.00239922
-0.376939
0.00521424
-0.377527
0.00798689
-0.374553
0.0110562
0.0147685
-0.224367
-0.273525
-0.307815
-0.330093
-0.344782
-0.355234
-0.363064
-0.368647
-0.371844
-0.372476
-0.370407
-0.365232
)
;

boundaryField
{
    top
    {
        type            calculated;
        value           nonuniform List<scalar> 
13
(
-0.0161621
-0.0120597
-0.00726799
-0.00290085
0.000570471
0.0028798
0.0042685
0.00510487
0.00559584
0.00584663
0.00591746
0.00588162
0.0058175
)
;
    }
    bottom
    {
        type            calculated;
        value           uniform 0;
    }
    frontAndBack
    {
        type            empty;
        value           nonuniform 0();
    }
    left_cyc
    {
        type            cyclic;
        value           nonuniform 0();
    }
    right_cyc
    {
        type            cyclic;
        value           nonuniform 0();
    }
    procBoundary3to0throughright_cyc
    {
        type            processorCyclic;
        value           nonuniform List<scalar> 
15
(
0.310367
0.538936
0.563823
0.50421
0.402539
0.26805
0.109045
-0.059485
-0.219384
-0.352217
-0.438622
-0.458886
-0.407873
-0.367221
-0.356281
)
;
    }
    procBoundary3to2
    {
        type            processor;
        value           nonuniform List<scalar> 
16
(
-0.435168
-0.207579
-0.144291
-0.103088
0.260574
-0.0496056
-0.0286872
-0.0102014
0.00724068
0.0251678
0.0454544
0.069592
0.0972344
0.124788
0.145707
0.162366
)
;
    }
}


// ************************************************************************* //
