/*--------------------------------*- C++ -*----------------------------------*\
| =========                 |                                                 |
| \\      /  F ield         | OpenFOAM: The Open Source CFD Toolbox           |
|  \\    /   O peration     | Version:  2.3.0                                 |
|   \\  /    A nd           | Web:      www.OpenFOAM.org                      |
|    \\/     M anipulation  |                                                 |
\*---------------------------------------------------------------------------*/
FoamFile
{
    version     2.0;
    format      ascii;
    class       surfaceScalarField;
    location    "24000";
    object      phi;
}
// * * * * * * * * * * * * * * * * * * * * * * * * * * * * * * * * * * * * * //

dimensions      [0 3 -1 0 0 0 0];

internalField   nonuniform List<scalar> 
354
(
0.510404
-0.075094
0.526966
-0.0165617
0.501869
0.0250964
0.464758
0.0371114
0.43044
0.0343181
0.40206
0.0283798
0.378894
0.0231666
0.359571
0.0193222
0.343135
0.0164368
0.329203
0.0139315
0.317982
0.011221
0.00762363
0.293207
-0.160602
0.374522
-0.0978765
0.437932
-0.0383134
0.482124
-0.00708032
0.510625
0.00581722
0.52723
0.0117747
0.535394
0.0150024
0.538032
0.0166837
0.537591
0.0168782
0.536219
0.0153039
0.535965
0.0114746
0.00464624
0.184087
-0.200339
0.237191
-0.15098
0.30544
-0.106563
0.373105
-0.0747458
0.428655
-0.0497323
0.469694
-0.029264
0.49813
-0.0134341
0.517368
-0.0025543
0.530849
0.00339746
0.541553
0.00459982
0.551928
0.00109995
-0.00726759
0.132079
-0.22929
0.174035
-0.192937
0.234035
-0.166563
0.298173
-0.138884
0.353358
-0.104917
0.395659
-0.0715647
0.426236
-0.0440118
0.448184
-0.0245023
0.464728
-0.0131457
0.478496
-0.00916815
0.491332
-0.0117363
-0.0201638
0.0704364
-0.281337
0.0937249
-0.252578
0.131127
-0.230339
0.184098
-0.219534
0.23768
-0.192465
0.282853
-0.15009
0.317081
-0.105793
0.341736
-0.0686669
0.359556
-0.0423229
0.373133
-0.0267226
0.38431
-0.0203445
0.394057
-0.0214835
-0.0286563
0.0416453
-0.294279
0.059575
-0.270508
0.0902772
-0.261041
0.130704
-0.25996
0.168571
-0.230333
0.199049
-0.180568
0.221273
-0.128016
0.236792
-0.0841863
0.247746
-0.0532772
0.255821
-0.0347969
0.261908
-0.0264315
0.266135
-0.0257108
-0.0305709
0.014658
-0.298732
0.0232785
-0.279129
0.0398667
-0.277629
0.0608071
-0.280901
0.0793661
-0.248892
0.093515
-0.194717
0.103089
-0.13759
0.109125
-0.0902225
0.112803
-0.0569554
0.114826
-0.0368193
0.115248
-0.0268534
0.11358
-0.0240429
-0.0260265
-0.0122767
-0.293705
-0.0187773
-0.272628
-0.0234318
-0.272975
-0.0265772
-0.277756
-0.0291253
-0.246344
-0.0311362
-0.192706
-0.0330452
-0.135681
-0.0350941
-0.0881736
-0.0374243
-0.0546251
-0.0403269
-0.0339168
-0.0443892
-0.0227911
-0.0504746
-0.0179575
-0.0169992
-0.0398285
-0.279063
-0.063186
-0.24927
-0.0919887
-0.244172
-0.12104
-0.248704
-0.144983
-0.222401
-0.162338
-0.175351
-0.174312
-0.123707
-0.182718
-0.0797672
-0.18914
-0.0482031
-0.194847
-0.0282097
-0.200994
-0.0166442
-0.208803
-0.0101491
-0.00639861
-0.0687559
-0.255794
-0.101307
-0.216719
-0.149418
-0.196061
-0.202837
-0.195285
-0.246803
-0.178435
-0.278377
-0.143777
-0.2996
-0.102484
-0.313419
-0.0659481
-0.322588
-0.0390347
-0.329301
-0.0214959
-0.335346
-0.0105999
-0.342474
-0.00302056
0.00336246
-0.100217
-0.225216
-0.132339
-0.184596
-0.18353
-0.144871
-0.25125
-0.127565
-0.309605
-0.120081
-0.352382
-0.100999
-0.381681
-0.0731858
-0.400506
-0.0471227
-0.412163
-0.0273777
-0.419553
-0.0141053
-0.424993
-0.00515993
-0.430719
0.00270532
0.0112804
-0.136833
-0.185681
-0.171655
-0.149774
-0.210156
-0.10637
-0.261373
-0.0763478
-0.315188
-0.0662654
-0.360976
-0.0552112
-0.395075
-0.0390873
-0.417709
-0.0244884
-0.431819
-0.0132679
-0.440736
-0.00518842
-0.44697
0.00107446
-0.452526
0.0082617
0.0176512
-0.175135
-0.135416
-0.216952
-0.107958
-0.248091
-0.0752307
-0.274409
-0.0500291
-0.306119
-0.0345562
-0.337239
-0.0240905
-0.360043
-0.0162838
-0.374782
-0.00974904
-0.384287
-0.0037633
-0.391307
0.0018322
-0.39764
0.00740714
-0.403419
0.0140404
0.0221117
-0.203075
-0.078141
-0.249845
-0.0611879
-0.283546
-0.0415297
-0.308416
-0.0251589
-0.328866
-0.0141062
-0.345391
-0.00756568
-0.358118
-0.00355656
-0.367392
-0.000474715
-0.373559
0.00240297
-0.376944
0.00521791
-0.377528
0.00799065
-0.374548
0.0110607
0.0147737
-0.224452
-0.273587
-0.307856
-0.33012
-0.344801
-0.355249
-0.363075
-0.368656
-0.371849
-0.372478
-0.370405
-0.365225
)
;

boundaryField
{
    top
    {
        type            calculated;
        value           nonuniform List<scalar> 
13
(
-0.0161566
-0.0120528
-0.00726086
-0.00289494
0.000574522
0.00288234
0.00426994
0.00510572
0.00559628
0.00584679
0.00591742
0.00588149
0.00581731
)
;
    }
    bottom
    {
        type            calculated;
        value           uniform 0;
    }
    frontAndBack
    {
        type            empty;
        value           nonuniform 0();
    }
    left_cyc
    {
        type            cyclic;
        value           nonuniform 0();
    }
    right_cyc
    {
        type            cyclic;
        value           nonuniform 0();
    }
    procBoundary3to0throughright_cyc
    {
        type            processorCyclic;
        value           nonuniform List<scalar> 
15
(
0.310358
0.538942
0.563841
0.504228
0.402549
0.26805
0.109035
-0.059502
-0.219403
-0.352235
-0.438637
-0.458897
-0.407879
-0.36721
-0.356269
)
;
    }
    procBoundary3to2
    {
        type            processor;
        value           nonuniform List<scalar> 
16
(
-0.43531
-0.207699
-0.14435
-0.103128
0.260535
-0.0496347
-0.028703
-0.010205
0.00724889
0.0251873
0.0454864
0.0696384
0.0972987
0.12487
0.1458
0.162468
)
;
    }
}


// ************************************************************************* //
