/*--------------------------------*- C++ -*----------------------------------*\
| =========                 |                                                 |
| \\      /  F ield         | OpenFOAM: The Open Source CFD Toolbox           |
|  \\    /   O peration     | Version:  2.3.0                                 |
|   \\  /    A nd           | Web:      www.OpenFOAM.org                      |
|    \\/     M anipulation  |                                                 |
\*---------------------------------------------------------------------------*/
FoamFile
{
    version     2.0;
    format      ascii;
    class       volScalarField;
    location    "24000";
    object      T;
}
// * * * * * * * * * * * * * * * * * * * * * * * * * * * * * * * * * * * * * //

dimensions      [0 0 0 1 0 0 0];

internalField   nonuniform List<scalar> 
191
(
31.2173
32.8556
34.3392
35.5643
36.5765
37.396
38.0507
38.5734
38.9942
39.3367
39.6171
39.8429
19.665
21.3835
23.4943
25.4542
27.0269
28.2799
29.3166
30.2026
30.9737
31.6476
32.2289
32.7077
16.2517
17.9341
19.5103
20.886
22.1017
23.1917
24.1758
25.0723
25.8814
26.6027
27.2308
27.7406
15.8969
17.8361
19.4884
20.7681
21.7341
22.4885
23.1159
23.6748
24.2033
24.7079
25.1788
25.6186
13.9776
16.4492
18.7749
20.6988
22.1037
23.0635
23.7065
24.1515
24.49
24.7846
25.0712
25.3666
25.6779
14.2298
17.1411
19.8406
22.0294
23.597
24.6341
25.2782
25.665
25.9068
26.0855
26.2541
26.4428
26.6653
14.4153
17.7122
20.7226
23.1207
24.8299
25.9569
26.6427
27.0301
27.2458
27.3864
27.515
27.6654
27.8489
14.4644
18.0658
21.304
23.839
25.6481
26.859
27.6126
28.0479
28.2966
28.462
28.6082
28.7638
28.9323
14.2882
18.095
21.4891
24.094
25.9552
27.2433
28.0981
28.6416
28.9901
29.2356
29.4345
29.612
29.773
13.7606
17.6075
21.076
23.7344
25.649
27.0362
28.0309
28.7263
29.2141
29.5728
29.8556
30.0917
30.2943
12.7862
16.4636
19.8685
22.5494
24.4988
25.9763
27.1165
27.9809
28.6359
29.1464
29.5629
29.9163
30.2261
11.2761
14.5742
17.6616
20.1978
22.112
23.6179
24.8428
25.8336
26.6435
27.324
27.9161
28.4499
28.9545
9.10042
11.7802
14.2766
16.3799
18.0676
19.4307
20.562
21.5363
22.4042
23.1951
23.9415
24.6894
25.4145
6.12929
7.92063
9.59135
11.0255
12.2018
13.1687
13.9993
14.7535
15.464
16.1898
16.9489
17.7154
18.4749
2.38227
3.01134
3.5749
4.05461
4.45809
4.80664
5.12762
5.44842
5.79716
6.16157
6.53741
6.92439
7.32074
)
;

boundaryField
{
    top
    {
        type            fixedValue;
        value           uniform 0;
    }
    bottom
    {
        type            fixedValue;
        value           uniform 43.8;
    }
    frontAndBack
    {
        type            empty;
    }
    left_cyc
    {
        type            cyclic;
    }
    right_cyc
    {
        type            cyclic;
    }
    procBoundary3to0throughright_cyc
    {
        type            processorCyclic;
        value           nonuniform List<scalar> 
15
(
40.0075
33.0407
28.1425
26.0262
26.0051
26.9216
28.0594
29.1006
29.9129
30.4695
30.5066
29.4251
26.1037
19.2111
7.71742
)
;
    }
    procBoundary3to2
    {
        type            processor;
        value           nonuniform List<scalar> 
16
(
29.9887
18.243
14.6024
13.8723
13.8723
11.7537
11.5955
11.4146
11.1635
10.7891
10.2084
9.36008
8.17053
6.54619
4.40407
1.74366
)
;
    }
}


// ************************************************************************* //
