/*--------------------------------*- C++ -*----------------------------------*\
| =========                 |                                                 |
| \\      /  F ield         | OpenFOAM: The Open Source CFD Toolbox           |
|  \\    /   O peration     | Version:  2.3.0                                 |
|   \\  /    A nd           | Web:      www.OpenFOAM.org                      |
|    \\/     M anipulation  |                                                 |
\*---------------------------------------------------------------------------*/
FoamFile
{
    version     2.0;
    format      ascii;
    class       volVectorField;
    location    "24000";
    object      U;
}
// * * * * * * * * * * * * * * * * * * * * * * * * * * * * * * * * * * * * * //

dimensions      [0 1 -1 0 0 0 0];

internalField   nonuniform List<vector> 
191
(
(72.7077 0 -6.03346)
(79.8185 0 2.38816)
(78.2029 0 6.77038)
(72.6591 0 7.01395)
(67.0238 0 5.62489)
(62.2922 0 4.17673)
(58.4515 0 3.08657)
(55.2937 0 2.35295)
(52.6254 0 1.8678)
(50.3449 0 1.52832)
(48.4365 0 1.25142)
(46.9762 0 0.956514)
(37.2601 0 -20.6787)
(50.5804 0 -10.452)
(61.7141 0 -0.984591)
(69.6818 0 3.27853)
(74.9743 0 4.26957)
(78.2324 0 4.15886)
(79.9651 0 3.80096)
(80.6733 0 3.44377)
(80.7516 0 3.09633)
(80.5381 0 2.69533)
(80.3401 0 2.14768)
(80.4682 0 1.32336)
(24.6856 0 -27.3528)
(30.6254 0 -18.8363)
(40.3668 0 -10.9427)
(51.3389 0 -6.04881)
(60.6787 0 -3.07058)
(67.9077 0 -1.03964)
(72.9988 0 0.395289)
(76.4383 0 1.32816)
(78.7715 0 1.77561)
(80.4855 0 1.72811)
(81.987 0 1.14179)
(83.6017 0 -0.065723)
(17.592 0 -32.4357)
(21.9172 0 -26.1048)
(30.0973 0 -20.6785)
(40.2318 0 -16.138)
(49.3378 0 -11.7021)
(56.6722 0 -7.65238)
(62.0332 0 -4.37254)
(65.8426 0 -2.0612)
(68.6164 0 -0.737663)
(70.8056 0 -0.342991)
(72.7473 0 -0.818614)
(74.6548 0 -2.1278)
(9.0524 0 -40.9626)
(12.1235 0 -36.3336)
(15.7323 0 -31.8176)
(23.5312 0 -29.1741)
(31.8886 0 -25.2497)
(39.4461 0 -19.5378)
(45.4101 0 -13.6497)
(49.7283 0 -8.71954)
(52.8051 0 -5.21359)
(55.0727 0 -3.14899)
(56.8746 0 -2.35823)
(58.4218 0 -2.6523)
(59.7955 0 -3.86507)
(5.23433 0 -43.4681)
(7.28847 0 -39.4769)
(10.3404 0 -37.2514)
(16.7186 0 -36.6133)
(22.6652 0 -32.4326)
(27.8928 0 -25.4383)
(31.8235 0 -18.0423)
(34.5714 0 -11.8457)
(36.4801 0 -7.45922)
(37.8563 0 -4.84968)
(38.8982 0 -3.72677)
(39.6776 0 -3.76988)
(40.1624 0 -4.7024)
(1.81964 0 -44.8223)
(2.61255 0 -41.6924)
(4.2659 0 -41.0828)
(7.66632 0 -41.4109)
(10.6491 0 -36.7283)
(13.1457 0 -28.7801)
(14.9056 0 -20.3947)
(16.028 0 -13.4295)
(16.7188 0 -8.53469)
(17.131 0 -5.59474)
(17.3225 0 -4.20401)
(17.254 0 -3.94117)
(16.8195 0 -4.46396)
(-1.43659 0 -44.8109)
(-2.16193 0 -42.0379)
(-3.33758 0 -42.1793)
(-3.82637 0 -42.8665)
(-4.19255 0 -37.9624)
(-4.54149 0 -29.6613)
(-4.81286 0 -20.9074)
(-5.10337 0 -13.6566)
(-5.42414 0 -8.5644)
(-5.80035 0 -5.45721)
(-6.2947 0 -3.85352)
(-7.0204 0 -3.27114)
(-8.12158 0 -3.34457)
(-4.7689 0 -43.3271)
(-7.05284 0 -39.7635)
(-11.493 0 -39.6827)
(-16.3439 0 -40.4787)
(-20.1608 0 -35.9778)
(-23.3035 0 -28.188)
(-25.4225 0 -19.8285)
(-26.883 0 -12.8179)
(-27.9404 0 -7.83708)
(-28.8048 0 -4.72623)
(-29.6487 0 -2.99053)
(-30.6489 0 -2.12411)
(-31.9929 0 -1.76587)
(-8.46369 0 -40.3986)
(-12.0585 0 -35.0097)
(-17.8271 0 -33.6398)
(-27.0879 0 -34.0759)
(-34.1387 0 -30.6959)
(-39.8541 0 -24.3958)
(-43.6912 0 -17.2843)
(-46.2054 0 -11.1237)
(-47.8333 0 -6.63845)
(-48.9503 0 -3.75221)
(-49.8412 0 -2.01908)
(-50.7646 0 -0.936818)
(-51.9839 0 -0.167604)
(-12.8271 0 -36.3515)
(-17.2246 0 -30.1037)
(-21.9874 0 -25.3397)
(-33.1033 0 -24.9844)
(-42.5965 0 -23.2187)
(-50.2244 0 -18.8941)
(-55.5187 0 -13.4943)
(-59.004 0 -8.65335)
(-61.1655 0 -5.05582)
(-62.4952 0 -2.68038)
(-63.3728 0 -1.14796)
(-64.1309 0 0.0392749)
(-65.0999 0 1.18494)
(-17.8135 0 -31.1757)
(-23.2336 0 -25.2152)
(-27.9775 0 -18.0325)
(-35.0921 0 -13.1948)
(-43.4852 0 -12.9465)
(-51.1109 0 -11.8203)
(-57.148 0 -8.80518)
(-61.3417 0 -5.7017)
(-63.9688 0 -3.30249)
(-65.5841 0 -1.68209)
(-66.6346 0 -0.551204)
(-67.4602 0 0.623461)
(-68.3169 0 2.06961)
(-22.7623 0 -24.5748)
(-29.7836 0 -19.7006)
(-35.15 0 -13.7611)
(-39.2297 0 -9.33714)
(-43.252 0 -6.55857)
(-48.5696 0 -4.47098)
(-52.6399 0 -2.90141)
(-55.3533 0 -1.7217)
(-57.0659 0 -0.71433)
(-58.2107 0 0.208418)
(-59.1598 0 1.13044)
(-60.1239 0 2.28517)
(-60.9218 0 3.79087)
(-26.4916 0 -15.4131)
(-34.4408 0 -12.2117)
(-40.4329 0 -8.50706)
(-44.6134 0 -5.49)
(-47.9293 0 -3.51203)
(-50.7347 0 -2.35477)
(-52.9072 0 -1.59255)
(-54.5398 0 -0.957378)
(-55.6816 0 -0.353244)
(-56.3853 0 0.228563)
(-56.6961 0 0.804146)
(-56.5604 0 1.46676)
(-55.802 0 2.27674)
(-29.4256 0 -10.1266)
(-37.898 0 -7.74122)
(-44.1363 0 -5.00364)
(-48.2028 0 -2.62014)
(-50.8232 0 -0.892296)
(-52.626 0 0.21916)
(-53.9623 0 0.895504)
(-54.9677 0 1.35428)
(-55.6324 0 1.71725)
(-55.9237 0 2.02757)
(-55.8242 0 2.28967)
(-55.3024 0 2.51466)
(-54.2634 0 2.72977)
)
;

boundaryField
{
    top
    {
        type            directionMixed;
        refValue        uniform (0 0 0);
        refGradient     uniform (0 0 0);
        valueFraction   uniform (0 0 0 0 0 1);
        value           nonuniform List<vector> 
13
(
(-29.4256 0 0)
(-37.898 0 0)
(-44.1363 0 0)
(-48.2028 0 0)
(-50.8232 0 0)
(-52.626 0 0)
(-53.9623 0 0)
(-54.9677 0 0)
(-55.6324 0 0)
(-55.9237 0 0)
(-55.8242 0 0)
(-55.3024 0 0)
(-54.2634 0 0)
)
;
    }
    bottom
    {
        type            fixedValue;
        value           uniform (0 0 0);
    }
    frontAndBack
    {
        type            empty;
    }
    left_cyc
    {
        type            cyclic;
    }
    right_cyc
    {
        type            cyclic;
    }
    procBoundary3to0throughright_cyc
    {
        type            processorCyclic;
        value           nonuniform List<vector> 
15
(
(46.1603 0 0.554392)
(81.2423 0 0.0778091)
(85.5609 0 -1.95492)
(76.6137 0 -4.20836)
(60.9663 0 -5.81634)
(40.2494 0 -6.2611)
(15.8899 0 -5.4798)
(-9.72836 0 -3.79749)
(-33.8293 0 -1.68397)
(-53.6932 0 0.445202)
(-66.5044 0 2.32286)
(-69.3693 0 3.61728)
(-61.4573 0 5.47682)
(-54.3594 0 3.11786)
(-52.6161 0 2.9324)
)
;
    }
    procBoundary3to2
    {
        type            processor;
        value           nonuniform List<vector> 
16
(
(58.1438 0 -15.0541)
(24.8093 0 -23.7271)
(18.5069 0 -32.1549)
(13.4047 0 -37.0957)
(13.4047 0 -37.0957)
(5.87124 0 -44.244)
(3.40377 0 -46.7737)
(1.24321 0 -48.0356)
(-0.779917 0 -48.0782)
(-2.87469 0 -46.9227)
(-5.28731 0 -44.5065)
(-8.16199 0 -40.6716)
(-11.4491 0 -35.1354)
(-14.723 0 -27.8793)
(-17.2558 0 -17.6731)
(-19.3056 0 -11.8851)
)
;
    }
}


// ************************************************************************* //
