/*--------------------------------*- C++ -*----------------------------------*\
| =========                 |                                                 |
| \\      /  F ield         | OpenFOAM: The Open Source CFD Toolbox           |
|  \\    /   O peration     | Version:  2.3.0                                 |
|   \\  /    A nd           | Web:      www.OpenFOAM.org                      |
|    \\/     M anipulation  |                                                 |
\*---------------------------------------------------------------------------*/
FoamFile
{
    version     2.0;
    format      ascii;
    class       surfaceScalarField;
    location    "11000";
    object      phi;
}
// * * * * * * * * * * * * * * * * * * * * * * * * * * * * * * * * * * * * * //

dimensions      [0 3 -1 0 0 0 0];

internalField   nonuniform List<scalar> 
356
(
0.308004
0.00246598
0.312918
-0.00491382
0.326931
-0.0140131
0.349951
-0.0230206
0.378038
-0.0280862
0.401113
-0.0230756
0.40198
-0.00086734
0.358586
0.043394
0.250048
0.108538
0.0716234
0.178425
-0.136112
0.207735
-0.293861
0.157749
0.0859514
0.546992
-0.00566998
0.561875
-0.0197974
0.583854
-0.0359919
0.610865
-0.0500309
0.636631
-0.0538525
0.648673
-0.0351183
0.626985
0.0208214
0.54406
0.126319
0.372436
0.280162
0.105231
0.44563
-0.200676
0.513642
-0.439722
0.396795
0.226734
0.578164
-0.0202293
0.595723
-0.0373565
0.615417
-0.0556862
0.634464
-0.0690777
0.647097
-0.0664856
0.643256
-0.0312772
0.607153
0.0569249
0.517057
0.216414
0.349585
0.447634
0.0979867
0.697228
-0.186952
0.798581
-0.413816
0.623659
0.367191
0.517124
-0.0333651
0.529917
-0.0501493
0.540862
-0.0666313
0.547249
-0.0754649
0.544663
-0.0638989
0.526287
-0.0129013
0.48216
0.101052
0.399343
0.299231
0.263892
0.583085
0.0730029
0.888118
-0.138855
1.01044
-0.313817
0.798621
0.484615
0.40918
-0.040144
0.41318
-0.0541494
0.412857
-0.0663084
0.406138
-0.0687458
0.39029
-0.0480512
0.361725
0.0156641
0.316155
0.146622
0.248993
0.366393
0.156694
0.675384
0.0421488
1.00266
-0.0792821
1.13187
-0.188263
0.907602
0.569089
0.26687
-0.0389851
0.261569
-0.0488488
0.251028
-0.0557677
0.234153
-0.0518702
0.209944
-0.0238421
0.17777
0.047838
0.138026
0.186365
0.0929567
0.411463
0.0481389
0.720202
0.0114401
1.03936
-0.0199213
1.16323
-0.060473
0.948154
0.615475
0.100967
-0.0308122
0.0884147
-0.0362967
0.0710221
-0.038375
0.0486556
-0.0295038
0.0217993
0.00301422
-0.00764681
0.0772841
-0.0356136
0.214332
-0.0542502
0.430099
-0.0510492
0.717001
-0.016007
1.00432
0.0330022
1.11422
0.0571514
0.924005
0.621561
-0.0719136
-0.0182045
-0.0885323
-0.019678
-0.109118
-0.0177891
-0.133004
-0.00561778
-0.158289
0.0282987
-0.180829
0.099824
-0.193143
0.226646
-0.182959
0.419916
-0.134234
0.668275
-0.0385563
0.908642
0.0759422
0.999724
0.156701
0.843246
0.587586
-0.233232
-0.00414031
-0.251048
-0.001862
-0.272187
0.00334914
-0.295124
0.0173194
-0.316402
0.049577
-0.329646
0.113068
-0.324359
0.22136
-0.285695
0.381252
-0.197552
0.580132
-0.0554888
0.766579
0.107264
0.836971
0.233098
0.717413
0.517184
-0.365229
0.00907865
-0.382098
0.0150072
-0.401791
0.0230416
-0.421936
0.0374648
-0.437708
0.0653493
-0.440784
0.116143
-0.418687
0.199263
-0.355877
0.318441
-0.238433
0.462687
-0.066371
0.594518
0.126159
0.64444
0.28266
0.560912
0.418252
-0.449428
0.0200527
-0.463515
0.0290937
-0.479659
0.0391856
-0.495073
0.0528791
-0.504239
0.0745148
-0.497965
0.10987
-0.463282
0.16458
-0.38543
0.24059
-0.253347
0.330604
-0.0704015
0.411572
0.131419
0.442619
0.300708
0.391624
0.303609
-0.46653
0.027811
-0.475646
0.0382102
-0.485293
0.0488321
-0.493133
0.0607189
-0.494321
0.0757035
-0.480664
0.0962126
-0.440687
0.124602
-0.361754
0.161657
-0.235304
0.204155
-0.0656873
0.241955
0.120135
0.256797
0.278814
0.232945
-0.410476
0.0304612
-0.411148
0.0388823
-0.40965
0.0473338
-0.404983
0.0560526
-0.394562
0.0652818
-0.373564
0.0752153
-0.33487
0.0859085
-0.27033
0.0971163
-0.174194
0.108019
-0.0490656
0.116826
0.0875528
0.120179
0.114848
-0.355636
0.0187283
-0.339561
0.0228076
-0.319177
0.0269495
-0.29435
0.0312258
-0.264746
0.0356781
-0.229807
0.0402759
-0.188771
0.044873
-0.140821
0.0491663
-0.0854974
0.0526953
-0.0236207
0.0549496
0.040982
0.0555762
0.0544818
-0.343426
-0.326124
-0.304422
-0.278126
-0.246993
-0.210801
-0.16947
-0.123235
-0.07285
-0.0197067
0.0342307
)
;

boundaryField
{
    top
    {
        type            calculated;
        value           nonuniform List<scalar> 
12
(
0.00570116
0.00550617
0.0052476
0.00492928
0.00454507
0.00408447
0.00354175
0.00293099
0.00231067
0.00180628
0.00163888
0.0019228
)
;
    }
    bottom
    {
        type            calculated;
        value           uniform 0;
    }
    frontAndBack
    {
        type            empty;
        value           nonuniform 0();
    }
    left_cyc
    {
        type            cyclic;
        value           nonuniform 0();
    }
    right_cyc
    {
        type            cyclic;
        value           nonuniform 0();
    }
    procBoundary0to1
    {
        type            processor;
        value           nonuniform List<scalar> 
16
(
-0.379812
-0.580505
-0.554273
-0.431241
-0.272738
-0.106859
0.0510656
0.190676
0.303499
0.381592
0.415351
0.390645
0.191778
0.205649
0.101349
0.0867897
)
;
    }
    procBoundary0to3throughleft_cyc
    {
        type            processorCyclic;
        value           nonuniform List<scalar> 
15
(
-0.31047
-0.538856
-0.563605
-0.503989
-0.402401
-0.268029
-0.10914
0.059306
0.219168
0.35201
0.438454
0.458772
0.407826
0.367369
0.356453
)
;
    }
}


// ************************************************************************* //
