/*--------------------------------*- C++ -*----------------------------------*\
| =========                 |                                                 |
| \\      /  F ield         | OpenFOAM: The Open Source CFD Toolbox           |
|  \\    /   O peration     | Version:  2.3.0                                 |
|   \\  /    A nd           | Web:      www.OpenFOAM.org                      |
|    \\/     M anipulation  |                                                 |
\*---------------------------------------------------------------------------*/
FoamFile
{
    version     2.0;
    format      ascii;
    class       volScalarField;
    location    "11000";
    object      T;
}
// * * * * * * * * * * * * * * * * * * * * * * * * * * * * * * * * * * * * * //

dimensions      [0 0 0 1 0 0 0];

internalField   nonuniform List<scalar> 
192
(
40.0049
40.0647
40.0166
39.9139
39.8357
39.8857
40.1474
40.4319
40.8153
41.3274
41.6194
41.1494
40.664
33.0359
33.2225
33.296
33.3031
33.3317
33.5069
33.9228
34.7406
36.092
37.8828
38.869
37.2897
35.5961
28.1358
28.4574
28.7062
28.9104
29.1225
29.4329
29.9946
31.1735
33.1554
35.7663
37.1778
34.9023
32.4097
26.0198
26.3953
26.7384
27.0511
27.3436
27.6683
28.2439
29.4557
31.6107
34.5456
36.1243
33.5735
30.7849
26.0004
26.3365
26.6668
26.9669
27.2155
27.4491
27.8899
28.9201
30.9781
33.9156
35.4806
32.9461
30.1731
26.9182
27.1945
27.4627
27.6819
27.8207
27.9344
28.1832
29.0112
30.9015
33.6664
35.1011
32.7664
30.1525
28.0569
28.2717
28.4553
28.5678
28.5924
28.5991
28.7701
29.517
31.1908
33.5797
34.8246
32.8159
30.5422
29.0988
29.2439
29.3415
29.3815
29.3939
29.4059
29.6088
30.2692
31.6293
33.5374
34.5851
32.9366
31.1176
29.9116
30.0238
30.1058
30.1624
30.2009
30.2783
30.5123
31.068
32.1025
33.5272
34.3739
33.0905
31.7294
30.4675
30.617
30.7418
30.8476
30.9524
31.0938
31.3393
31.7873
32.5334
33.5325
34.1813
33.2426
32.282
30.503
30.7586
30.9926
31.2101
31.4211
31.6454
31.9188
32.2952
32.8285
33.498
33.9645
33.3235
32.6696
29.4185
29.8587
30.274
30.6702
31.0523
31.4269
31.8059
32.2089
32.6565
33.1336
33.4571
33.0291
32.5451
26.0936
26.7467
27.3706
27.9744
28.5643
29.1425
29.7067
30.2513
30.7642
31.2101
31.4559
31.1235
19.2
19.9094
20.5963
21.2666
21.9237
22.5663
23.1878
23.774
24.2991
24.7121
24.8937
24.6322
7.71138
8.10373
8.4922
8.87823
9.26119
9.63704
9.99729
10.328
10.6091
10.8116
10.888
10.7724
)
;

boundaryField
{
    top
    {
        type            fixedValue;
        value           uniform 0;
    }
    bottom
    {
        type            fixedValue;
        value           uniform 43.8;
    }
    frontAndBack
    {
        type            empty;
    }
    left_cyc
    {
        type            cyclic;
    }
    right_cyc
    {
        type            cyclic;
    }
    procBoundary0to1
    {
        type            processor;
        value           nonuniform List<scalar> 
16
(
40.3119
34.4306
30.6857
28.9463
28.4749
28.634
29.1811
29.9889
30.8499
31.6292
32.1825
32.1073
30.6464
30.6464
24.1771
10.544
)
;
    }
    procBoundary0to3throughleft_cyc
    {
        type            processorCyclic;
        value           nonuniform List<scalar> 
15
(
39.8389
32.6995
27.7323
25.6116
25.6735
26.6626
27.8469
28.9305
29.7713
30.2919
30.222
28.9473
25.4036
18.4632
7.31454
)
;
    }
}


// ************************************************************************* //
