/*--------------------------------*- C++ -*----------------------------------*\
| =========                 |                                                 |
| \\      /  F ield         | OpenFOAM: The Open Source CFD Toolbox           |
|  \\    /   O peration     | Version:  2.3.0                                 |
|   \\  /    A nd           | Web:      www.OpenFOAM.org                      |
|    \\/     M anipulation  |                                                 |
\*---------------------------------------------------------------------------*/
FoamFile
{
    version     2.0;
    format      ascii;
    class       volScalarField;
    location    "10000";
    object      p;
}
// * * * * * * * * * * * * * * * * * * * * * * * * * * * * * * * * * * * * * //

dimensions      [0 2 -2 0 0 0 0];

internalField   nonuniform List<scalar> 
191
(
-1740.64
-1723.02
-1708
-1695.83
-1685.77
-1676.83
-1668.16
-1659.14
-1649.4
-1638.74
-1627.01
-1613.98
-1599.33
-1566.65
-1553.75
-1541.6
-1530.55
-1520.58
-1511.44
-1502.78
-1494.27
-1485.63
-1476.61
-1467.01
-1456.7
-1445.49
-1414.43
-1405.54
-1396.47
-1387.69
-1379.38
-1371.56
-1364.22
-1357.26
-1350.6
-1344.09
-1337.61
-1331.08
-1324.47
-1272.94
-1267.97
-1262.33
-1256.63
-1251.02
-1245.57
-1240.37
-1235.49
-1230.96
-1226.79
-1222.93
-1219.34
-1215.94
-1136.55
-1134.45
-1131.7
-1128.79
-1125.86
-1122.91
-1120.02
-1117.26
-1114.72
-1112.42
-1110.37
-1108.47
-1106.56
-1001.64
-1001.6
-1001.05
-1000.29
-999.46
-998.563
-997.603
-996.617
-995.657
-994.762
-993.919
-993.047
-991.982
-866.09
-867.58
-868.613
-869.393
-870.044
-870.614
-871.092
-871.462
-871.73
-871.908
-871.989
-871.924
-871.607
-728.506
-731.254
-733.523
-735.458
-737.169
-738.75
-740.226
-741.587
-742.814
-743.9
-744.834
-745.585
-746.109
-588.11
-591.978
-595.366
-598.315
-600.933
-603.325
-605.562
-607.682
-609.698
-611.623
-613.463
-615.204
-444.72
-449.646
-454.138
-458.117
-461.658
-464.874
-467.875
-470.751
-473.577
-476.427
-479.363
-482.398
-298.683
-304.767
-310.499
-315.689
-320.361
-324.631
-328.639
-332.528
-336.434
-340.519
-344.949
-349.768
-152.554
-160.124
-167.41
-174.141
-180.312
-186.052
-191.543
-196.982
-202.57
-208.555
-215.184
-222.486
1.43081
-7.87304
-17.8839
-27.7883
-37.2077
-46.0631
-54.4335
-62.4623
-70.3202
-78.2205
-86.6806
-96.3777
-106.963
109.22
96.7574
83.9732
71.8316
60.596
50.1351
40.1826
30.4787
20.8666
11.4539
2.51016
-5.40129
-11.5597
9.65013
21.4129
32.7319
42.8059
51.5119
58.9882
65.4196
70.904
75.3996
78.9631
82.4804
86.0408
86.478
)
;

boundaryField
{
    top
    {
        type            calculated;
        value           nonuniform List<scalar> 
13
(
-9.81
-9.81
-9.81
-9.81
-9.81
-9.81
-9.81
-9.81
-9.81
-9.81
-9.81
-9.81
-9.81
)
;
    }
    bottom
    {
        type            calculated;
        value           nonuniform List<scalar> 
13
(
-1832.36
-1814.09
-1798.63
-1786.47
-1776.62
-1767.9
-1759.27
-1750.03
-1739.86
-1728.64
-1716.21
-1702.34
-1686.66
)
;
    }
    frontAndBack
    {
        type            empty;
    }
    left_cyc
    {
        type            cyclic;
    }
    right_cyc
    {
        type            cyclic;
    }
    procBoundary1to0
    {
        type            processor;
        value           nonuniform List<scalar> 
16
(
-1759.29
-1579.09
-1422.03
-1276.37
-1137.31
-1000.71
-863.919
-725.272
-583.954
-439.731
-292.774
-145.366
-145.366
8.61845
119.291
-0.736424
)
;
    }
    procBoundary1to2
    {
        type            processor;
        value           nonuniform List<scalar> 
16
(
-1582.54
-1433.1
-1317.8
-1212.67
-1104.42
-990.492
-870.897
-746.369
-616.842
-616.842
-485.563
-355.043
-230.516
-117.535
-15.0833
82.1191
)
;
    }
}


// ************************************************************************* //
