/*--------------------------------*- C++ -*----------------------------------*\
| =========                 |                                                 |
| \\      /  F ield         | OpenFOAM: The Open Source CFD Toolbox           |
|  \\    /   O peration     | Version:  2.3.0                                 |
|   \\  /    A nd           | Web:      www.OpenFOAM.org                      |
|    \\/     M anipulation  |                                                 |
\*---------------------------------------------------------------------------*/
FoamFile
{
    version     2.0;
    format      ascii;
    class       volScalarField;
    location    "10000";
    object      p_rgh;
}
// * * * * * * * * * * * * * * * * * * * * * * * * * * * * * * * * * * * * * //

dimensions      [0 2 -2 0 0 0 0];

internalField   nonuniform List<scalar> 
191
(
-1832.36
-1814.09
-1798.63
-1786.47
-1776.62
-1767.9
-1759.27
-1750.03
-1739.86
-1728.64
-1716.21
-1702.34
-1686.66
-1801.59
-1784.15
-1769.44
-1757.59
-1747.56
-1738.27
-1728.89
-1718.84
-1707.5
-1694.94
-1681.14
-1665.97
-1649.21
-1763.29
-1743.29
-1729.22
-1717.41
-1706.78
-1696.5
-1686.05
-1675.1
-1663.52
-1650.69
-1636.65
-1621.51
-1605.28
-1733.57
-1712.94
-1700.17
-1689.63
-1679.27
-1668.66
-1657.8
-1646.73
-1635.5
-1624.12
-1612.52
-1600.7
-1588.72
-1719.05
-1700.67
-1690.94
-1683.44
-1675.06
-1665.69
-1655.92
-1646.29
-1637.12
-1628.53
-1620.48
-1612.67
-1604.48
-1717.52
-1702.73
-1697.96
-1694.5
-1689.53
-1682.64
-1674.79
-1666.99
-1659.87
-1653.7
-1648.34
-1643.24
-1637.28
-1728.32
-1714.31
-1713.28
-1713.82
-1712.98
-1709.47
-1704.11
-1698.08
-1692.35
-1687.44
-1683.36
-1679.51
-1674.47
-1750.98
-1736.95
-1735.19
-1737.04
-1738.3
-1737.96
-1735.55
-1731.64
-1727.07
-1722.55
-1718.34
-1714.04
-1708.22
-1780.23
-1767.02
-1763.77
-1764.58
-1765.58
-1765.53
-1764.28
-1761.72
-1758.04
-1753.54
-1748.3
-1741.89
-1810.8
-1799.34
-1794.92
-1793.48
-1792.58
-1791.03
-1788.31
-1784.36
-1779.23
-1772.88
-1765
-1754.86
-1835.03
-1824.71
-1818.21
-1812.94
-1807.45
-1801.07
-1793.55
-1784.82
-1774.83
-1763.55
-1750.1
-1733.63
-1831.27
-1818.02
-1805.45
-1792.37
-1778.21
-1762.82
-1746.1
-1727.91
-1708.16
-1686.96
-1664.81
-1639.68
-1739.97
-1719.12
-1697.48
-1674.77
-1650.86
-1625.73
-1599.24
-1571.13
-1541.03
-1508.79
-1475.21
-1442
-1409.75
-1372.72
-1351.33
-1327.05
-1300.28
-1271.48
-1241.08
-1209.32
-1176.21
-1141.5
-1104.88
-1066.59
-1027.15
-986.485
-679.226
-647.71
-613.732
-579.34
-545.482
-512.494
-480.386
-449.049
-418.413
-388.452
-358.744
-329.716
-304.502
)
;

boundaryField
{
    top
    {
        type            fixedValue;
        value           uniform 0;
    }
    bottom
    {
        type            fixedFluxPressure;
        gradient        uniform 0;
        value           nonuniform List<scalar> 
13
(
-1832.36
-1814.09
-1798.63
-1786.47
-1776.62
-1767.9
-1759.27
-1750.03
-1739.86
-1728.64
-1716.21
-1702.34
-1686.66
)
;
    }
    frontAndBack
    {
        type            empty;
    }
    left_cyc
    {
        type            cyclic;
    }
    right_cyc
    {
        type            cyclic;
    }
    procBoundary1to0
    {
        type            processor;
        value           nonuniform List<scalar> 
16
(
-1851.82
-1822.06
-1790.7
-1766.6
-1755.01
-1755.11
-1766.92
-1786.72
-1810.46
-1834.3
-1852.57
-1847.1
-1847.1
-1759.97
-1390.63
-704.674
)
;
    }
    procBoundary1to2
    {
        type            processor;
        value           nonuniform List<scalar> 
16
(
-1668.57
-1630.41
-1588
-1576.17
-1594.72
-1628.64
-1665.88
-1698.14
-1732.94
-1732.94
-1740.86
-1712.36
-1609.92
-1373.6
-945.875
-284.928
)
;
    }
}


// ************************************************************************* //
