/*--------------------------------*- C++ -*----------------------------------*\
| =========                 |                                                 |
| \\      /  F ield         | OpenFOAM: The Open Source CFD Toolbox           |
|  \\    /   O peration     | Version:  2.3.0                                 |
|   \\  /    A nd           | Web:      www.OpenFOAM.org                      |
|    \\/     M anipulation  |                                                 |
\*---------------------------------------------------------------------------*/
FoamFile
{
    version     2.0;
    format      ascii;
    class       volVectorField;
    location    "10000";
    object      U;
}
// * * * * * * * * * * * * * * * * * * * * * * * * * * * * * * * * * * * * * //

dimensions      [0 1 -1 0 0 0 0];

internalField   nonuniform List<vector> 
191
(
(-60.5848 0 0.917031)
(-61.1023 0 -1.51991)
(-57.7579 0 -2.41755)
(-53.3277 0 -2.17236)
(-49.5582 0 -1.39855)
(-47.1587 0 -0.537138)
(-46.1918 0 0.185429)
(-46.4074 0 0.709227)
(-47.4694 0 1.06683)
(-49.097 0 1.34961)
(-51.1408 0 1.64336)
(-53.5571 0 2.02848)
(-56.3923 0 2.59574)
(-93.8385 0 7.7314)
(-97.9984 0 -1.56615)
(-96.4634 0 -5.81189)
(-92.5598 0 -6.42516)
(-88.3102 0 -5.06961)
(-84.7762 0 -3.02026)
(-82.3308 0 -1.0357)
(-80.9493 0 0.540873)
(-80.4119 0 1.6356)
(-80.4163 0 2.35626)
(-80.6383 0 2.84654)
(-80.7689 0 3.22501)
(-80.4909 0 3.57739)
(-90.3535 0 18.542)
(-96.5976 0 1.14687)
(-97.5803 0 -7.4546)
(-95.823 0 -9.90314)
(-92.9472 0 -8.85591)
(-89.9057 0 -6.33446)
(-87.1667 0 -3.5955)
(-84.889 0 -1.27427)
(-83.0475 0 0.391383)
(-81.4827 0 1.38214)
(-79.9242 0 1.77684)
(-78.015 0 1.64841)
(-75.3172 0 1.02989)
(-71.2028 0 29.2665)
(-78.5198 0 5.72905)
(-81.7254 0 -6.58308)
(-82.3544 0 -11.0627)
(-81.5057 0 -10.9665)
(-79.8989 0 -8.75161)
(-77.9748 0 -5.97407)
(-75.9829 0 -3.47475)
(-74.0309 0 -1.63699)
(-72.1114 0 -0.60768)
(-70.0937 0 -0.431627)
(-67.7193 0 -1.15068)
(-64.6065 0 -2.8259)
(-46.1024 0 39.2458)
(-53.4554 0 11.5646)
(-58.1434 0 -3.66828)
(-60.7948 0 -10.0987)
(-61.9815 0 -11.2462)
(-62.1449 0 -9.78562)
(-61.6153 0 -7.43041)
(-60.639 0 -5.14353)
(-59.3864 0 -3.41624)
(-57.9481 0 -2.50274)
(-56.3184 0 -2.57254)
(-54.3721 0 -3.79927)
(-51.8488 0 -6.37271)
(-19.4366 0 47.3187)
(-25.6926 0 17.6617)
(-30.8094 0 0.627728)
(-34.6823 0 -7.32323)
(-37.4046 0 -9.68739)
(-39.1363 0 -9.1698)
(-40.0481 0 -7.5191)
(-40.3091 0 -5.73561)
(-40.0778 0 -4.35862)
(-39.4874 0 -3.70774)
(-38.6214 0 -4.04569)
(-37.4797 0 -5.66685)
(-35.9464 0 -8.89503)
(6.34602 0 52.5283)
(2.08262 0 22.905)
(-2.47976 0 5.26766)
(-6.67341 0 -3.55913)
(-10.1909 0 -6.84233)
(-12.9489 0 -7.18439)
(-14.9632 0 -6.29274)
(-16.3002 0 -5.14346)
(-17.0602 0 -4.26435)
(-17.3687 0 -3.98377)
(-17.3527 0 -4.60578)
(-17.1007 0 -6.50474)
(-16.6198 0 -10.1165)
(29.5622 0 54.2579)
(27.8885 0 26.4914)
(24.5121 0 9.39247)
(20.638 0 0.389146)
(16.9325 0 -3.41939)
(13.7127 0 -4.40958)
(11.0915 0 -4.17889)
(9.08405 0 -3.64672)
(7.64324 0 -3.29543)
(6.66727 0 -3.41915)
(6.01479 0 -4.31744)
(5.54532 0 -6.40307)
(5.16134 0 -10.1843)
(48.7302 0 52.1665)
(49.9617 0 27.9538)
(48.1352 0 12.5236)
(44.9401 0 4.03503)
(41.4128 0 0.0930586)
(38.1221 0 -1.33951)
(35.3232 0 -1.66747)
(33.096 0 -1.70346)
(31.4192 0 -1.85775)
(30.1915 0 -2.36436)
(29.2432 0 -3.4889)
(28.3818 0 -5.65195)
(62.3446 0 46.3608)
(66.3382 0 27.0945)
(66.1867 0 14.4105)
(63.8951 0 7.11074)
(60.8191 0 3.39984)
(57.7536 0 1.68562)
(55.0952 0 0.852571)
(52.992 0 0.258314)
(51.4436 0 -0.396706)
(50.334 0 -1.25377)
(49.435 0 -2.51597)
(48.4731 0 -4.59199)
(68.5865 0 37.7013)
(74.6178 0 24.2153)
(75.9728 0 15.0386)
(74.734 0 9.45139)
(72.4021 0 6.26812)
(69.8897 0 4.40863)
(67.664 0 3.1149)
(65.9097 0 1.96993)
(64.6498 0 0.82224)
(63.7734 0 -0.333992)
(63.0061 0 -1.59608)
(62.0021 0 -3.36151)
(64.938 0 26.8622)
(71.7466 0 19.2867)
(74.217 0 13.9122)
(74.2004 0 10.3546)
(73.0444 0 7.98327)
(71.5574 0 6.22453)
(70.1347 0 4.67775)
(68.9184 0 3.13848)
(67.9312 0 1.59444)
(67.103 0 0.214734)
(66.2304 0 -0.905194)
(65.0273 0 -2.14111)
(38.3886 0 23.5309)
(48.9723 0 20.2268)
(55.3469 0 17.211)
(58.813 0 14.5995)
(60.5331 0 12.3406)
(61.3121 0 10.3311)
(61.5918 0 8.47209)
(61.5479 0 6.69134)
(61.209 0 4.95621)
(60.5831 0 3.30073)
(59.7058 0 1.88714)
(58.7271 0 0.830886)
(57.7427 0 -0.07345)
(19.3917 0 8.84174)
(26.8313 0 8.34465)
(33.1934 0 7.66926)
(38.6115 0 6.89578)
(43.2081 0 6.08761)
(47.076 0 5.28044)
(50.2723 0 4.48396)
(52.8222 0 3.68692)
(54.7242 0 2.86582)
(55.9606 0 2.01975)
(56.5104 0 1.24504)
(56.4892 0 0.62162)
(56.0543 0 0.0506617)
(16.8112 0 4.03156)
(23.9176 0 3.95)
(30.2925 0 3.83848)
(35.891 0 3.70605)
(40.7211 0 3.56047)
(44.8164 0 3.40586)
(48.215 0 3.24258)
(50.9488 0 3.06776)
(53.0376 0 2.87681)
(54.4943 0 2.66876)
(55.3617 0 2.45082)
(55.7453 0 2.21728)
(55.7226 0 1.93994)
)
;

boundaryField
{
    top
    {
        type            directionMixed;
        refValue        uniform (0 0 0);
        refGradient     uniform (0 0 0);
        valueFraction   uniform (0 0 0 0 0 1);
        value           nonuniform List<vector> 
13
(
(16.8112 0 0)
(23.9176 0 0)
(30.2925 0 0)
(35.891 0 0)
(40.7211 0 0)
(44.8164 0 0)
(48.215 0 0)
(50.9488 0 0)
(53.0376 0 0)
(54.4943 0 0)
(55.3617 0 0)
(55.7453 0 0)
(55.7226 0 0)
)
;
    }
    bottom
    {
        type            fixedValue;
        value           uniform (0 0 0);
    }
    frontAndBack
    {
        type            empty;
    }
    left_cyc
    {
        type            cyclic;
    }
    right_cyc
    {
        type            cyclic;
    }
    procBoundary1to0
    {
        type            processor;
        value           nonuniform List<vector> 
16
(
(-52.6903 0 4.97668)
(-79.617 0 22.4727)
(-75.3385 0 45.7093)
(-57.7095 0 65.5233)
(-35.3892 0 81.0114)
(-12.4312 0 90.9782)
(9.00958 0 94.9195)
(27.5079 0 92.6931)
(42.0285 0 84.5517)
(51.7227 0 71.3508)
(55.5493 0 54.7568)
(51.8012 0 36.2395)
(51.8012 0 36.2395)
(22.8228 0 26.6453)
(10.8246 0 9.10405)
(9.10879 0 4.07704)
)
;
    }
    procBoundary1to2
    {
        type            processor;
        value           nonuniform List<vector> 
16
(
(-59.7844 0 3.45711)
(-79.4476 0 3.95409)
(-71.3149 0 -0.0734418)
(-60.2698 0 -5.49554)
(-48.3651 0 -10.4142)
(-33.778 0 -13.9586)
(-15.8118 0 -15.7845)
(4.81683 0 -16.0845)
(27.4313 0 -9.3871)
(27.4313 0 -9.3871)
(47.1835 0 -8.00179)
(60.4201 0 -6.13176)
(63.1171 0 -4.00846)
(56.451 0 -1.01882)
(55.216 0 -0.538537)
(55.3142 0 1.61411)
)
;
    }
}


// ************************************************************************* //
