/*--------------------------------*- C++ -*----------------------------------*\
| =========                 |                                                 |
| \\      /  F ield         | OpenFOAM: The Open Source CFD Toolbox           |
|  \\    /   O peration     | Version:  2.3.0                                 |
|   \\  /    A nd           | Web:      www.OpenFOAM.org                      |
|    \\/     M anipulation  |                                                 |
\*---------------------------------------------------------------------------*/
FoamFile
{
    version     2.0;
    format      ascii;
    class       volVectorField;
    location    "8000";
    object      U;
}
// * * * * * * * * * * * * * * * * * * * * * * * * * * * * * * * * * * * * * //

dimensions      [0 1 -1 0 0 0 0];

internalField   nonuniform List<vector> 
191
(
(-60.6342 0 0.963384)
(-61.2292 0 -1.49968)
(-57.9098 0 -2.42151)
(-53.4655 0 -2.19031)
(-49.6612 0 -1.4211)
(-47.2212 0 -0.558247)
(-46.2169 0 0.168488)
(-46.4021 0 0.696434)
(-47.441 0 1.05691)
(-49.0509 0 1.33999)
(-51.0788 0 1.63195)
(-53.4794 0 2.01352)
(-56.2983 0 2.57523)
(-93.8518 0 7.90071)
(-98.1188 0 -1.48074)
(-96.6308 0 -5.79853)
(-92.7323 0 -6.45889)
(-88.4615 0 -5.12532)
(-84.8944 0 -3.07972)
(-82.4139 0 -1.08862)
(-81.0006 0 0.498509)
(-80.4374 0 1.60389)
(-80.4239 0 2.33185)
(-80.6368 0 2.82684)
(-80.7683 0 3.20931)
(-80.504 0 3.56661)
(-90.3184 0 18.8549)
(-96.6609 0 1.31532)
(-97.6976 0 -7.40592)
(-95.9611 0 -9.93468)
(-93.0845 0 -8.92895)
(-90.0302 0 -6.42014)
(-87.273 0 -3.67641)
(-84.9763 0 -1.34224)
(-83.1178 0 0.339296)
(-81.5413 0 1.34633)
(-79.98 0 1.75745)
(-78.0807 0 1.64772)
(-75.4097 0 1.05259)
(-71.1275 0 29.6904)
(-78.5232 0 5.96881)
(-81.7796 0 -6.49476)
(-82.4375 0 -11.077)
(-81.6027 0 -11.0367)
(-80 0 -8.84296)
(-78.0737 0 -6.06506)
(-76.0763 0 -3.55388)
(-74.118 0 -1.69847)
(-72.1938 0 -0.647559)
(-70.1772 0 -0.445313)
(-67.8141 0 -1.13133)
(-64.7279 0 -2.76437)
(-46.0021 0 39.748)
(-53.4076 0 11.8621)
(-58.137 0 -3.54096)
(-60.8192 0 -10.0879)
(-62.0286 0 -11.3011)
(-62.2084 0 -9.86879)
(-61.69 0 -7.51825)
(-60.7208 0 -5.22258)
(-59.4725 0 -3.47842)
(-58.0379 0 -2.54113)
(-56.4142 0 -2.57846)
(-54.4804 0 -3.76097)
(-51.9816 0 -6.27554)
(-19.328 0 47.8614)
(-25.6088 0 17.9964)
(-30.7524 0 0.78748)
(-34.652 0 -7.28478)
(-37.3996 0 -9.71906)
(-39.1548 0 -9.23395)
(-40.0874 0 -7.59205)
(-40.3659 0 -5.80345)
(-40.1489 0 -4.41215)
(-39.5703 0 -3.73806)
(-38.7155 0 -4.04091)
(-37.5876 0 -5.61058)
(-36.0755 0 -8.7673)
(6.44568 0 53.0747)
(2.18546 0 23.2549)
(-2.38678 0 5.44852)
(-6.59875 0 -3.49651)
(-10.1393 0 -6.84883)
(-12.9223 0 -7.22382)
(-14.9619 0 -6.34271)
(-16.3229 0 -5.19102)
(-17.1045 0 -4.30066)
(-17.4315 0 -3.99937)
(-17.4314 0 -4.58687)
(-17.1947 0 -6.43149)
(-16.7318 0 -9.96443)
(29.6348 0 54.7721)
(27.9933 0 26.8333)
(24.6244 0 9.58079)
(20.7417 0 0.46938)
(17.0178 0 -3.40294)
(13.7744 0 -4.42356)
(11.1271 0 -4.2027)
(9.09283 0 -3.66905)
(7.62639 0 -3.30891)
(6.6277 0 -3.41508)
(5.95616 0 -4.28144)
(5.47064 0 -6.31338)
(5.07224 0 -10.0139)
(48.757 0 52.6147)
(50.048 0 28.2641)
(48.247 0 12.7056)
(45.0536 0 4.12496)
(41.5131 0 0.128694)
(38.2007 0 -1.32903)
(35.3758 0 -1.66434)
(33.1209 0 -1.69852)
(31.4169 0 -1.84571)
(30.165 0 -2.33827)
(29.1975 0 -3.43494)
(28.3223 0 -5.54827)
(62.3095 0 46.7168)
(66.383 0 27.3516)
(66.2729 0 14.5719)
(63.9928 0 7.20251)
(60.9088 0 3.45124)
(57.8241 0 1.71945)
(55.1409 0 0.882715)
(53.0107 0 0.291157)
(51.4358 0 -0.358564)
(50.3036 0 -1.20622)
(49.3892 0 -2.44681)
(48.4208 0 -4.48104)
(68.477 0 37.9514)
(74.5968 0 24.4052)
(76.002 0 15.1688)
(74.7819 0 9.53845)
(72.4478 0 6.33144)
(69.9213 0 4.46343)
(67.6759 0 3.17006)
(65.8999 0 2.02839)
(64.6188 0 0.883255)
(63.726 0 -0.27066)
(62.9521 0 -1.52116)
(61.9542 0 -3.25718)
(64.7445 0 27.0055)
(71.6335 0 19.4033)
(74.1523 0 14.0026)
(74.1576 0 10.4272)
(73.0067 0 8.04836)
(71.5158 0 6.29007)
(70.0862 0 4.74824)
(68.8624 0 3.21449)
(67.8687 0 1.6724)
(67.0381 0 0.288522)
(66.1721 0 -0.83244)
(64.9893 0 -2.0543)
(38.0305 0 23.5948)
(48.6849 0 20.2967)
(55.1148 0 17.2823)
(58.6183 0 14.6709)
(60.3623 0 12.4126)
(61.1578 0 10.4048)
(61.4517 0 8.548)
(61.4233 0 6.76928)
(61.1021 0 5.03447)
(60.4946 0 3.37437)
(59.6355 0 1.94806)
(58.6713 0 0.879173)
(57.7066 0 -0.0285839)
(18.998 0 8.85443)
(26.4625 0 8.36319)
(32.8511 0 7.69242)
(38.2962 0 6.92234)
(42.9205 0 6.11665)
(46.8169 0 5.31147)
(50.0432 0 4.51689)
(52.6247 0 3.722)
(54.56 0 2.90328)
(55.8313 0 2.05819)
(56.4149 0 1.28007)
(56.421 0 0.652643)
(56.0104 0 0.0803034)
(16.4124 0 4.02651)
(23.538 0 3.94293)
(29.9364 0 3.82966)
(35.5612 0 3.69574)
(40.4197 0 3.54894)
(44.5448 0 3.39339)
(47.9744 0 3.22952)
(50.7403 0 3.0545)
(52.862 0 2.86377)
(54.3519 0 2.65626)
(55.2503 0 2.43901)
(55.6611 0 2.20682)
(55.6631 0 1.93106)
)
;

boundaryField
{
    top
    {
        type            directionMixed;
        refValue        uniform (0 0 0);
        refGradient     uniform (0 0 0);
        valueFraction   uniform (0 0 0 0 0 1);
        value           nonuniform List<vector> 
13
(
(16.4124 0 0)
(23.538 0 0)
(29.9364 0 0)
(35.5612 0 0)
(40.4197 0 0)
(44.5448 0 0)
(47.9744 0 0)
(50.7403 0 0)
(52.862 0 0)
(54.3519 0 0)
(55.2503 0 0)
(55.6611 0 0)
(55.6631 0 0)
)
;
    }
    bottom
    {
        type            fixedValue;
        value           uniform (0 0 0);
    }
    frontAndBack
    {
        type            empty;
    }
    left_cyc
    {
        type            cyclic;
    }
    right_cyc
    {
        type            cyclic;
    }
    procBoundary1to0
    {
        type            processor;
        value           nonuniform List<vector> 
16
(
(-52.6111 0 5.04175)
(-79.4591 0 22.7059)
(-75.1523 0 46.1405)
(-57.5239 0 66.1051)
(-35.2248 0 81.6901)
(-12.3043 0 91.6957)
(9.08337 0 95.6213)
(27.5137 0 93.3303)
(41.956 0 85.0866)
(51.5685 0 71.7605)
(55.3169 0 55.0346)
(51.5001 0 36.3927)
(51.5001 0 36.3927)
(22.3923 0 26.6926)
(10.4096 0 9.11045)
(8.6966 0 4.07438)
)
;
    }
    procBoundary1to2
    {
        type            processor;
        value           nonuniform List<vector> 
16
(
(-59.6726 0 3.42882)
(-79.4912 0 3.95126)
(-71.4553 0 -0.0207995)
(-60.4381 0 -5.38225)
(-48.5395 0 -10.2444)
(-33.9406 0 -13.7418)
(-15.9485 0 -15.5323)
(4.71426 0 -15.8103)
(27.3643 0 -9.2071)
(27.3643 0 -9.2071)
(47.1361 0 -7.82572)
(60.3944 0 -5.97854)
(63.1179 0 -3.89337)
(56.4456 0 -0.97215)
(55.1978 0 -0.508975)
(55.278 0 1.60684)
)
;
    }
}


// ************************************************************************* //
