/*--------------------------------*- C++ -*----------------------------------*\
| =========                 |                                                 |
| \\      /  F ield         | OpenFOAM: The Open Source CFD Toolbox           |
|  \\    /   O peration     | Version:  2.3.0                                 |
|   \\  /    A nd           | Web:      www.OpenFOAM.org                      |
|    \\/     M anipulation  |                                                 |
\*---------------------------------------------------------------------------*/
FoamFile
{
    version     2.0;
    format      ascii;
    class       volScalarField;
    location    "11000";
    object      p;
}
// * * * * * * * * * * * * * * * * * * * * * * * * * * * * * * * * * * * * * //

dimensions      [0 2 -2 0 0 0 0];

internalField   nonuniform List<scalar> 
191
(
-1367.53
-1431.72
-1481.9
-1519.08
-1547.45
-1569.99
-1588.61
-1604.58
-1618.61
-1631.17
-1642.52
-1652.84
-1312.27
-1343.78
-1369.91
-1391.08
-1408.85
-1424.13
-1437.48
-1449.42
-1460.3
-1470.34
-1479.72
-1488.59
-1257.28
-1273.21
-1290.77
-1300.11
-1306.55
-1313.27
-1319.97
-1326.64
-1333.22
-1339.74
-1346.21
-1352.74
-1143.08
-1171.87
-1194.73
-1203.34
-1206.97
-1210.36
-1213.61
-1216.92
-1220.38
-1224.06
-1228.02
-1232.3
-1024.48
-1038.07
-1072.4
-1089.3
-1095.38
-1099.4
-1102.6
-1105.03
-1107.06
-1108.94
-1110.88
-1113.01
-1115.39
-933.038
-943.73
-967.062
-978.063
-982.591
-986.281
-989.028
-990.925
-992.236
-993.211
-994.06
-994.919
-995.842
-847.819
-850.044
-858.455
-863.486
-866.152
-868.399
-870.05
-871.091
-871.648
-871.866
-871.875
-871.761
-871.559
-766.801
-754.287
-746.359
-745.691
-746.023
-746.215
-746.36
-746.268
-745.911
-745.304
-744.487
-743.501
-742.371
-686.269
-658.57
-633.497
-626.344
-623.82
-621.404
-619.564
-617.921
-616.312
-614.636
-612.857
-610.985
-609.03
-599.155
-563.403
-523.351
-507.497
-501.465
-495.941
-491.596
-487.887
-484.559
-481.44
-478.432
-475.521
-472.683
-504.487
-471.664
-415.822
-393.832
-383.119
-373.455
-365.652
-359.082
-353.382
-348.272
-343.578
-339.262
-335.248
-399.371
-363.219
-301.866
-276.127
-265.526
-256.115
-246.214
-236.672
-228.035
-220.26
-213.171
-206.753
-200.921
-300.419
-254.522
-185.953
-147.322
-144.118
-138.936
-133.394
-124.685
-114.462
-103.868
-93.4645
-84.1667
-75.9649
-192.033
-153.371
-96.9001
-53.3063
-29.339
-17.4986
-15.8356
-16.1257
-14.5572
-10.1385
-3.35324
4.93138
14.0377
-330.503
-252.232
-160.293
-76.279
-9.53216
34.5685
60.6717
75.8126
83.9088
86.7568
85.1231
81.2958
77.896
)
;

boundaryField
{
    top
    {
        type            calculated;
        value           nonuniform List<scalar> 
13
(
-9.81
-9.81
-9.81
-9.81
-9.81
-9.81
-9.81
-9.81
-9.81
-9.81
-9.81
-9.81
-9.81
)
;
    }
    bottom
    {
        type            calculated;
        value           nonuniform List<scalar> 
12
(
-1438.41
-1506.32
-1559.91
-1599.9
-1630.59
-1655
-1675.13
-1692.29
-1707.3
-1720.64
-1732.63
-1743.47
)
;
    }
    frontAndBack
    {
        type            empty;
    }
    left_cyc
    {
        type            cyclic;
    }
    right_cyc
    {
        type            cyclic;
    }
    procBoundary3to0throughright_cyc
    {
        type            processorCyclic;
        value           nonuniform List<scalar> 
15
(
-1662.31
-1497.14
-1359.48
-1236.94
-1118.02
-996.821
-871.265
-741.102
-606.981
-469.846
-331.36
-195.402
-68.1164
23.5193
74.092
)
;
    }
    procBoundary3to2
    {
        type            processor;
        value           nonuniform List<scalar> 
16
(
-1295.33
-1280.26
-1224.02
-1132.99
-1132.99
-1022.98
-932.405
-846.538
-764.743
-683.23
-596.828
-503.048
-407.41
-326.41
-217.104
-389.121
)
;
    }
}


// ************************************************************************* //
