/*--------------------------------*- C++ -*----------------------------------*\
| =========                 |                                                 |
| \\      /  F ield         | OpenFOAM: The Open Source CFD Toolbox           |
|  \\    /   O peration     | Version:  2.3.0                                 |
|   \\  /    A nd           | Web:      www.OpenFOAM.org                      |
|    \\/     M anipulation  |                                                 |
\*---------------------------------------------------------------------------*/
FoamFile
{
    version     2.0;
    format      ascii;
    class       volScalarField;
    location    "11000";
    object      p_rgh;
}
// * * * * * * * * * * * * * * * * * * * * * * * * * * * * * * * * * * * * * //

dimensions      [0 2 -2 0 0 0 0];

internalField   nonuniform List<scalar> 
191
(
-1438.41
-1506.32
-1559.91
-1599.9
-1630.59
-1655
-1675.13
-1692.29
-1707.3
-1720.64
-1732.63
-1743.47
-1445.76
-1489.01
-1529.56
-1564.2
-1592.8
-1616.7
-1637.17
-1655.19
-1671.37
-1686.04
-1699.41
-1711.58
-1440.77
-1475.92
-1511.51
-1536.61
-1556.97
-1576.15
-1594.12
-1611.03
-1626.87
-1641.64
-1655.31
-1667.69
-1394.2
-1454.04
-1503.44
-1532.62
-1551.77
-1567.28
-1580.59
-1592.85
-1604.77
-1616.52
-1628.01
-1639.33
-1307.73
-1372.1
-1454.35
-1511.01
-1546.17
-1570.09
-1586.6
-1598.24
-1607.25
-1615.19
-1623.02
-1631.22
-1639.99
-1285.33
-1369.14
-1460.49
-1526.81
-1571.02
-1600.99
-1620.08
-1631.79
-1639.22
-1644.7
-1649.78
-1655.36
-1661.85
-1269.44
-1369.53
-1467.61
-1544.28
-1598.08
-1634.1
-1656.33
-1669
-1676.03
-1680.44
-1684.26
-1688.59
-1693.81
-1254.75
-1365.61
-1469.01
-1555.72
-1618.49
-1660.54
-1686.77
-1701.76
-1710
-1715.09
-1719.27
-1723.6
-1728.24
-1232.28
-1352.36
-1459.58
-1554.22
-1624.48
-1672.47
-1704.11
-1723.76
-1735.79
-1743.69
-1749.65
-1754.67
-1758.98
-1186.46
-1317.59
-1428.65
-1528.9
-1606.51
-1661.58
-1700.69
-1727.37
-1745.35
-1757.87
-1767.17
-1774.53
-1780.5
-1107.07
-1250.6
-1358.6
-1465.95
-1549.31
-1610.88
-1658.05
-1693.16
-1719.02
-1738.5
-1753.84
-1766.51
-1777.38
-980.459
-1117.57
-1218.8
-1326.96
-1417.48
-1487.51
-1542.21
-1584.92
-1618.97
-1647.04
-1671.12
-1692.76
-1713.47
-808.569
-915.727
-990.04
-1072.01
-1165.61
-1238.57
-1297.82
-1344.87
-1384.29
-1418.92
-1451.12
-1484.54
-1517.77
-558.801
-630.648
-677.439
-722.615
-771.49
-819.475
-869.145
-915.994
-958.259
-998.545
-1038.56
-1077.53
-1115.27
-477.891
-441.347
-386.843
-334.715
-294.783
-273.822
-268.997
-275.092
-290.05
-311.319
-337.831
-367.274
-396.917
)
;

boundaryField
{
    top
    {
        type            fixedValue;
        value           uniform 0;
    }
    bottom
    {
        type            fixedFluxPressure;
        gradient        uniform 0;
        value           nonuniform List<scalar> 
12
(
-1438.41
-1506.32
-1559.91
-1599.9
-1630.59
-1655
-1675.13
-1692.29
-1707.3
-1720.64
-1732.63
-1743.47
)
;
    }
    frontAndBack
    {
        type            empty;
    }
    left_cyc
    {
        type            cyclic;
    }
    right_cyc
    {
        type            cyclic;
    }
    procBoundary3to0throughright_cyc
    {
        type            processorCyclic;
        value           nonuniform List<scalar> 
15
(
-1753.32
-1722.43
-1679.03
-1650.5
-1649.33
-1669.25
-1699.75
-1732.73
-1762.37
-1785.28
-1786.97
-1732.69
-1549.3
-1151.21
-426.996
)
;
    }
    procBoundary3to2
    {
        type            processor;
        value           nonuniform List<scalar> 
16
(
-1363.42
-1404.04
-1388.71
-1351.75
-1351.75
-1260.73
-1218.83
-1179.48
-1140.11
-1093.96
-1030.62
-941.91
-825.885
-689.133
-477.748
-494.268
)
;
    }
}


// ************************************************************************* //
