/*--------------------------------*- C++ -*----------------------------------*\
| =========                 |                                                 |
| \\      /  F ield         | OpenFOAM: The Open Source CFD Toolbox           |
|  \\    /   O peration     | Version:  2.3.0                                 |
|   \\  /    A nd           | Web:      www.OpenFOAM.org                      |
|    \\/     M anipulation  |                                                 |
\*---------------------------------------------------------------------------*/
FoamFile
{
    version     2.0;
    format      ascii;
    class       surfaceScalarField;
    location    "11000";
    object      phi;
}
// * * * * * * * * * * * * * * * * * * * * * * * * * * * * * * * * * * * * * //

dimensions      [0 3 -1 0 0 0 0];

internalField   nonuniform List<scalar> 
354
(
0.509451
-0.0760468
0.527162
-0.0177115
0.502594
0.0245678
0.465517
0.0370777
0.431084
0.0344329
0.40258
0.0285036
0.379318
0.0232626
0.359926
0.0193921
0.343434
0.0164918
0.329451
0.0139826
0.318172
0.0112792
0.00770223
0.291457
-0.16146
0.373051
-0.0993054
0.43688
-0.0392606
0.481422
-0.00746457
0.510195
0.0056595
0.527
0.0116993
0.535299
0.0149631
0.538021
0.0166707
0.537618
0.0168943
0.536246
0.015355
0.535954
0.0115705
0.00480073
0.183233
-0.201195
0.235963
-0.152036
0.304019
-0.107317
0.371849
-0.0752948
0.427689
-0.0501802
0.469011
-0.0296224
0.49767
-0.0136963
0.517059
-0.00271808
0.530626
0.00332719
0.541363
0.00461773
0.551729
0.00120464
-0.00707486
0.131447
-0.23011
0.172978
-0.193567
0.232698
-0.167036
0.296926
-0.139522
0.352362
-0.105617
0.39493
-0.0721898
0.425721
-0.044488
0.447814
-0.0248111
0.464442
-0.0133003
0.478249
-0.00918912
0.491095
-0.0116414
-0.0199687
0.0699839
-0.281882
0.0931424
-0.253269
0.130151
-0.230576
0.182939
-0.219825
0.236628
-0.193211
0.282025
-0.151014
0.31648
-0.106645
0.34131
-0.0693189
0.359247
-0.042748
0.372893
-0.0269458
0.384108
-0.0204042
0.393881
-0.0214146
-0.0284885
0.0413443
-0.294782
0.0590105
-0.270935
0.089345
-0.26091
0.129763
-0.260243
0.167786
-0.231233
0.198466
-0.181695
0.220868
-0.129047
0.236515
-0.0849653
0.247549
-0.0537826
0.255674
-0.0350702
0.261798
-0.0265287
0.266064
-0.0256808
-0.0304527
0.0145571
-0.299218
0.0229711
-0.279349
0.0392904
-0.277229
0.0602697
-0.281222
0.0789488
-0.249912
0.0932295
-0.195975
0.102909
-0.138726
0.109015
-0.0910713
0.112736
-0.0575039
0.11479
-0.0371242
0.115246
-0.0269845
0.113624
-0.0240585
-0.0259686
-0.0121646
-0.294215
-0.0186966
-0.272817
-0.0234174
-0.272509
-0.0265568
-0.278083
-0.0290971
-0.247372
-0.0311019
-0.19397
-0.0330045
-0.136824
-0.0350491
-0.0890266
-0.0373737
-0.0551793
-0.0402632
-0.0342347
-0.0442983
-0.0229494
-0.050339
-0.0180177
-0.0170017
-0.0395185
-0.279634
-0.0626273
-0.249708
-0.0912671
-0.243869
-0.120397
-0.248952
-0.144489
-0.22328
-0.161993
-0.176467
-0.174075
-0.124742
-0.18255
-0.0805518
-0.189008
-0.0487214
-0.194725
-0.0285183
-0.200856
-0.0168178
-0.208625
-0.0102486
-0.00645862
-0.0682265
-0.256465
-0.100301
-0.217634
-0.148084
-0.196086
-0.201664
-0.195372
-0.245917
-0.179027
-0.27777
-0.144613
-0.299204
-0.103308
-0.313163
-0.0665924
-0.322413
-0.0394716
-0.329164
-0.0217672
-0.335209
-0.0107729
-0.342305
-0.00315285
0.00324642
-0.0995428
-0.225926
-0.13152
-0.185657
-0.182271
-0.145334
-0.249881
-0.127762
-0.308524
-0.120385
-0.351621
-0.101516
-0.381179
-0.0737495
-0.400194
-0.0475777
-0.411969
-0.0276959
-0.419423
-0.0143131
-0.424882
-0.00531458
-0.430585
0.0025501
0.0111159
-0.136036
-0.186306
-0.171008
-0.150684
-0.209176
-0.107167
-0.260186
-0.0767515
-0.31413
-0.0664414
-0.360156
-0.0554901
-0.394512
-0.0393938
-0.417357
-0.0247328
-0.431603
-0.0134491
-0.440597
-0.00531999
-0.446864
0.000952793
-0.45242
0.00810589
0.0174677
-0.174147
-0.135906
-0.216207
-0.108624
-0.247503
-0.0758707
-0.273815
-0.0504391
-0.305463
-0.0347938
-0.336695
-0.0242579
-0.359677
-0.0164121
-0.374548
-0.00986187
-0.384129
-0.00386806
-0.391182
0.001733
-0.397529
0.00730035
-0.403331
0.0139074
0.0219626
-0.201978
-0.0784479
-0.249015
-0.0615878
-0.282964
-0.0419214
-0.307963
-0.0254395
-0.328491
-0.0142658
-0.345093
-0.00765596
-0.357891
-0.0036144
-0.367229
-0.000524129
-0.373452
0.00235465
-0.376889
0.00517032
-0.37753
0.00794163
-0.374625
0.011002
0.0147063
-0.223289
-0.272732
-0.307298
-0.329766
-0.344555
-0.355062
-0.362931
-0.368553
-0.371793
-0.372471
-0.370451
-0.365336
)
;

boundaryField
{
    top
    {
        type            calculated;
        value           nonuniform List<scalar> 
13
(
-0.0162303
-0.0121451
-0.00735523
-0.00297199
0.000523192
0.00285177
0.00425428
0.00509822
0.0055941
0.00584835
0.00592164
0.0058868
0.00582329
)
;
    }
    bottom
    {
        type            calculated;
        value           uniform 0;
    }
    frontAndBack
    {
        type            empty;
        value           nonuniform 0();
    }
    left_cyc
    {
        type            cyclic;
        value           nonuniform 0();
    }
    right_cyc
    {
        type            cyclic;
        value           nonuniform 0();
    }
    procBoundary3to0throughright_cyc
    {
        type            processorCyclic;
        value           nonuniform List<scalar> 
15
(
0.31047
0.538856
0.563605
0.503989
0.402401
0.268029
0.10914
-0.059306
-0.219168
-0.35201
-0.438454
-0.458772
-0.407826
-0.367369
-0.356453
)
;
    }
    procBoundary3to2
    {
        type            processor;
        value           nonuniform List<scalar> 
16
(
-0.433404
-0.206044
-0.143498
-0.102531
0.261086
-0.0491879
-0.0284442
-0.0101213
0.00716244
0.0249376
0.045057
0.0690038
0.0964155
0.123747
0.14452
0.161072
)
;
    }
}


// ************************************************************************* //
