/*--------------------------------*- C++ -*----------------------------------*\
| =========                 |                                                 |
| \\      /  F ield         | OpenFOAM: The Open Source CFD Toolbox           |
|  \\    /   O peration     | Version:  2.3.0                                 |
|   \\  /    A nd           | Web:      www.OpenFOAM.org                      |
|    \\/     M anipulation  |                                                 |
\*---------------------------------------------------------------------------*/
FoamFile
{
    version     2.0;
    format      ascii;
    class       volScalarField;
    location    "13000";
    object      p;
}
// * * * * * * * * * * * * * * * * * * * * * * * * * * * * * * * * * * * * * //

dimensions      [0 2 -2 0 0 0 0];

internalField   nonuniform List<scalar> 
191
(
-1582.32
-1562.45
-1538.04
-1506.87
-1465.37
-1409.54
-1342.73
-1265.15
-1173.1
-1110.22
-1125.65
-1206.73
-1295.57
-1432.93
-1418.96
-1402.8
-1383.97
-1361.15
-1332.64
-1299.34
-1274.47
-1281.42
-1282.47
-1282.85
-1277.08
-1280.28
-1317.69
-1310.99
-1304.32
-1297.83
-1284.7
-1268.33
-1248.25
-1212.84
-1204.32
-1203.23
-1203.65
-1205.21
-1224.15
-1212.61
-1209.34
-1205.87
-1201.93
-1187.34
-1161.75
-1139.46
-1130.03
-1123.05
-1117.64
-1119.04
-1125.6
-1133.03
-1104.38
-1101.71
-1098.14
-1093.91
-1084.09
-1063.28
-1030.56
-1022.75
-1022.96
-1021.61
-1022.05
-1022.98
-990.47
-988.291
-985.157
-981.267
-974.994
-962.195
-936.153
-931.808
-933.14
-932.692
-932.91
-932.395
-870.895
-869.645
-867.752
-865.418
-862.089
-857.472
-847.617
-846.948
-846.525
-845.848
-846.095
-846.534
-746.388
-746.374
-746.151
-745.984
-745.325
-748.61
-761.295
-765.921
-762.958
-761.212
-761.62
-764.75
-616.883
-618.475
-620.128
-622.056
-624.57
-626.879
-638.668
-675.096
-684.627
-679.367
-676.734
-677.319
-683.259
-485.624
-489.048
-492.906
-497.557
-503.363
-510.102
-533.155
-590.032
-600.19
-592.917
-590.708
-591.044
-596.87
-355.13
-361.094
-368.019
-376.473
-386.687
-399.479
-426.503
-492.086
-506.476
-502.119
-502.575
-502.244
-503.073
-230.632
-239.591
-249.29
-259.262
-267.499
-283.445
-319.038
-382.972
-402.468
-410.185
-415.353
-414.152
-407.379
-117.675
-127.658
-135.303
-140.96
-143.873
-157.555
-209.995
-275.614
-311.242
-333.287
-343.737
-341.357
-326.33
-15.1547
-15.9226
-15.4401
-20.0695
-35.1915
-65.9347
-118.201
-169.586
-202.254
-223.557
-233.559
-231.296
-217.032
81.9468
71.7964
53.6359
22.0098
-29.3266
-103.904
-193.212
-282.215
-353.828
-404.422
-428.73
-423.253
-388.952
)
;

boundaryField
{
    top
    {
        type            calculated;
        value           nonuniform List<scalar> 
13
(
-9.81
-9.81
-9.81
-9.81
-9.81
-9.81
-9.81
-9.81
-9.81
-9.81
-9.81
-9.81
-9.81
)
;
    }
    bottom
    {
        type            calculated;
        value           nonuniform List<scalar> 
13
(
-1668.33
-1646.84
-1620.39
-1586.73
-1542.23
-1482.72
-1412.52
-1332.42
-1238.61
-1174.96
-1190.59
-1272.77
-1363.66
)
;
    }
    frontAndBack
    {
        type            empty;
    }
    left_cyc
    {
        type            cyclic;
    }
    right_cyc
    {
        type            cyclic;
    }
    procBoundary2to1
    {
        type            processor;
        value           nonuniform List<scalar> 
16
(
-1599.13
-1445.33
-1324.36
-1215.88
-1106.53
-991.966
-871.61
-746.131
-746.131
-615.245
-482.457
-349.849
-222.595
-107.107
-11.6568
86.3568
)
;
    }
    procBoundary2to3
    {
        type            processor;
        value           nonuniform List<scalar> 
16
(
-1367.71
-1312.33
-1257.34
-1143.15
-1024.51
-1024.51
-933.051
-847.813
-766.788
-686.278
-599.14
-504.449
-399.319
-300.292
-191.925
-330.264
)
;
    }
}


// ************************************************************************* //
