/*--------------------------------*- C++ -*----------------------------------*\
| =========                 |                                                 |
| \\      /  F ield         | OpenFOAM: The Open Source CFD Toolbox           |
|  \\    /   O peration     | Version:  2.3.0                                 |
|   \\  /    A nd           | Web:      www.OpenFOAM.org                      |
|    \\/     M anipulation  |                                                 |
\*---------------------------------------------------------------------------*/
FoamFile
{
    version     2.0;
    format      ascii;
    class       volScalarField;
    location    "20000";
    object      p;
}
// * * * * * * * * * * * * * * * * * * * * * * * * * * * * * * * * * * * * * //

dimensions      [0 2 -2 0 0 0 0];

internalField   nonuniform List<scalar> 
191
(
-1368.44
-1432.49
-1482.46
-1519.49
-1547.77
-1570.23
-1588.82
-1604.75
-1618.76
-1631.3
-1642.63
-1652.95
-1312.7
-1344.15
-1370.2
-1391.31
-1409.05
-1424.3
-1437.62
-1449.54
-1460.41
-1470.44
-1479.81
-1488.68
-1257.58
-1273.4
-1290.94
-1300.16
-1306.62
-1313.33
-1320.04
-1326.7
-1333.28
-1339.79
-1346.27
-1352.81
-1143.34
-1172.2
-1194.94
-1203.36
-1206.99
-1210.38
-1213.63
-1216.94
-1220.41
-1224.09
-1228.05
-1232.34
-1024.58
-1038.52
-1072.65
-1089.44
-1095.42
-1099.44
-1102.61
-1105.04
-1107.07
-1108.94
-1110.89
-1113.02
-1115.41
-933.085
-944.165
-967.198
-978.132
-982.629
-986.313
-989.048
-990.935
-992.241
-993.213
-994.061
-994.921
-995.845
-847.797
-850.188
-858.495
-863.525
-866.18
-868.423
-870.066
-871.099
-871.651
-871.865
-871.872
-871.757
-871.554
-766.76
-754.035
-746.292
-745.709
-746.03
-746.224
-746.367
-746.271
-745.91
-745.3
-744.48
-743.492
-742.359
-686.319
-657.979
-633.305
-626.336
-623.798
-621.391
-619.554
-617.912
-616.301
-614.624
-612.843
-610.97
-609.013
-599.118
-562.319
-522.996
-507.447
-501.408
-495.897
-491.562
-487.858
-484.533
-481.415
-478.408
-475.498
-472.659
-504.362
-470.598
-415.489
-393.673
-383.004
-373.36
-365.58
-359.023
-353.333
-348.228
-343.539
-339.226
-335.214
-399.189
-362.314
-301.331
-275.887
-265.462
-256.008
-246.111
-236.578
-227.954
-220.189
-213.108
-206.698
-200.871
-299.919
-253.51
-185.041
-147.038
-144.127
-138.887
-133.331
-124.588
-114.358
-103.764
-93.3699
-84.0871
-75.893
-191.595
-152.669
-96.119
-52.8879
-29.1775
-17.4638
-15.8886
-16.1626
-14.5589
-10.104
-3.29414
5.0048
14.1173
-329.513
-250.99
-159.026
-75.255
-8.86288
34.9523
60.8507
75.8784
83.8984
86.6877
85.0107
81.1793
77.7824
)
;

boundaryField
{
    top
    {
        type            calculated;
        value           nonuniform List<scalar> 
13
(
-9.81
-9.81
-9.81
-9.81
-9.81
-9.81
-9.81
-9.81
-9.81
-9.81
-9.81
-9.81
-9.81
)
;
    }
    bottom
    {
        type            calculated;
        value           nonuniform List<scalar> 
12
(
-1439.37
-1507.15
-1560.52
-1600.35
-1630.93
-1655.27
-1675.35
-1692.48
-1707.46
-1720.78
-1732.75
-1743.58
)
;
    }
    frontAndBack
    {
        type            empty;
    }
    left_cyc
    {
        type            cyclic;
    }
    right_cyc
    {
        type            cyclic;
    }
    procBoundary3to0throughright_cyc
    {
        type            processorCyclic;
        value           nonuniform List<scalar> 
15
(
-1662.4
-1497.23
-1359.54
-1236.99
-1118.04
-996.826
-871.259
-741.088
-606.962
-469.821
-331.326
-195.353
-68.0452
23.6019
73.9697
)
;
    }
    procBoundary3to2
    {
        type            processor;
        value           nonuniform List<scalar> 
16
(
-1296.43
-1280.52
-1224.58
-1133.15
-1133.15
-1022.96
-932.353
-846.52
-764.779
-683.353
-597.006
-503.16
-407.3
-326.096
-216.815
-388.43
)
;
    }
}


// ************************************************************************* //
