/*--------------------------------*- C++ -*----------------------------------*\
| =========                 |                                                 |
| \\      /  F ield         | OpenFOAM: The Open Source CFD Toolbox           |
|  \\    /   O peration     | Version:  2.3.0                                 |
|   \\  /    A nd           | Web:      www.OpenFOAM.org                      |
|    \\/     M anipulation  |                                                 |
\*---------------------------------------------------------------------------*/
FoamFile
{
    version     2.0;
    format      ascii;
    class       volScalarField;
    location    "20000";
    object      p_rgh;
}
// * * * * * * * * * * * * * * * * * * * * * * * * * * * * * * * * * * * * * //

dimensions      [0 2 -2 0 0 0 0];

internalField   nonuniform List<scalar> 
191
(
-1439.37
-1507.15
-1560.52
-1600.35
-1630.93
-1655.27
-1675.35
-1692.48
-1707.46
-1720.78
-1732.75
-1743.58
-1446.34
-1489.56
-1530.05
-1564.6
-1593.12
-1616.97
-1637.39
-1655.39
-1671.55
-1686.2
-1699.56
-1711.7
-1441.34
-1476.38
-1511.92
-1536.86
-1557.2
-1576.37
-1594.31
-1611.21
-1627.05
-1641.8
-1655.45
-1667.81
-1394.91
-1454.77
-1503.96
-1532.87
-1551.96
-1567.43
-1580.72
-1592.96
-1604.88
-1616.63
-1628.12
-1639.44
-1308.54
-1373.27
-1455.22
-1511.6
-1546.52
-1570.31
-1586.73
-1598.32
-1607.31
-1615.24
-1623.07
-1631.28
-1640.06
-1286.42
-1370.61
-1461.5
-1527.5
-1571.46
-1601.26
-1620.22
-1631.85
-1639.25
-1644.71
-1649.79
-1655.39
-1661.89
-1270.81
-1371.05
-1468.8
-1545.14
-1598.65
-1634.43
-1656.5
-1669.07
-1676.04
-1680.44
-1684.26
-1688.6
-1693.84
-1256.47
-1367.09
-1470.37
-1556.76
-1619.18
-1660.96
-1686.99
-1701.86
-1710.04
-1715.1
-1719.29
-1723.62
-1728.26
-1234.44
-1353.86
-1461.08
-1555.41
-1625.27
-1672.98
-1704.41
-1723.93
-1735.87
-1743.74
-1749.69
-1754.7
-1759
-1188.83
-1318.9
-1430.23
-1530.22
-1607.41
-1662.19
-1701.1
-1727.63
-1745.51
-1757.97
-1767.25
-1774.59
-1780.54
-1109.48
-1252.04
-1360.35
-1467.3
-1550.27
-1611.58
-1658.56
-1693.51
-1719.28
-1738.68
-1753.98
-1766.63
-1777.48
-982.761
-1119.09
-1220.36
-1328.31
-1418.58
-1488.3
-1542.81
-1585.37
-1619.32
-1647.32
-1671.36
-1692.99
-1713.67
-810.265
-916.838
-990.967
-1073.17
-1166.73
-1239.39
-1298.47
-1345.38
-1384.72
-1419.29
-1451.5
-1484.91
-1518.12
-559.942
-631.462
-677.979
-723.256
-772.153
-820.105
-869.771
-916.556
-958.76
-999.036
-1039.02
-1077.97
-1115.69
-477.507
-440.656
-386.04
-334.065
-294.415
-273.695
-269.056
-275.266
-290.325
-311.659
-338.219
-367.669
-397.308
)
;

boundaryField
{
    top
    {
        type            fixedValue;
        value           uniform 0;
    }
    bottom
    {
        type            fixedFluxPressure;
        gradient        uniform 0;
        value           nonuniform List<scalar> 
12
(
-1439.37
-1507.15
-1560.52
-1600.35
-1630.93
-1655.27
-1675.35
-1692.48
-1707.46
-1720.78
-1732.75
-1743.58
)
;
    }
    frontAndBack
    {
        type            empty;
    }
    left_cyc
    {
        type            cyclic;
    }
    right_cyc
    {
        type            cyclic;
    }
    procBoundary3to0throughright_cyc
    {
        type            processorCyclic;
        value           nonuniform List<scalar> 
15
(
-1753.41
-1722.54
-1679.14
-1650.61
-1649.41
-1669.31
-1699.79
-1732.75
-1762.38
-1785.31
-1787.05
-1732.87
-1549.62
-1151.59
-427.388
)
;
    }
    procBoundary3to2
    {
        type            processor;
        value           nonuniform List<scalar> 
16
(
-1364.56
-1404.44
-1389.52
-1352.36
-1352.36
-1261.29
-1219.61
-1180.58
-1141.58
-1095.82
-1032.79
-944.173
-827.933
-690.76
-478.881
-494.155
)
;
    }
}


// ************************************************************************* //
