/*--------------------------------*- C++ -*----------------------------------*\
| =========                 |                                                 |
| \\      /  F ield         | OpenFOAM: The Open Source CFD Toolbox           |
|  \\    /   O peration     | Version:  2.3.0                                 |
|   \\  /    A nd           | Web:      www.OpenFOAM.org                      |
|    \\/     M anipulation  |                                                 |
\*---------------------------------------------------------------------------*/
FoamFile
{
    version     2.0;
    format      ascii;
    class       surfaceScalarField;
    location    "20000";
    object      phi;
}
// * * * * * * * * * * * * * * * * * * * * * * * * * * * * * * * * * * * * * //

dimensions      [0 3 -1 0 0 0 0];

internalField   nonuniform List<scalar> 
354
(
0.510123
-0.0753782
0.527032
-0.016909
0.502094
0.0249377
0.464991
0.0371032
0.430636
0.0343545
0.402218
0.0284182
0.379022
0.0231959
0.359679
0.0193431
0.343226
0.016453
0.329279
0.0139466
0.318041
0.0112386
0.0076479
0.292694
-0.160852
0.374088
-0.0983027
0.43762
-0.0385943
0.481914
-0.00719122
0.510495
0.00577332
0.52716
0.0117538
0.535365
0.0149909
0.538029
0.0166793
0.537599
0.0168822
0.536227
0.0153186
0.535962
0.0115035
0.00469399
0.183849
-0.200585
0.236833
-0.151287
0.305017
-0.106778
0.372728
-0.074902
0.428363
-0.0498615
0.469486
-0.0293694
0.49799
-0.0135129
0.517274
-0.00260468
0.530781
0.00337485
0.541496
0.00460412
0.551868
0.0011314
-0.00720815
0.131908
-0.229524
0.173731
-0.193109
0.23364
-0.166688
0.297801
-0.139063
0.35306
-0.10512
0.39544
-0.0717495
0.426082
-0.0441548
0.448073
-0.0245965
0.464642
-0.013194
0.478422
-0.0091758
0.491262
-0.011708
-0.0201039
0.0703186
-0.28149
0.093566
-0.252771
0.130847
-0.23039
0.18376
-0.219601
0.237371
-0.192674
0.28261
-0.150358
0.316905
-0.106045
0.341612
-0.0688621
0.359467
-0.0424518
0.373065
-0.0267914
0.384253
-0.0203638
0.394008
-0.0214632
-0.028605
0.0415696
-0.294419
0.0594193
-0.270621
0.0900114
-0.260982
0.130436
-0.260025
0.168348
-0.230587
0.198885
-0.180895
0.221161
-0.12832
0.236717
-0.0844186
0.247695
-0.0534295
0.255784
-0.0348804
0.261882
-0.0264619
0.266121
-0.0257023
-0.0305349
0.0146389
-0.298867
0.0231989
-0.279181
0.0397092
-0.277493
0.0606623
-0.280978
0.0792566
-0.249181
0.0934435
-0.195082
0.103048
-0.137924
0.109103
-0.0904744
0.112793
-0.0571196
0.114825
-0.0369115
0.115256
-0.0268935
0.113602
-0.0240479
-0.0260088
-0.012236
-0.293848
-0.0187445
-0.272672
-0.0234157
-0.272822
-0.026557
-0.277837
-0.0291021
-0.246636
-0.0311117
-0.193073
-0.0330197
-0.136016
-0.0350685
-0.0884256
-0.0373981
-0.05479
-0.0402976
-0.034012
-0.0443524
-0.0228387
-0.0504249
-0.0179755
-0.0169994
-0.0397326
-0.279224
-0.0630167
-0.249388
-0.0917682
-0.24407
-0.12084
-0.248766
-0.144824
-0.222651
-0.162223
-0.175674
-0.174229
-0.12401
-0.182657
-0.0799981
-0.18909
-0.0483564
-0.194801
-0.0283012
-0.200944
-0.0166956
-0.208742
-0.0101782
-0.00641565
-0.0685986
-0.255985
-0.101008
-0.216978
-0.149019
-0.196059
-0.202482
-0.195303
-0.246531
-0.178602
-0.278186
-0.144019
-0.299472
-0.102725
-0.313333
-0.0661371
-0.322526
-0.039163
-0.329252
-0.0215753
-0.335297
-0.0106502
-0.342417
-0.00305887
0.00332896
-0.100019
-0.225419
-0.132095
-0.184903
-0.183153
-0.145001
-0.25084
-0.127616
-0.309278
-0.120164
-0.352148
-0.101148
-0.381523
-0.07335
-0.400404
-0.0472558
-0.412097
-0.0274705
-0.419507
-0.0141653
-0.424953
-0.00520419
-0.430672
0.00266045
0.0112324
-0.136601
-0.185861
-0.171466
-0.150038
-0.209867
-0.1066
-0.261021
-0.0764622
-0.314871
-0.0663142
-0.360728
-0.0552918
-0.394901
-0.0391769
-0.417597
-0.0245598
-0.431747
-0.0133205
-0.440686
-0.00522591
-0.44693
0.0010399
-0.452486
0.00821639
0.0175971
-0.174848
-0.135557
-0.216735
-0.108151
-0.247919
-0.0754156
-0.274234
-0.0501475
-0.305923
-0.0346251
-0.337075
-0.0241396
-0.359931
-0.0163217
-0.374708
-0.00978241
-0.384234
-0.00379427
-0.391263
0.00180295
-0.397599
0.00737561
-0.403383
0.0140008
0.0220671
-0.202756
-0.0782297
-0.249603
-0.061304
-0.283375
-0.0416435
-0.308282
-0.0252409
-0.328754
-0.0141533
-0.3453
-0.00759279
-0.358048
-0.00357429
-0.36734
-0.000489993
-0.373523
0.00238805
-0.376923
0.00520331
-0.377523
0.00797571
-0.374565
0.0110428
0.014753
-0.224114
-0.273338
-0.307692
-0.330014
-0.344726
-0.355191
-0.363029
-0.368622
-0.371828
-0.372471
-0.370413
-0.365252
)
;

boundaryField
{
    top
    {
        type            calculated;
        value           nonuniform List<scalar> 
13
(
-0.0161786
-0.0120804
-0.00728929
-0.00291852
0.000558361
0.00287221
0.00426417
0.00510235
0.00559451
0.00584616
0.00591761
0.005882
0.00581805
)
;
    }
    bottom
    {
        type            calculated;
        value           uniform 0;
    }
    frontAndBack
    {
        type            empty;
        value           nonuniform 0();
    }
    left_cyc
    {
        type            cyclic;
        value           nonuniform 0();
    }
    right_cyc
    {
        type            cyclic;
        value           nonuniform 0();
    }
    procBoundary3to0throughright_cyc
    {
        type            processorCyclic;
        value           nonuniform List<scalar> 
15
(
0.310393
0.538916
0.56377
0.504157
0.402509
0.268051
0.109076
-0.0594343
-0.219325
-0.352161
-0.438575
-0.458851
-0.407853
-0.367251
-0.356317
)
;
    }
    procBoundary3to2
    {
        type            processor;
        value           nonuniform List<scalar> 
16
(
-0.434744
-0.20722
-0.144116
-0.102969
0.26069
-0.0495191
-0.0286402
-0.0101908
0.00721615
0.0251095
0.0453589
0.0694536
0.0970425
0.124544
0.145429
0.162063
)
;
    }
}


// ************************************************************************* //
