/*--------------------------------*- C++ -*----------------------------------*\
| =========                 |                                                 |
| \\      /  F ield         | OpenFOAM: The Open Source CFD Toolbox           |
|  \\    /   O peration     | Version:  2.3.0                                 |
|   \\  /    A nd           | Web:      www.OpenFOAM.org                      |
|    \\/     M anipulation  |                                                 |
\*---------------------------------------------------------------------------*/
FoamFile
{
    version     2.0;
    format      ascii;
    class       volVectorField;
    location    "20000";
    object      U;
}
// * * * * * * * * * * * * * * * * * * * * * * * * * * * * * * * * * * * * * //

dimensions      [0 1 -1 0 0 0 0];

internalField   nonuniform List<vector> 
191
(
(72.6415 0 -6.08826)
(79.8043 0 2.34663)
(78.2319 0 6.75787)
(72.6968 0 7.02005)
(67.0566 0 5.63454)
(62.3186 0 4.1848)
(58.4728 0 3.09219)
(55.3113 0 2.35664)
(52.6403 0 1.87027)
(50.3575 0 1.53013)
(48.4468 0 1.25304)
(46.9836 0 0.958433)
(37.1806 0 -20.7137)
(50.5053 0 -10.522)
(61.658 0 -1.02754)
(69.644 0 3.26623)
(74.9494 0 4.26903)
(78.2183 0 4.16138)
(79.9583 0 3.80365)
(80.6714 0 3.4461)
(80.7524 0 3.0986)
(80.5398 0 2.69804)
(80.341 0 2.15146)
(80.4664 0 1.32903)
(24.651 0 -27.392)
(30.5885 0 -18.8931)
(40.2983 0 -10.9805)
(51.2779 0 -6.0699)
(60.628 0 -3.08403)
(67.8707 0 -1.04918)
(72.9735 0 0.388597)
(76.4215 0 1.32415)
(78.76 0 1.77432)
(80.4766 0 1.72969)
(81.9786 0 1.1466)
(83.5921 0 -0.0571902)
(17.5691 0 -32.4714)
(21.89 0 -26.1399)
(30.0338 0 -20.7048)
(40.1733 0 -16.1633)
(49.2867 0 -11.727)
(56.6338 0 -7.67424)
(62.0059 0 -4.38934)
(65.8235 0 -2.07222)
(68.6023 0 -0.743084)
(70.7941 0 -0.343212)
(72.7368 0 -0.813938)
(74.6442 0 -2.11849)
(9.03598 0 -40.9864)
(12.1056 0 -36.3673)
(15.7027 0 -31.8346)
(23.4769 0 -29.1866)
(31.8396 0 -25.278)
(39.4041 0 -19.5732)
(45.3791 0 -13.6828)
(49.7065 0 -8.74534)
(52.7898 0 -5.23066)
(55.0614 0 -3.15796)
(56.8654 0 -2.36028)
(58.4139 0 -2.6485)
(59.7887 0 -3.85643)
(5.22528 0 -43.4901)
(7.2763 0 -39.5006)
(10.3046 0 -37.2504)
(16.6749 0 -36.6217)
(22.6281 0 -32.4671)
(27.8635 0 -25.4834)
(31.8034 0 -18.0847)
(34.558 0 -11.8784)
(36.4711 0 -7.48078)
(37.8499 0 -4.86134)
(38.8935 0 -3.73054)
(39.6745 0 -3.76761)
(40.1613 0 -4.69567)
(1.81765 0 -44.8423)
(2.60948 0 -41.7027)
(4.24424 0 -41.0659)
(7.64141 0 -41.4214)
(10.6301 0 -36.7699)
(13.1322 0 -28.8331)
(14.8975 0 -20.4435)
(16.0236 0 -13.4665)
(16.7166 0 -8.55887)
(17.1302 0 -5.60813)
(17.323 0 -4.20938)
(17.2561 0 -3.94089)
(16.8241 0 -4.4599)
(-1.43109 0 -44.8314)
(-2.15698 0 -42.0437)
(-3.3313 0 -42.1553)
(-3.8261 0 -42.879)
(-4.18867 0 -38.0075)
(-4.53799 0 -29.7178)
(-4.80909 0 -20.9587)
(-5.09953 0 -13.6952)
(-5.42031 0 -8.58953)
(-5.79632 0 -5.47152)
(-6.28994 0 -3.86023)
(-7.01412 0 -3.27292)
(-8.11293 0 -3.34329)
(-4.75614 0 -43.3491)
(-7.04119 0 -39.7702)
(-11.4511 0 -39.6608)
(-16.3156 0 -40.4904)
(-20.1328 0 -36.0203)
(-23.2833 0 -28.2415)
(-25.4081 0 -19.8776)
(-26.8726 0 -12.8549)
(-27.9323 0 -7.86146)
(-28.7978 0 -4.74052)
(-29.6418 0 -2.99812)
(-30.6408 0 -2.12771)
(-31.9826 0 -1.76719)
(-8.444 0 -40.4251)
(-12.0365 0 -35.04)
(-17.7557 0 -33.6325)
(-27.0345 0 -34.082)
(-34.0908 0 -30.7279)
(-39.8199 0 -24.439)
(-43.6682 0 -17.3257)
(-46.19 0 -11.1559)
(-47.8228 0 -6.66004)
(-48.9424 0 -3.76535)
(-49.8342 0 -2.0269)
(-50.7569 0 -0.941955)
(-51.9742 0 -0.171418)
(-12.8 0 -36.3823)
(-17.1958 0 -30.1498)
(-21.9407 0 -25.3425)
(-33.0361 0 -24.9837)
(-42.5409 0 -23.2391)
(-50.1824 0 -18.9247)
(-55.4901 0 -13.5255)
(-58.9854 0 -8.67808)
(-61.1536 0 -5.07278)
(-62.4872 0 -2.69108)
(-63.3667 0 -1.15521)
(-64.1247 0 0.032927)
(-65.0919 0 1.17869)
(-17.7757 0 -31.2057)
(-23.2038 0 -25.2609)
(-27.9504 0 -18.0702)
(-35.0322 0 -13.2104)
(-43.437 0 -12.9483)
(-51.0671 0 -11.8336)
(-57.1167 0 -8.82385)
(-61.3209 0 -5.71739)
(-63.9557 0 -3.3136)
(-65.5755 0 -1.68934)
(-66.6284 0 -0.557193)
(-67.4545 0 0.616243)
(-68.3105 0 2.06135)
(-22.7152 0 -24.5994)
(-29.7457 0 -19.7349)
(-35.1231 0 -13.7939)
(-39.2041 0 -9.35715)
(-43.2241 0 -6.57159)
(-48.54 0 -4.48099)
(-52.6199 0 -2.9086)
(-55.3399 0 -1.72742)
(-57.057 0 -0.71945)
(-58.2039 0 0.203612)
(-59.1533 0 1.12513)
(-60.1179 0 2.27801)
(-60.9171 0 3.78226)
(-26.4389 0 -15.4298)
(-34.3983 0 -12.2339)
(-40.4032 0 -8.52837)
(-44.5914 0 -5.50511)
(-47.911 0 -3.52038)
(-50.7194 0 -2.35971)
(-52.8953 0 -1.59614)
(-54.5307 0 -0.960637)
(-55.675 0 -0.356402)
(-56.381 0 0.225519)
(-56.694 0 0.800948)
(-56.5611 0 1.4628)
(-55.8063 0 2.27227)
(-29.3689 0 -10.1393)
(-37.8534 0 -7.75727)
(-44.106 0 -5.01967)
(-48.1837 0 -2.63238)
(-50.8104 0 -0.900122)
(-52.6163 0 0.214416)
(-53.9546 0 0.892631)
(-54.9617 0 1.35221)
(-55.6282 0 1.71554)
(-55.9216 0 2.02611)
(-55.8242 0 2.28847)
(-55.3049 0 2.51358)
(-54.2689 0 2.72875)
)
;

boundaryField
{
    top
    {
        type            directionMixed;
        refValue        uniform (0 0 0);
        refGradient     uniform (0 0 0);
        valueFraction   uniform (0 0 0 0 0 1);
        value           nonuniform List<vector> 
13
(
(-29.3689 0 0)
(-37.8534 0 0)
(-44.106 0 0)
(-48.1837 0 0)
(-50.8104 0 0)
(-52.6163 0 0)
(-53.9546 0 0)
(-54.9617 0 0)
(-55.6282 0 0)
(-55.9216 0 0)
(-55.8242 0 0)
(-55.3049 0 0)
(-54.2689 0 0)
)
;
    }
    bottom
    {
        type            fixedValue;
        value           uniform (0 0 0);
    }
    frontAndBack
    {
        type            empty;
    }
    left_cyc
    {
        type            cyclic;
    }
    right_cyc
    {
        type            cyclic;
    }
    procBoundary3to0throughright_cyc
    {
        type            processorCyclic;
        value           nonuniform List<vector> 
15
(
(46.1632 0 0.557161)
(81.2361 0 0.0861519)
(85.5491 0 -1.94261)
(76.6029 0 -4.1951)
(60.9611 0 -5.80419)
(40.2509 0 -6.25162)
(15.8975 0 -5.47374)
(-9.7167 0 -3.79478)
(-33.8161 0 -1.6843)
(-53.6806 0 0.441937)
(-66.4939 0 2.3167)
(-69.3618 0 3.609)
(-61.4542 0 5.46774)
(-54.3672 0 3.11351)
(-52.625 0 2.93148)
)
;
    }
    procBoundary3to2
    {
        type            processor;
        value           nonuniform List<vector> 
16
(
(58.0391 0 -15.1096)
(24.7457 0 -23.7372)
(18.4702 0 -32.1753)
(13.3801 0 -37.118)
(13.3801 0 -37.118)
(5.85283 0 -44.2593)
(3.39373 0 -46.7902)
(1.24069 0 -48.0527)
(-0.77549 0 -48.0962)
(-2.86347 0 -46.9417)
(-5.26796 0 -44.5263)
(-8.13308 0 -40.6912)
(-11.4092 0 -35.1533)
(-14.6722 0 -27.8947)
(-17.1971 0 -17.6838)
(-19.2409 0 -11.8937)
)
;
    }
}


// ************************************************************************* //
