/*--------------------------------*- C++ -*----------------------------------*\
| =========                 |                                                 |
| \\      /  F ield         | OpenFOAM: The Open Source CFD Toolbox           |
|  \\    /   O peration     | Version:  2.3.0                                 |
|   \\  /    A nd           | Web:      www.OpenFOAM.org                      |
|    \\/     M anipulation  |                                                 |
\*---------------------------------------------------------------------------*/
FoamFile
{
    version     2.0;
    format      ascii;
    class       volScalarField;
    location    "9000";
    object      p_rgh;
}
// * * * * * * * * * * * * * * * * * * * * * * * * * * * * * * * * * * * * * //

dimensions      [0 2 -2 0 0 0 0];

internalField   nonuniform List<scalar> 
191
(
-1668.01
-1646.46
-1619.92
-1586.12
-1541.43
-1481.67
-1411.4
-1331.08
-1237.3
-1174.62
-1191.56
-1274.34
-1365.01
-1629.84
-1608.22
-1582.66
-1551.88
-1514.69
-1472.71
-1428.39
-1394.86
-1395.12
-1392.37
-1393.84
-1392.99
-1404.65
-1587.47
-1569.06
-1549.33
-1528.32
-1498.34
-1463.42
-1423.87
-1370.53
-1347.82
-1338.85
-1341.51
-1354.06
-1389.84
-1575.74
-1561.73
-1544.99
-1523.74
-1486
-1431.73
-1377.93
-1337
-1304.29
-1285.05
-1290.35
-1316.3
-1352.61
-1594.32
-1581.1
-1561.99
-1534.64
-1491.5
-1427.07
-1345.03
-1287.59
-1246.96
-1223.8
-1230.06
-1261.51
-1628.24
-1614.14
-1591.32
-1556.48
-1504.67
-1430.83
-1333.82
-1257.67
-1199.81
-1167.93
-1176.36
-1219.91
-1665.47
-1649.72
-1622.82
-1580.68
-1518.73
-1434.69
-1330.42
-1233.21
-1152.88
-1109.78
-1121.02
-1181
-1697.71
-1679.1
-1647.44
-1598.18
-1525.92
-1432.09
-1326.92
-1209.24
-1104.37
-1047.94
-1062.6
-1142.14
-1732.61
-1718.28
-1694.73
-1657.43
-1601.76
-1520.91
-1418.79
-1314.52
-1177.35
-1048.93
-978.743
-997.187
-1096.54
-1740.4
-1719.72
-1688.92
-1644.31
-1581.74
-1493.89
-1387.28
-1283.42
-1127.51
-979.465
-897.946
-919.576
-1033.64
-1711.68
-1682.87
-1643.67
-1591.6
-1523.11
-1430.22
-1314.65
-1207.77
-1045.85
-889.941
-802.382
-826.008
-945.063
-1608.98
-1572.2
-1525.47
-1465.7
-1387.35
-1290.59
-1180.51
-1075.29
-921.376
-777.332
-691.699
-715.486
-828.739
-1372.5
-1330.77
-1279.65
-1216.11
-1134.32
-1042.81
-965.516
-882.177
-764.335
-649.665
-576.275
-597.144
-691.397
-944.65
-900.803
-852.394
-803.252
-754.365
-706.499
-663.98
-607.679
-529.19
-450.02
-396.98
-412.347
-479.327
-284.389
-272.287
-269.455
-279.565
-306.932
-353.148
-408.517
-457.881
-486.468
-495.964
-493.113
-494.84
-494.101
)
;

boundaryField
{
    top
    {
        type            fixedValue;
        value           uniform 0;
    }
    bottom
    {
        type            fixedFluxPressure;
        gradient        uniform 0;
        value           nonuniform List<scalar> 
13
(
-1668.01
-1646.46
-1619.92
-1586.12
-1541.43
-1481.67
-1411.4
-1331.08
-1237.3
-1174.62
-1191.56
-1274.34
-1365.01
)
;
    }
    frontAndBack
    {
        type            empty;
    }
    left_cyc
    {
        type            cyclic;
    }
    right_cyc
    {
        type            cyclic;
    }
    procBoundary2to1
    {
        type            processor;
        value           nonuniform List<scalar> 
16
(
-1686.17
-1648.69
-1604.77
-1588.31
-1604.14
-1636.98
-1674.2
-1707.95
-1707.95
-1741.66
-1754.54
-1733.12
-1638.89
-1408.78
-985.264
-303.775
)
;
    }
    procBoundary2to3
    {
        type            processor;
        value           nonuniform List<scalar> 
16
(
-1439.78
-1446.62
-1441.59
-1395.22
-1308.86
-1308.86
-1286.84
-1271.35
-1257.16
-1235.33
-1189.82
-1110.51
-983.763
-810.999
-560.437
-477.352
)
;
    }
}


// ************************************************************************* //
