/*--------------------------------*- C++ -*----------------------------------*\
| =========                 |                                                 |
| \\      /  F ield         | OpenFOAM: The Open Source CFD Toolbox           |
|  \\    /   O peration     | Version:  2.3.0                                 |
|   \\  /    A nd           | Web:      www.OpenFOAM.org                      |
|    \\/     M anipulation  |                                                 |
\*---------------------------------------------------------------------------*/
FoamFile
{
    version     2.0;
    format      ascii;
    class       volScalarField;
    location    "9000";
    object      T;
}
// * * * * * * * * * * * * * * * * * * * * * * * * * * * * * * * * * * * * * //

dimensions      [0 0 0 1 0 0 0];

internalField   nonuniform List<scalar> 
191
(
37.8073
37.0908
36.1975
35.1035
33.7889
32.1688
30.692
29.5934
28.8272
28.4962
28.5894
29.081
29.9869
28.9241
27.8111
26.4445
24.7068
22.6191
20.6645
19.0643
17.7423
16.7235
16.181
16.3346
17.0866
18.2409
23.7867
22.7608
21.617
20.3458
18.883
17.2518
15.5672
13.9844
12.7134
12.0214
12.2143
13.1719
14.6003
22.8686
22.1969
21.3669
20.2856
18.8539
17.0672
15.0719
13.0992
11.4886
10.6185
10.8548
12.0662
13.8701
23.9893
23.4767
22.7212
21.5965
19.9837
17.8728
15.4569
13.0336
11.0451
9.98289
10.2645
11.7517
25.5395
25.0654
24.2823
23.0502
21.2412
18.8159
15.9844
13.1197
10.761
9.50984
9.83605
11.5933
26.9149
26.4267
25.5844
24.2435
22.2698
19.5944
16.4114
13.1584
10.4652
9.03552
9.40537
11.4122
27.9216
27.3786
26.4607
25.0271
22.9366
20.0976
16.6517
13.0896
10.1145
8.51577
8.93077
11.161
28.8885
28.4785
27.829
26.8182
25.3187
23.1755
20.2352
16.6008
12.8385
9.66787
7.92411
8.38295
10.7866
29.0674
28.5117
27.7126
26.5764
24.9998
22.8169
19.8212
16.1092
12.2987
9.05609
7.22519
7.71521
10.2061
28.4347
27.7091
26.7466
25.4834
23.8412
21.6341
18.6527
15.0572
11.3921
8.23162
6.39534
6.89523
9.3581
26.3886
25.5173
24.4425
23.1144
21.4663
19.3155
16.5306
13.3145
10.0235
7.13277
5.40496
5.88261
8.16898
22.1244
21.2187
20.1904
18.9777
17.4967
15.6441
13.3622
10.7575
8.07441
5.68172
4.21624
4.6271
6.54512
15.2216
14.4984
13.7209
12.8454
11.8042
10.524
8.98141
7.23961
5.4402
3.81299
2.79335
3.08251
4.40347
5.67608
5.33807
5.01836
4.68872
4.321
3.88801
3.37276
2.77727
2.13207
1.51707
1.11375
1.22991
1.74347
)
;

boundaryField
{
    top
    {
        type            fixedValue;
        value           uniform 0;
    }
    bottom
    {
        type            fixedValue;
        value           uniform 43.8;
    }
    frontAndBack
    {
        type            empty;
    }
    left_cyc
    {
        type            cyclic;
    }
    right_cyc
    {
        type            cyclic;
    }
    procBoundary2to1
    {
        type            processor;
        value           nonuniform List<scalar> 
16
(
38.3787
29.8637
24.7177
23.451
24.3624
25.8276
27.1845
28.228
28.228
29.1638
29.4665
28.9921
27.1116
22.9451
15.9362
6.03702
)
;
    }
    procBoundary2to3
    {
        type            processor;
        value           nonuniform List<scalar> 
16
(
31.2153
19.6628
16.2496
15.8951
13.9755
13.9755
14.2277
14.4133
14.4626
14.2868
13.7596
12.7855
11.2757
9.10037
6.12939
2.38233
)
;
    }
}


// ************************************************************************* //
