/*--------------------------------*- C++ -*----------------------------------*\
| =========                 |                                                 |
| \\      /  F ield         | OpenFOAM: The Open Source CFD Toolbox           |
|  \\    /   O peration     | Version:  2.3.0                                 |
|   \\  /    A nd           | Web:      www.OpenFOAM.org                      |
|    \\/     M anipulation  |                                                 |
\*---------------------------------------------------------------------------*/
FoamFile
{
    version     2.0;
    format      ascii;
    class       volVectorField;
    location    "9000";
    object      U;
}
// * * * * * * * * * * * * * * * * * * * * * * * * * * * * * * * * * * * * * //

dimensions      [0 1 -1 0 0 0 0];

internalField   nonuniform List<vector> 
191
(
(-59.8744 0 3.48253)
(-64.0674 0 4.73774)
(-69.2034 0 6.26278)
(-75.09 0 7.2909)
(-79.7558 0 5.59588)
(-78.0697 0 -0.697082)
(-67.7419 0 -9.56261)
(-50.7504 0 -18.452)
(-28.9951 0 -24.6251)
(-6.81374 0 -25.7196)
(15.4214 0 -25.5408)
(37.5685 0 -22.9231)
(58.1446 0 -15.066)
(-79.4017 0 3.96117)
(-77.132 0 4.28745)
(-73.1162 0 4.13213)
(-66.904 0 2.20076)
(-57.72 0 -4.22748)
(-45.4923 0 -15.1461)
(-32.2052 0 -22.2593)
(-20.9885 0 -24.3046)
(-11.921 0 -26.0038)
(-2.91551 0 -26.8687)
(6.27601 0 -26.6717)
(15.2658 0 -25.4296)
(24.8161 0 -23.7277)
(-71.1861 0 -0.110404)
(-65.2793 0 -1.7416)
(-57.1483 0 -4.05074)
(-47.1516 0 -7.58158)
(-35.9387 0 -13.6053)
(-28.4649 0 -22.4868)
(-22.4818 0 -29.5072)
(-16.1152 0 -33.2362)
(-9.23192 0 -35.117)
(-2.23411 0 -35.8951)
(4.81623 0 -35.7283)
(11.7954 0 -34.5839)
(18.517 0 -32.1581)
(-60.1385 0 -5.57673)
(-54.02 0 -9.17571)
(-45.8812 0 -13.3917)
(-36.3569 0 -17.8136)
(-26.1522 0 -22.4765)
(-20.3356 0 -28.3849)
(-16.1591 0 -34.4205)
(-11.8035 0 -38.3623)
(-6.90914 0 -40.8326)
(-1.69206 0 -41.9668)
(3.62142 0 -41.7068)
(8.7319 0 -40.0682)
(13.4149 0 -37.0993)
(-48.2674 0 -10.5338)
(-43.3439 0 -15.9078)
(-36.692 0 -21.8539)
(-28.8082 0 -26.967)
(-20.1683 0 -29.9127)
(-14.257 0 -33.0194)
(-11.0089 0 -38.2684)
(-7.9727 0 -42.3613)
(-4.66426 0 -45.1173)
(-1.15039 0 -46.4055)
(2.43798 0 -46.1045)
(5.88062 0 -44.2478)
(-33.7278 0 -14.1064)
(-30.5617 0 -20.873)
(-26.0919 0 -28.3091)
(-20.5053 0 -34.4148)
(-14.1149 0 -36.8701)
(-8.68575 0 -37.4686)
(-6.48645 0 -41.0099)
(-4.62809 0 -44.8165)
(-2.71885 0 -47.7196)
(-0.677641 0 -49.1441)
(1.41481 0 -48.8053)
(3.41338 0 -46.7776)
(-15.8057 0 -15.9491)
(-14.4663 0 -23.6041)
(-12.3838 0 -32.096)
(-9.60017 0 -39.0878)
(-6.15385 0 -41.6999)
(-3.13302 0 -40.4912)
(-2.29425 0 -42.5847)
(-1.66029 0 -46.0669)
(-1.02195 0 -49.0245)
(-0.262684 0 -50.5376)
(0.53496 0 -50.1728)
(1.25355 0 -48.0394)
(4.79129 0 -16.2568)
(4.47996 0 -24.2598)
(4.18856 0 -33.1805)
(3.78858 0 -40.5626)
(3.65613 0 -43.3168)
(2.73158 0 -41.1614)
(1.87379 0 -42.619)
(1.13862 0 -46.0614)
(0.560151 0 -49.1205)
(0.122964 0 -50.7121)
(-0.27544 0 -50.3237)
(-0.76832 0 -48.0817)
(27.393 0 -9.50762)
(26.161 0 -15.2936)
(24.4225 0 -22.9943)
(21.8812 0 -31.4583)
(18.2273 0 -38.3427)
(14.237 0 -40.809)
(8.66427 0 -38.8388)
(6.12413 0 -40.7933)
(4.00067 0 -44.7428)
(2.18987 0 -48.0304)
(0.516363 0 -49.702)
(-1.12429 0 -49.2937)
(-2.86135 0 -46.9257)
(47.145 0 -8.11484)
(45.1924 0 -13.2632)
(42.1914 0 -19.9402)
(37.6482 0 -26.9895)
(31.1932 0 -32.4116)
(23.6618 0 -34.1599)
(14.1828 0 -33.6874)
(10.5115 0 -37.4537)
(7.18736 0 -42.1651)
(4.03665 0 -45.6797)
(0.953505 0 -47.3902)
(-2.1367 0 -46.9701)
(-5.27205 0 -44.5089)
(60.3818 0 -6.22741)
(57.7683 0 -10.3261)
(53.6595 0 -15.5407)
(47.5223 0 -20.7808)
(39.1567 0 -24.3754)
(28.9255 0 -24.9976)
(19.954 0 -26.0095)
(15.4354 0 -33.0019)
(10.9858 0 -38.3245)
(6.26579 0 -41.8516)
(1.47689 0 -43.5045)
(-3.37179 0 -43.0917)
(-8.14497 0 -40.6736)
(63.0766 0 -4.07681)
(59.9111 0 -6.77395)
(55.0302 0 -10.0302)
(48.1981 0 -12.5418)
(40.3645 0 -12.9749)
(31.3887 0 -14.7016)
(26.2276 0 -20.5876)
(21.322 0 -27.864)
(15.3369 0 -32.9916)
(8.84083 0 -36.2133)
(2.08166 0 -37.7034)
(-4.7672 0 -37.3283)
(-11.431 0 -35.1371)
(56.4415 0 -1.05097)
(54.4063 0 -2.10368)
(51.25 0 -3.398)
(46.5187 0 -5.1683)
(41.5811 0 -7.48545)
(37.5316 0 -10.8168)
(33.2174 0 -16.0676)
(27.2001 0 -21.8171)
(19.6548 0 -26.0598)
(11.3791 0 -28.7917)
(2.6759 0 -30.0592)
(-6.13951 0 -29.7406)
(-14.705 0 -27.8807)
(55.2222 0 -0.558619)
(53.9097 0 -1.17077)
(52.0958 0 -1.83634)
(49.687 0 -2.71194)
(46.7017 0 -4.12701)
(43.1021 0 -6.55767)
(38.3157 0 -9.95181)
(31.5022 0 -13.5891)
(22.9592 0 -16.4247)
(13.3633 0 -18.3054)
(3.1484 0 -19.181)
(-7.21714 0 -18.9599)
(-17.2383 0 -17.6741)
(55.3337 0 1.60302)
(54.5492 0 1.21275)
(53.4374 0 0.692427)
(51.9589 0 -0.125891)
(49.9196 0 -1.45411)
(46.8335 0 -3.47066)
(41.9684 0 -6.0798)
(34.8 0 -8.74872)
(25.5943 0 -10.9012)
(14.9843 0 -12.3836)
(3.53987 0 -13.0832)
(-8.10477 0 -12.9073)
(-19.2886 0 -11.8856)
)
;

boundaryField
{
    top
    {
        type            directionMixed;
        refValue        uniform (0 0 0);
        refGradient     uniform (0 0 0);
        valueFraction   uniform (0 0 0 0 0 1);
        value           nonuniform List<vector> 
13
(
(55.3337 0 0)
(54.5492 0 0)
(53.4374 0 0)
(51.9589 0 0)
(49.9196 0 0)
(46.8335 0 0)
(41.9684 0 0)
(34.8 0 0)
(25.5943 0 0)
(14.9843 0 0)
(3.53987 0 0)
(-8.10477 0 0)
(-19.2886 0 0)
)
;
    }
    bottom
    {
        type            fixedValue;
        value           uniform (0 0 0);
    }
    frontAndBack
    {
        type            empty;
    }
    left_cyc
    {
        type            cyclic;
    }
    right_cyc
    {
        type            cyclic;
    }
    procBoundary2to1
    {
        type            processor;
        value           nonuniform List<vector> 
16
(
(-56.4677 0 2.61217)
(-80.4703 0 3.58388)
(-75.2281 0 1.00527)
(-64.5113 0 -2.88245)
(-51.779 0 -6.45591)
(-35.9146 0 -8.99729)
(-16.6238 0 -10.2301)
(5.13299 0 -10.3042)
(5.13299 0 -10.3042)
(28.3443 0 -5.72673)
(48.443 0 -4.66548)
(61.9817 0 -3.42573)
(65.0115 0 -2.18802)
(57.7479 0 -0.103595)
(56.0742 0 0.0311853)
(55.7552 0 1.93034)
)
;
    }
    procBoundary2to3
    {
        type            processor;
        value           nonuniform List<vector> 
16
(
(72.7146 0 -6.04182)
(37.2635 0 -20.6815)
(24.6963 0 -27.3569)
(17.6028 0 -32.4392)
(9.06214 0 -40.9668)
(9.06214 0 -40.9668)
(5.24405 0 -43.4725)
(1.82983 0 -44.8268)
(-1.42543 0 -44.8153)
(-4.75629 0 -43.331)
(-8.44927 0 -40.4013)
(-12.8107 0 -36.3528)
(-17.7958 0 -31.1763)
(-22.7447 0 -24.5754)
(-26.4746 0 -15.4135)
(-29.4091 0 -10.1268)
)
;
    }
}


// ************************************************************************* //
