/*--------------------------------*- C++ -*----------------------------------*\
| =========                 |                                                 |
| \\      /  F ield         | OpenFOAM: The Open Source CFD Toolbox           |
|  \\    /   O peration     | Version:  2.3.0                                 |
|   \\  /    A nd           | Web:      www.OpenFOAM.org                      |
|    \\/     M anipulation  |                                                 |
\*---------------------------------------------------------------------------*/
FoamFile
{
    version     2.0;
    format      ascii;
    class       volScalarField;
    location    "8000";
    object      NUEff;
}
// * * * * * * * * * * * * * * * * * * * * * * * * * * * * * * * * * * * * * //

dimensions      [0 2 -1 0 0 0 0];

internalField   nonuniform List<scalar> 
765
(
0.285651
0.274671
0.257977
0.239253
0.221072
0.204808
0.191202
0.181425
0.173681
0.167477
0.162732
0.159559
0.158226
0.159081
0.161858
0.166251
0.172113
0.17947
0.188725
0.20143
0.217122
0.234952
0.253749
0.271253
0.283992
0.288046
0.281331
0.266944
0.248808
0.230109
0.212777
0.197802
0.186153
0.177424
0.170461
0.164968
0.160971
0.158654
0.158363
0.160203
0.163797
0.168921
0.175507
0.183739
0.194422
0.208711
0.225524
0.244007
0.262514
0.278151
0.287076
0.964064
0.962001
0.957939
0.951142
0.939868
0.919848
0.878757
0.772063
0.502915
0.296673
0.224965
0.196838
0.187542
0.193391
0.216165
0.27315
0.436461
0.725113
0.861818
0.912935
0.936283
0.949051
0.956674
0.961282
0.963783
0.964475
0.963305
0.960297
0.955016
0.946328
0.931559
0.903651
0.839154
0.6595
0.376042
0.252711
0.208112
0.190432
0.188458
0.201764
0.23712
0.330639
0.582784
0.810297
0.892545
0.926171
0.943304
0.953186
0.959182
0.962697
0.964306
0.985529
0.984722
0.983194
0.980802
0.977209
0.971711
0.962748
0.94638
0.910946
0.805737
0.479451
0.284964
0.243679
0.268474
0.40904
0.754206
0.896772
0.940692
0.959866
0.970047
0.976158
0.980106
0.982737
0.984448
0.985419
0.985693
0.985231
0.984073
0.982144
0.979218
0.974812
0.967891
0.956024
0.932817
0.875482
0.673888
0.350819
0.255443
0.2473
0.311411
0.575824
0.846485
0.923153
0.951605
0.965486
0.973343
0.978259
0.981501
0.983653
0.984991
0.985624
0.991202
0.990631
0.989567
0.987951
0.985623
0.98224
0.977062
0.968343
0.951845
0.914595
0.802141
0.502654
0.362254
0.446522
0.749526
0.899532
0.946037
0.965525
0.975498
0.981261
0.984964
0.987492
0.989254
0.990438
0.991124
0.991318
0.99099
0.990175
0.98885
0.986911
0.984126
0.979997
0.973424
0.961709
0.937846
0.876649
0.671462
0.401371
0.374012
0.583039
0.845381
0.927616
0.957209
0.971053
0.978607
0.983224
0.986291
0.988417
0.989884
0.990821
0.991269
0.993494
0.992978
0.992025
0.990607
0.988628
0.985859
0.981784
0.975182
0.963424
0.939701
0.882421
0.730708
0.573059
0.68245
0.859202
0.931029
0.959506
0.973125
0.980595
0.985078
0.988079
0.990211
0.991746
0.992803
0.993422
0.993596
0.993301
0.992566
0.991389
0.989712
0.987387
0.984071
0.978991
0.970349
0.954103
0.918558
0.824862
0.630552
0.591692
0.78145
0.902704
0.947601
0.967147
0.977198
0.98298
0.986651
0.989188
0.991011
0.992306
0.993149
0.993554
0.994621
0.994093
0.993116
0.991679
0.989718
0.987061
0.983293
0.977413
0.967434
0.948721
0.90951
0.827227
0.744076
0.803049
0.895439
0.9423
0.964224
0.975624
0.982204
0.986325
0.989182
0.991279
0.992828
0.99391
0.994546
0.994723
0.994421
0.993666
0.992464
0.990781
0.988511
0.985386
0.980762
0.973239
0.959868
0.933375
0.875907
0.776087
0.754776
0.852865
0.922565
0.954755
0.97053
0.979176
0.984382
0.98781
0.990265
0.992084
0.993402
0.994267
0.994682
0.995289
0.994716
0.993651
0.992085
0.98997
0.987166
0.983323
0.977606
0.968389
0.952233
0.922131
0.870554
0.827491
0.857362
0.912358
0.946978
0.965519
0.975909
0.982228
0.986397
0.989394
0.991647
0.993334
0.994515
0.995205
0.995395
0.99507
0.994248
0.992936
0.991108
0.988681
0.985432
0.980817
0.973681
0.961686
0.939883
0.899489
0.843259
0.832628
0.885303
0.931633
0.95729
0.971192
0.979286
0.984415
0.987946
0.990555
0.992524
0.993963
0.994906
0.995354
0.995778
0.995152
0.993977
0.992238
0.989885
0.986789
0.982653
0.976856
0.968057
0.953769
0.930115
0.89614
0.872025
0.88842
0.923116
0.949378
0.965417
0.975187
0.981513
0.985946
0.989242
0.991748
0.993623
0.994928
0.995686
0.995892
0.995537
0.994634
0.99318
0.991146
0.988452
0.984899
0.980067
0.973031
0.961957
0.943619
0.914299
0.880441
0.87468
0.905132
0.937193
0.958093
0.970668
0.978525
0.983808
0.987644
0.990533
0.992725
0.994321
0.99536
0.995849
0.996214
0.995538
0.99427
0.992382
0.989812
0.986442
0.982053
0.976217
0.967926
0.955571
0.937414
0.915033
0.901041
0.910412
0.932481
0.951996
0.96554
0.97459
0.980873
0.98553
0.989105
0.991845
0.993884
0.995295
0.996112
0.996335
0.995952
0.994978
0.993404
0.991186
0.988239
0.984407
0.979399
0.972524
0.962482
0.94744
0.92649
0.905735
0.902471
0.920567
0.942564
0.95917
0.970315
0.977856
0.983253
0.987361
0.990518
0.992912
0.994641
0.995762
0.99629
0.996662
0.995969
0.994674
0.992747
0.990113
0.986662
0.982253
0.976652
0.969225
0.959154
0.946051
0.93199
0.924063
0.929311
0.942768
0.956419
0.967185
0.975138
0.981089
0.985729
0.989383
0.992195
0.994279
0.995719
0.996555
0.996787
0.996391
0.995394
0.993788
0.991518
0.988493
0.984588
0.979655
0.973254
0.964633
0.953037
0.938905
0.926631
0.924815
0.935257
0.949569
0.961964
0.971294
0.978184
0.983431
0.987596
0.990836
0.993287
0.995053
0.996197
0.996742
0.997159
0.996497
0.995277
0.993476
0.991031
0.987855
0.983882
0.979033
0.973034
0.965664
0.957178
0.94916
0.945015
0.947732
0.955209
0.963789
0.971464
0.977761
0.982846
0.986999
0.990353
0.99296
0.994905
0.996259
0.997055
0.997279
0.996897
0.995952
0.994445
0.99233
0.98953
0.985961
0.981589
0.976212
0.969553
0.961541
0.952957
0.946314
0.945379
0.950918
0.959334
0.967627
0.974648
0.980329
0.984927
0.988709
0.9917
0.99398
0.995632
0.996714
0.997236
0.997713
0.99714
0.996106
0.994613
0.992633
0.990125
0.98708
0.983514
0.979397
0.974805
0.970094
0.966113
0.964196
0.965442
0.969073
0.973709
0.97837
0.982606
0.986297
0.989457
0.99209
0.99419
0.995794
0.996936
0.997622
0.997818
0.997484
0.996675
0.995411
0.993678
0.991437
0.988656
0.985363
0.981527
0.977156
0.972434
0.967935
0.96478
0.964353
0.966942
0.971231
0.975976
0.980468
0.984448
0.987876
0.990795
0.993171
0.995028
0.996405
0.997327
0.997781
0.998322
0.997889
0.997132
0.99608
0.994743
0.993124
0.991236
0.989115
0.986827
0.98449
0.982315
0.980634
0.979868
0.980362
0.981869
0.983962
0.986283
0.988593
0.990757
0.992702
0.994385
0.995789
0.996908
0.997737
0.998251
0.998402
0.998147
0.997545
0.996637
0.995441
0.993962
0.992205
0.990198
0.987986
0.985656
0.983365
0.981384
0.980096
0.979928
0.980971
0.982819
0.985064
0.987406
0.98966
0.991728
0.993552
0.995102
0.996368
0.997348
0.998028
0.998374
0.998971
0.998711
0.998275
0.9977
0.997013
0.996227
0.995348
0.994391
0.99342
0.992496
0.991698
0.99112
0.990866
0.991029
0.991541
0.992297
0.993198
0.994163
0.995127
0.996027
0.996835
0.997546
0.998149
0.998621
0.998928
0.999021
0.998865
0.99851
0.998
0.997366
0.996629
0.995798
0.994873
0.993903
0.992948
0.992076
0.991373
0.990941
0.990885
0.991233
0.991878
0.992717
0.993659
0.994634
0.995579
0.996432
0.997194
0.997854
0.998397
0.998794
0.999003
0.999645
0.999562
0.999431
0.99927
0.999092
0.998902
0.998692
0.998459
0.998233
0.998028
0.99786
0.997742
0.997692
0.997724
0.997827
0.997985
0.998183
0.998405
0.998637
0.998854
0.999048
0.999229
0.999394
0.999534
0.999631
0.999662
0.999611
0.9995
0.999352
0.999182
0.998998
0.998801
0.998576
0.998344
0.998127
0.997938
0.997793
0.997707
0.997696
0.997765
0.997897
0.998076
0.998288
0.998518
0.998749
0.998951
0.999138
0.999312
0.999467
0.999588
0.999656
)
;

boundaryField
{
    top
    {
        type            calculated;
        value           uniform 1;
    }
    bottom
    {
        type            calculated;
        value           uniform 0.148957;
    }
    frontAndBack
    {
        type            empty;
    }
    left_cyc
    {
        type            cyclic;
    }
    right_cyc
    {
        type            cyclic;
    }
}


// ************************************************************************* //
