/*--------------------------------*- C++ -*----------------------------------*\
| =========                 |                                                 |
| \\      /  F ield         | OpenFOAM: The Open Source CFD Toolbox           |
|  \\    /   O peration     | Version:  2.3.0                                 |
|   \\  /    A nd           | Web:      www.OpenFOAM.org                      |
|    \\/     M anipulation  |                                                 |
\*---------------------------------------------------------------------------*/
FoamFile
{
    version     2.0;
    format      ascii;
    class       volScalarField;
    location    "8000";
    object      NUEff;
}
// * * * * * * * * * * * * * * * * * * * * * * * * * * * * * * * * * * * * * //

dimensions      [0 2 -1 0 0 0 0];

internalField   nonuniform List<scalar> 
3060
(
0.175297
0.175107
0.17476
0.174268
0.173645
0.172904
0.17206
0.171123
0.170106
0.169015
0.167858
0.166642
0.165376
0.164088
0.162816
0.161561
0.160325
0.159116
0.15795
0.15685
0.155839
0.154944
0.154191
0.15361
0.153227
0.153068
0.153149
0.153462
0.153983
0.154686
0.155542
0.156524
0.157606
0.158763
0.159972
0.161215
0.162481
0.163768
0.165074
0.166365
0.167607
0.168786
0.169894
0.170924
0.171866
0.172709
0.17344
0.174047
0.174515
0.17483
0.174981
0.174958
0.174763
0.174407
0.173902
0.173262
0.1725
0.17163
0.170665
0.169614
0.168487
0.167291
0.166034
0.164733
0.163431
0.162151
0.160891
0.159655
0.158457
0.157317
0.156258
0.155307
0.154488
0.153829
0.15336
0.153105
0.153086
0.153306
0.153743
0.154372
0.155164
0.156092
0.157129
0.158249
0.159428
0.160646
0.161888
0.163146
0.164421
0.16571
0.166964
0.168166
0.169306
0.170378
0.171376
0.172289
0.173108
0.17382
0.17441
0.174865
0.175173
0.175319
0.641803
0.634407
0.620531
0.600117
0.573195
0.540178
0.502148
0.460982
0.419101
0.37889
0.342117
0.3097
0.281837
0.258286
0.238881
0.223137
0.210143
0.199354
0.190406
0.183033
0.177023
0.172213
0.16849
0.165786
0.164079
0.163383
0.163739
0.165121
0.167505
0.170904
0.175375
0.181019
0.187992
0.196501
0.206808
0.219265
0.23439
0.253018
0.275836
0.302945
0.334619
0.370706
0.410345
0.451804
0.492688
0.530501
0.563262
0.589782
0.609564
0.622499
0.628575
0.627657
0.619798
0.605087
0.583537
0.555328
0.52111
0.48228
0.440998
0.3998
0.360952
0.325961
0.295481
0.269528
0.247755
0.230177
0.215809
0.203948
0.194134
0.186045
0.179433
0.174106
0.169921
0.166789
0.164665
0.163546
0.163465
0.164427
0.166394
0.169359
0.173358
0.178468
0.184816
0.192579
0.201981
0.21331
0.226963
0.243544
0.264058
0.288681
0.317716
0.351311
0.389104
0.429955
0.471895
0.512465
0.549338
0.580838
0.606081
0.624785
0.636965
0.642671
0.941248
0.940532
0.939178
0.937145
0.934353
0.930671
0.925898
0.919724
0.911668
0.90096
0.886326
0.865548
0.834554
0.785641
0.705426
0.585715
0.451568
0.348865
0.284346
0.244585
0.219144
0.202275
0.19093
0.183476
0.179062
0.177319
0.178205
0.181726
0.188136
0.198119
0.213032
0.23542
0.270092
0.32607
0.417278
0.547222
0.677106
0.768774
0.824604
0.859347
0.882215
0.898068
0.909515
0.918031
0.924488
0.929428
0.933196
0.936013
0.93802
0.939301
0.939897
0.939807
0.939035
0.937571
0.935364
0.932317
0.92827
0.922976
0.916047
0.906873
0.894456
0.877099
0.851752
0.812682
0.749218
0.646655
0.51132
0.38953
0.308781
0.259506
0.228675
0.208571
0.195122
0.186163
0.18055
0.177724
0.177523
0.179946
0.185099
0.19346
0.206045
0.224774
0.253243
0.29823
0.371574
0.485009
0.620487
0.730326
0.80079
0.843969
0.871741
0.890622
0.904067
0.913987
0.921493
0.927264
0.931728
0.935161
0.937745
0.939595
0.94078
0.941331
0.972114
0.971821
0.971271
0.970454
0.969351
0.967928
0.966134
0.963893
0.961095
0.957577
0.953093
0.947262
0.939465
0.92865
0.912893
0.888637
0.847864
0.772018
0.628979
0.446086
0.324662
0.262292
0.22899
0.210324
0.200303
0.196525
0.198428
0.206248
0.221688
0.249295
0.300076
0.399362
0.571267
0.737206
0.83047
0.879245
0.907316
0.925091
0.937058
0.945557
0.951835
0.956612
0.960325
0.963253
0.965577
0.967422
0.96887
0.969976
0.970777
0.971295
0.971537
0.971501
0.971187
0.970597
0.969719
0.968529
0.966984
0.965024
0.962557
0.959446
0.955488
0.950373
0.943603
0.934358
0.921186
0.901324
0.869242
0.811958
0.701204
0.521644
0.366804
0.283583
0.24051
0.21676
0.203586
0.197391
0.196964
0.202253
0.214194
0.235873
0.274825
0.349076
0.490563
0.673812
0.796892
0.860864
0.896141
0.917672
0.931851
0.941736
0.948941
0.954374
0.958576
0.961886
0.964526
0.966641
0.968333
0.969668
0.970694
0.97144
0.971922
0.972148
0.982769
0.982584
0.982238
0.981727
0.981041
0.980164
0.979071
0.977726
0.976077
0.974048
0.97153
0.968361
0.964296
0.958948
0.951681
0.941391
0.925983
0.901119
0.856667
0.766884
0.590542
0.401133
0.300327
0.253565
0.231632
0.223898
0.227744
0.244346
0.281019
0.359466
0.522316
0.721336
0.835488
0.890379
0.919863
0.937588
0.949165
0.9572
0.963034
0.967419
0.970805
0.973472
0.975605
0.977325
0.978717
0.979838
0.980728
0.981415
0.981916
0.982241
0.982393
0.98237
0.982173
0.981803
0.981255
0.980517
0.97957
0.978383
0.976913
0.975095
0.972837
0.970004
0.966391
0.961682
0.955366
0.946575
0.933728
0.91368
0.879444
0.813562
0.675997
0.470571
0.332851
0.268735
0.238551
0.225636
0.224783
0.235735
0.262616
0.319517
0.442268
0.644651
0.797104
0.871132
0.908905
0.930669
0.944453
0.953807
0.960493
0.96546
0.969261
0.972241
0.974619
0.97654
0.978104
0.979379
0.980413
0.981238
0.981877
0.982344
0.982648
0.982791
0.987927
0.987786
0.987523
0.987136
0.986618
0.985961
0.985149
0.984158
0.982956
0.981497
0.979714
0.977509
0.974739
0.971186
0.966511
0.960127
0.951055
0.937473
0.915651
0.876969
0.799284
0.638487
0.438895
0.327269
0.279995
0.264552
0.272118
0.306721
0.391789
0.568807
0.75844
0.858138
0.90596
0.931881
0.947548
0.957793
0.964886
0.970012
0.973864
0.976839
0.979187
0.981071
0.982602
0.983853
0.984877
0.98571
0.986376
0.986894
0.987273
0.98752
0.987636
0.987619
0.987469
0.987188
0.986773
0.986218
0.98551
0.984631
0.983552
0.982234
0.98062
0.978627
0.976134
0.97296
0.968821
0.963264
0.955497
0.944128
0.926424
0.896387
0.839104
0.717675
0.514194
0.362327
0.294304
0.267944
0.266286
0.288454
0.34808
0.484434
0.689931
0.825475
0.889509
0.922463
0.941595
0.953749
0.96199
0.967853
0.9722
0.975524
0.978131
0.980215
0.981906
0.983292
0.984435
0.985377
0.986147
0.986766
0.987249
0.987604
0.987835
0.987944
0.990828
0.990708
0.990485
0.990157
0.989721
0.989171
0.988495
0.987677
0.986694
0.985512
0.984084
0.982339
0.980177
0.977446
0.973915
0.969189
0.962661
0.95327
0.939021
0.915791
0.874069
0.790407
0.628097
0.449643
0.356832
0.32717
0.341542
0.409306
0.562752
0.746686
0.853239
0.905119
0.932926
0.949484
0.960161
0.967461
0.972677
0.976532
0.979484
0.9818
0.983655
0.985162
0.9864
0.987423
0.988268
0.98896
0.989519
0.989954
0.990275
0.990484
0.990583
0.990568
0.990441
0.990203
0.989853
0.989386
0.988794
0.988064
0.987176
0.986101
0.984799
0.98321
0.981249
0.978786
0.975628
0.97147
0.965799
0.95778
0.945889
0.927105
0.894766
0.832591
0.704827
0.514184
0.384804
0.333571
0.330454
0.37339
0.488882
0.677938
0.81842
0.887637
0.923078
0.943367
0.956073
0.964576
0.970556
0.974922
0.978221
0.980788
0.982829
0.984483
0.985842
0.986968
0.987905
0.988684
0.989326
0.989846
0.990253
0.990553
0.990749
0.990842
0.992598
0.992489
0.992284
0.991986
0.99159
0.991093
0.990486
0.989758
0.98889
0.987857
0.98662
0.985124
0.98329
0.980998
0.978067
0.974199
0.968954
0.961593
0.950807
0.934095
0.906252
0.855613
0.757998
0.602179
0.471683
0.422502
0.446553
0.550397
0.710829
0.830157
0.893075
0.926683
0.946287
0.958656
0.966952
0.972783
0.977034
0.980225
0.982698
0.98466
0.986248
0.987552
0.988634
0.989536
0.990288
0.990909
0.991413
0.991809
0.992101
0.992292
0.992382
0.992368
0.992252
0.992035
0.991716
0.991293
0.99076
0.990106
0.989318
0.988372
0.987237
0.985866
0.98419
0.982111
0.979474
0.976045
0.971444
0.965078
0.955921
0.942069
0.919703
0.880463
0.805662
0.669515
0.515156
0.43325
0.428048
0.497889
0.645204
0.789637
0.872073
0.915045
0.939231
0.954051
0.963769
0.970483
0.975315
0.978905
0.981648
0.983806
0.985543
0.986964
0.988144
0.989131
0.98996
0.990656
0.991233
0.991703
0.992073
0.992347
0.992526
0.992611
0.993736
0.99363
0.993433
0.993145
0.992765
0.992291
0.991715
0.991029
0.990219
0.989264
0.988131
0.986774
0.985126
0.983085
0.980498
0.977122
0.972605
0.96638
0.957477
0.944154
0.923077
0.887539
0.82463
0.720568
0.604225
0.54684
0.575958
0.679359
0.794681
0.870602
0.913483
0.938386
0.953797
0.963914
0.970887
0.975886
0.979586
0.982398
0.984596
0.986357
0.987796
0.98899
0.98999
0.990832
0.991539
0.992128
0.992609
0.992988
0.993269
0.993453
0.99354
0.993526
0.993414
0.993205
0.992899
0.992494
0.991986
0.991367
0.990627
0.989747
0.9887
0.987449
0.985934
0.984072
0.981734
0.978721
0.974731
0.969298
0.961649
0.950419
0.933066
0.904552
0.854761
0.767759
0.647921
0.560101
0.553752
0.631328
0.75138
0.844611
0.898763
0.929595
0.948191
0.960129
0.968208
0.973917
0.978093
0.981238
0.983663
0.985589
0.987153
0.988445
0.989528
0.990444
0.991219
0.991875
0.992424
0.992873
0.993229
0.993493
0.993666
0.993748
0.994497
0.994391
0.994193
0.993904
0.993524
0.993051
0.992481
0.991807
0.991017
0.990094
0.989011
0.987726
0.98618
0.984283
0.981896
0.978814
0.974741
0.969206
0.961441
0.950129
0.932925
0.905568
0.860876
0.791698
0.71048
0.664506
0.688517
0.764067
0.840659
0.893121
0.925335
0.945327
0.95827
0.967031
0.973199
0.977693
0.981062
0.983651
0.985692
0.987342
0.988704
0.989844
0.990809
0.991629
0.992324
0.992906
0.993384
0.993763
0.994045
0.99423
0.994317
0.994304
0.994191
0.993981
0.993674
0.99327
0.992765
0.992155
0.991429
0.990574
0.989567
0.988374
0.986945
0.985205
0.983039
0.980273
0.97665
0.971785
0.965051
0.955394
0.940965
0.918414
0.881787
0.822809
0.742314
0.675629
0.670348
0.730488
0.81203
0.874671
0.914008
0.93816
0.95352
0.963736
0.970823
0.975919
0.979699
0.982577
0.984818
0.986613
0.988083
0.989311
0.990349
0.991235
0.991993
0.992639
0.993183
0.993632
0.993988
0.994253
0.994428
0.99451
0.995028
0.994918
0.994713
0.994414
0.994022
0.993535
0.992952
0.992267
0.991471
0.990549
0.989476
0.988218
0.986718
0.984894
0.982619
0.979714
0.975916
0.970823
0.963796
0.953792
0.939072
0.916777
0.882775
0.834175
0.779694
0.74849
0.764905
0.815561
0.868189
0.907042
0.93276
0.949627
0.960966
0.968843
0.974494
0.97867
0.981839
0.984301
0.98626
0.98786
0.989192
0.99032
0.991283
0.992109
0.992813
0.993408
0.993899
0.994289
0.99458
0.994771
0.994861
0.994847
0.994731
0.994514
0.994198
0.993782
0.993264
0.992642
0.991907
0.991047
0.990044
0.988868
0.987473
0.985791
0.983718
0.981094
0.977697
0.973191
0.967048
0.958417
0.945882
0.927092
0.898366
0.855606
0.801013
0.756131
0.752503
0.793088
0.848101
0.892994
0.923521
0.943492
0.956763
0.96586
0.972304
0.97701
0.980544
0.983265
0.985407
0.987136
0.988567
0.989772
0.990803
0.99169
0.992456
0.993114
0.993671
0.994133
0.994501
0.994775
0.994956
0.995041
0.995416
0.9953
0.995084
0.994769
0.994355
0.993844
0.993234
0.99252
0.991696
0.990749
0.989658
0.988391
0.986896
0.985096
0.982873
0.980066
0.976439
0.971636
0.965115
0.956027
0.943049
0.924217
0.897174
0.861287
0.823653
0.802824
0.813764
0.848238
0.886144
0.916311
0.93764
0.952323
0.962534
0.969799
0.975104
0.979079
0.982133
0.984534
0.986464
0.988055
0.989395
0.99054
0.991528
0.992381
0.993114
0.993735
0.99425
0.99466
0.994966
0.995166
0.995261
0.995247
0.995124
0.994896
0.994564
0.994127
0.993584
0.992934
0.992171
0.991285
0.99026
0.989068
0.987669
0.985999
0.983962
0.981412
0.978149
0.973874
0.968131
0.960214
0.949013
0.932834
0.909377
0.876817
0.83819
0.807912
0.80548
0.832728
0.871296
0.90511
0.929814
0.946898
0.958703
0.967019
0.973026
0.97748
0.980865
0.983502
0.9856
0.987311
0.988741
0.989958
0.991009
0.991922
0.992717
0.993403
0.993987
0.994473
0.99486
0.99515
0.99534
0.99543
0.995718
0.995594
0.995364
0.995028
0.994587
0.994043
0.993394
0.992638
0.991769
0.990777
0.989644
0.98834
0.986817
0.985003
0.982789
0.980026
0.976499
0.971892
0.965735
0.957332
0.945671
0.929411
0.907291
0.879826
0.852848
0.83855
0.846045
0.870348
0.898696
0.922848
0.940959
0.953993
0.963352
0.970168
0.975234
0.979085
0.982081
0.984466
0.986407
0.988025
0.989402
0.990589
0.991621
0.992518
0.993293
0.993952
0.994499
0.994935
0.99526
0.995473
0.995573
0.995558
0.995429
0.995186
0.994833
0.994368
0.993792
0.993103
0.992298
0.991367
0.990297
0.989064
0.987631
0.985939
0.983895
0.98137
0.978179
0.974053
0.968591
0.961203
0.951012
0.936797
0.917155
0.891534
0.86314
0.842031
0.840348
0.859211
0.887296
0.913644
0.934167
0.94909
0.959785
0.967521
0.973219
0.977507
0.98081
0.983412
0.985509
0.987239
0.988699
0.989955
0.991049
0.992007
0.992846
0.993573
0.994195
0.994712
0.995126
0.995434
0.995637
0.995732
0.995968
0.995836
0.99559
0.99523
0.994758
0.994175
0.99348
0.992671
0.991745
0.990693
0.989498
0.988133
0.986556
0.984698
0.98246
0.979703
0.97623
0.971755
0.965876
0.958025
0.947436
0.933224
0.914831
0.893312
0.873389
0.863254
0.868574
0.886257
0.908017
0.927719
0.943304
0.954999
0.963667
0.970131
0.975027
0.978805
0.981784
0.984187
0.98617
0.987841
0.989277
0.990526
0.991619
0.992573
0.993399
0.994104
0.994688
0.995154
0.995501
0.995728
0.995834
0.995818
0.99568
0.995422
0.995044
0.994548
0.993933
0.993197
0.992338
0.991349
0.990218
0.988924
0.987432
0.985689
0.983609
0.981073
0.977911
0.973878
0.968624
0.961656
0.952288
0.939656
0.92297
0.902389
0.88093
0.865726
0.86451
0.877993
0.899033
0.92001
0.937317
0.950505
0.960298
0.967571
0.973037
0.977218
0.980482
0.983087
0.985215
0.986991
0.988508
0.989824
0.99098
0.991999
0.992893
0.993672
0.994338
0.994892
0.995335
0.995665
0.995882
0.995983
0.99619
0.99605
0.995787
0.995403
0.994898
0.994273
0.993528
0.992661
0.991668
0.990543
0.989271
0.987829
0.986177
0.984252
0.981966
0.979189
0.975739
0.971359
0.96571
0.958342
0.948693
0.936223
0.920823
0.903744
0.888701
0.881306
0.885206
0.89841
0.915395
0.931605
0.945078
0.955609
0.963667
0.969831
0.974599
0.978334
0.981324
0.98377
0.985816
0.987562
0.989075
0.990401
0.991565
0.992585
0.993468
0.994221
0.994846
0.995343
0.995712
0.995954
0.996067
0.99605
0.995903
0.995629
0.995226
0.994696
0.994039
0.993252
0.992334
0.991278
0.990073
0.988702
0.987133
0.985318
0.983179
0.980607
0.977445
0.973473
0.968382
0.961778
0.953133
0.94187
0.927618
0.910917
0.894382
0.883122
0.882212
0.892118
0.908195
0.92508
0.939761
0.951458
0.960456
0.967326
0.972608
0.976715
0.979969
0.982604
0.984786
0.986631
0.988224
0.989619
0.990851
0.99194
0.992899
0.993734
0.994448
0.995041
0.995515
0.995867
0.996098
0.996206
0.996398
0.99625
0.995971
0.995563
0.995027
0.99436
0.993565
0.992638
0.991576
0.990373
0.989015
0.987483
0.985742
0.983736
0.981386
0.978573
0.975134
0.970848
0.965429
0.958527
0.949751
0.938816
0.925892
0.912225
0.900701
0.895202
0.898127
0.90816
0.921562
0.934962
0.946613
0.956082
0.963562
0.969432
0.974066
0.977769
0.980783
0.983287
0.985411
0.987244
0.988845
0.990256
0.991498
0.992585
0.993527
0.994329
0.994992
0.995519
0.99591
0.996166
0.996285
0.996267
0.996113
0.995822
0.995396
0.994833
0.994134
0.993297
0.992318
0.991191
0.989907
0.98845
0.986793
0.984892
0.982679
0.980056
0.976883
0.972963
0.96804
0.961789
0.953827
0.943794
0.931606
0.917971
0.905067
0.896569
0.895868
0.903279
0.915724
0.929405
0.941875
0.952236
0.960489
0.966968
0.972061
0.976102
0.97936
0.982038
0.984289
0.986219
0.987901
0.989386
0.990702
0.991867
0.992893
0.993785
0.994547
0.995179
0.995682
0.996057
0.996301
0.996415
0.996602
0.996446
0.996154
0.995725
0.995159
0.994456
0.993614
0.992632
0.991504
0.990226
0.988785
0.987164
0.985332
0.983243
0.980828
0.977979
0.974554
0.970368
0.965189
0.958755
0.950819
0.94128
0.930461
0.919505
0.910615
0.906485
0.90871
0.916408
0.92703
0.938098
0.948134
0.956602
0.963509
0.969076
0.973571
0.977237
0.980274
0.982835
0.985037
0.986957
0.988646
0.990137
0.991452
0.992603
0.993598
0.994444
0.995142
0.995696
0.996106
0.996374
0.996499
0.996481
0.996319
0.996014
0.995566
0.994975
0.994239
0.993355
0.99232
0.991127
0.989768
0.988228
0.986483
0.984496
0.982209
0.979537
0.976353
0.972493
0.967744
0.961854
0.954559
0.945669
0.935282
0.924143
0.914014
0.90753
0.90698
0.912579
0.922266
0.933356
0.943911
0.95304
0.960566
0.966648
0.971544
0.975512
0.978771
0.981495
0.983816
0.985833
0.987606
0.989177
0.990574
0.991813
0.992902
0.993847
0.994653
0.99532
0.99585
0.996243
0.9965
0.99662
0.996808
0.996646
0.996343
0.995897
0.995309
0.994578
0.9937
0.992673
0.991491
0.990149
0.988636
0.986936
0.985025
0.982864
0.980395
0.977525
0.974134
0.970072
0.965161
0.959221
0.952118
0.943879
0.934894
0.926151
0.919297
0.916189
0.917893
0.923813
0.932214
0.941301
0.949869
0.957368
0.963685
0.96892
0.973251
0.976858
0.979899
0.982504
0.984771
0.986766
0.988529
0.99009
0.991465
0.992667
0.993705
0.994584
0.995309
0.995883
0.996308
0.996586
0.996716
0.996696
0.996528
0.996212
0.995748
0.995136
0.994371
0.993451
0.992372
0.991125
0.989703
0.988092
0.986272
0.984211
0.981864
0.979156
0.975982
0.972203
0.967655
0.962154
0.955534
0.947734
0.938955
0.929902
0.921959
0.916996
0.916557
0.920794
0.928323
0.937264
0.946121
0.954083
0.960877
0.966533
0.971205
0.975076
0.978318
0.981073
0.983454
0.985546
0.987399
0.989048
0.990516
0.991815
0.992956
0.993944
0.994783
0.995477
0.996027
0.996436
0.996702
0.996827
0.997021
0.996855
0.996545
0.99609
0.995489
0.994741
0.993842
0.992787
0.991571
0.990186
0.988624
0.98687
0.984904
0.982699
0.980206
0.977348
0.974031
0.970138
0.965546
0.960144
0.953885
0.946879
0.939521
0.932621
0.927379
0.925056
0.92636
0.930889
0.937475
0.944844
0.952055
0.958595
0.964287
0.969143
0.973262
0.976768
0.979778
0.982394
0.984696
0.986738
0.98855
0.990156
0.991569
0.992803
0.993865
0.994764
0.995503
0.996089
0.996522
0.996806
0.996938
0.996918
0.996747
0.996424
0.995952
0.995327
0.994546
0.993606
0.9925
0.991221
0.989758
0.988101
0.986231
0.984124
0.981747
0.979038
0.97591
0.972257
0.967958
0.962892
0.956975
0.950233
0.942916
0.935642
0.929463
0.925679
0.925327
0.928512
0.934313
0.941435
0.948761
0.955596
0.961633
0.966816
0.971215
0.974946
0.978134
0.980888
0.983299
0.985439
0.987347
0.98905
0.990565
0.991904
0.993078
0.994091
0.994951
0.99566
0.996222
0.99664
0.996912
0.99704
0.997242
0.997076
0.996764
0.996308
0.995707
0.994957
0.994055
0.992995
0.991772
0.990376
0.9888
0.98703
0.985054
0.982852
0.980385
0.977596
0.974413
0.970758
0.966552
0.961746
0.956355
0.950528
0.944628
0.939282
0.935337
0.933627
0.934616
0.938036
0.943116
0.94898
0.954921
0.960503
0.965522
0.969933
0.973772
0.977112
0.980032
0.982605
0.984893
0.986938
0.988758
0.990372
0.991793
0.99303
0.994095
0.994994
0.995733
0.996318
0.996752
0.997036
0.997169
0.997149
0.996977
0.996654
0.996181
0.995557
0.994776
0.993835
0.992727
0.991442
0.989973
0.988307
0.986429
0.984323
0.981967
0.97931
0.976288
0.972826
0.968845
0.964278
0.959103
0.9534
0.947426
0.941688
0.936954
0.934106
0.933824
0.936181
0.940577
0.946142
0.952073
0.957811
0.963057
0.967705
0.971761
0.975285
0.978358
0.981057
0.98345
0.985591
0.987512
0.98923
0.990758
0.992108
0.993288
0.994306
0.995167
0.995878
0.996441
0.996859
0.997133
0.997262
0.997474
0.997309
0.997003
0.996556
0.995967
0.995233
0.994351
0.993314
0.992116
0.990749
0.989205
0.987474
0.985547
0.983413
0.981044
0.9784
0.975435
0.972102
0.968364
0.964216
0.959712
0.95501
0.950411
0.946378
0.943481
0.942253
0.94299
0.945516
0.949341
0.953884
0.958641
0.963266
0.967562
0.971451
0.974926
0.978017
0.980769
0.983227
0.985433
0.987418
0.989193
0.990768
0.992155
0.993364
0.994403
0.99528
0.996003
0.996575
0.997001
0.997279
0.99741
0.997391
0.997221
0.996904
0.996441
0.995831
0.995068
0.994149
0.993067
0.991813
0.990378
0.988752
0.986924
0.984882
0.982615
0.980085
0.97725
0.974063
0.970482
0.966484
0.962091
0.957408
0.952666
0.948257
0.944714
0.942614
0.942392
0.944096
0.947345
0.951577
0.95624
0.960913
0.965335
0.969379
0.973009
0.976242
0.979119
0.981688
0.983992
0.986071
0.987946
0.989626
0.991123
0.992445
0.9936
0.994596
0.995439
0.996134
0.996686
0.997097
0.997366
0.997493
0.997715
0.997557
0.997263
0.996835
0.996272
0.995573
0.994734
0.99375
0.992615
0.991322
0.989864
0.988234
0.986426
0.984438
0.982252
0.979843
0.977188
0.974267
0.971075
0.967634
0.964016
0.960365
0.95691
0.95397
0.95191
0.951056
0.951591
0.953402
0.95619
0.959589
0.963261
0.966948
0.970485
0.973783
0.976807
0.979558
0.98205
0.984308
0.986354
0.988208
0.989874
0.991357
0.992667
0.993809
0.994794
0.995627
0.996315
0.996861
0.997267
0.997535
0.997661
0.997642
0.997479
0.997175
0.996733
0.996151
0.995426
0.994554
0.993529
0.992344
0.99099
0.989461
0.987747
0.985843
0.983744
0.981427
0.97887
0.976049
0.972953
0.969588
0.966001
0.962298
0.958669
0.955394
0.952825
0.951322
0.95115
0.952343
0.954667
0.957775
0.961308
0.96497
0.968552
0.971932
0.975055
0.977906
0.980495
0.982843
0.984976
0.986916
0.988677
0.990261
0.991676
0.992927
0.994022
0.994967
0.995769
0.996432
0.99696
0.997353
0.997612
0.997734
0.997966
0.997818
0.997543
0.997144
0.996622
0.995976
0.995205
0.994303
0.993267
0.992092
0.990772
0.989305
0.987687
0.985923
0.984001
0.981913
0.979651
0.977216
0.974622
0.971904
0.969135
0.966426
0.963941
0.961885
0.960476
0.959905
0.960279
0.961531
0.963485
0.965923
0.968634
0.97144
0.974215
0.976878
0.979384
0.981713
0.983863
0.985839
0.987649
0.989302
0.990798
0.992137
0.993325
0.994366
0.995267
0.996033
0.996668
0.997174
0.997553
0.997802
0.99792
0.997903
0.99775
0.997467
0.997055
0.996516
0.995848
0.995047
0.99411
0.993032
0.991805
0.990426
0.98889
0.987196
0.985344
0.983323
0.981127
0.97875
0.976201
0.973503
0.970711
0.967915
0.965256
0.962923
0.961131
0.960094
0.959966
0.96077
0.962368
0.964557
0.967118
0.969856
0.972621
0.975312
0.977867
0.980258
0.982474
0.984519
0.986399
0.988125
0.989703
0.991131
0.992413
0.993551
0.994551
0.995419
0.996157
0.99677
0.99726
0.997627
0.997869
0.997984
0.998226
0.998091
0.997842
0.997482
0.997014
0.996438
0.995754
0.99496
0.994055
0.993035
0.991898
0.990644
0.989273
0.987791
0.986196
0.984487
0.98267
0.980756
0.978766
0.976738
0.97473
0.972822
0.971121
0.969747
0.968825
0.968458
0.968709
0.969538
0.970847
0.972515
0.974417
0.976442
0.978503
0.980534
0.982494
0.984357
0.986108
0.987743
0.989258
0.990656
0.991932
0.993084
0.994113
0.995023
0.995815
0.996493
0.997059
0.997513
0.997854
0.99808
0.998188
0.998172
0.998033
0.997777
0.997406
0.996923
0.996329
0.995621
0.994798
0.993858
0.992797
0.991614
0.990307
0.988878
0.987331
0.985666
0.983884
0.981994
0.980013
0.977969
0.975911
0.973908
0.972055
0.970469
0.969273
0.968586
0.968497
0.969016
0.970067
0.971538
0.973304
0.975247
0.977267
0.97929
0.981263
0.983154
0.984944
0.986623
0.98819
0.989643
0.990983
0.992207
0.993313
0.994302
0.995178
0.995943
0.996599
0.997146
0.997586
0.997917
0.998137
0.998242
0.998492
0.998374
0.998156
0.997844
0.99744
0.996948
0.996368
0.995702
0.994949
0.994109
0.993183
0.992172
0.991078
0.989909
0.988665
0.987355
0.985987
0.984577
0.983145
0.981722
0.980349
0.979079
0.977974
0.9771
0.976522
0.976297
0.976458
0.976982
0.977818
0.978902
0.980165
0.981545
0.982984
0.98444
0.985878
0.987275
0.988614
0.989884
0.991077
0.99219
0.993217
0.994155
0.995002
0.995758
0.996424
0.996999
0.997483
0.997874
0.99817
0.998367
0.998462
0.998447
0.998326
0.998103
0.997782
0.997366
0.996859
0.99626
0.995571
0.994791
0.993921
0.99296
0.991911
0.990777
0.989562
0.988274
0.986918
0.985509
0.984063
0.982608
0.981179
0.979824
0.978601
0.977575
0.976814
0.97638
0.97632
0.976641
0.977302
0.978243
0.979397
0.9807
0.98209
0.983519
0.984948
0.986349
0.987703
0.988997
0.990222
0.991372
0.992444
0.993433
0.994337
0.995154
0.995884
0.996528
0.997085
0.997554
0.997934
0.998222
0.998414
0.998506
0.998764
0.998664
0.998483
0.998225
0.997894
0.997494
0.997028
0.996499
0.995909
0.995259
0.994551
0.993789
0.992974
0.992113
0.99121
0.990274
0.989315
0.988346
0.987384
0.986449
0.985568
0.984772
0.984092
0.983564
0.98322
0.983088
0.983185
0.9835
0.984007
0.984673
0.985465
0.986348
0.987291
0.988266
0.989251
0.990228
0.991182
0.992102
0.99298
0.993808
0.994582
0.995298
0.995953
0.996547
0.997075
0.997537
0.997931
0.998252
0.998497
0.998661
0.99874
0.998728
0.998626
0.998441
0.998176
0.997836
0.997424
0.996945
0.996399
0.99579
0.995118
0.994387
0.993599
0.992758
0.991868
0.990937
0.989976
0.988995
0.988011
0.987042
0.986112
0.98525
0.984487
0.983859
0.983399
0.983139
0.983101
0.98329
0.983685
0.984256
0.984969
0.985791
0.986689
0.987633
0.988599
0.989567
0.990521
0.991449
0.992342
0.993192
0.993993
0.994742
0.995434
0.996069
0.996643
0.997156
0.997605
0.997987
0.998299
0.998538
0.998699
0.998775
0.999038
0.99896
0.998819
0.998619
0.998365
0.998061
0.997712
0.997322
0.996892
0.996426
0.995927
0.995397
0.994838
0.994253
0.993648
0.993031
0.992411
0.991796
0.991198
0.990628
0.990102
0.989635
0.989243
0.988942
0.988749
0.988676
0.988731
0.98891
0.989198
0.989583
0.990047
0.990573
0.991147
0.991752
0.992375
0.993006
0.993633
0.994249
0.994844
0.995412
0.995951
0.996456
0.996926
0.997358
0.997749
0.998095
0.998394
0.99864
0.99883
0.998959
0.999021
0.999012
0.998932
0.998787
0.998582
0.998321
0.99801
0.997652
0.99725
0.996808
0.996329
0.995814
0.995268
0.994692
0.994091
0.993471
0.992842
0.992212
0.991592
0.990994
0.990432
0.98992
0.989475
0.989114
0.988852
0.988705
0.988683
0.988789
0.989011
0.989337
0.98975
0.990234
0.990773
0.991351
0.991955
0.992573
0.993193
0.993807
0.994407
0.994986
0.995538
0.99606
0.996551
0.997008
0.997428
0.997808
0.998145
0.998436
0.998676
0.998862
0.998987
0.999048
0.999314
0.999259
0.999159
0.999018
0.998842
0.998634
0.998398
0.998139
0.997858
0.997559
0.997243
0.996913
0.99657
0.996213
0.99585
0.995485
0.995124
0.994773
0.994437
0.994123
0.993837
0.993587
0.993381
0.993224
0.993124
0.993086
0.993115
0.993208
0.993359
0.993562
0.993809
0.994095
0.994411
0.99475
0.995106
0.995472
0.995843
0.996212
0.996575
0.996924
0.997259
0.997579
0.997881
0.998164
0.998424
0.998658
0.998863
0.999034
0.999167
0.999258
0.999303
0.999296
0.999239
0.999137
0.998993
0.998813
0.9986
0.998359
0.998092
0.997804
0.997497
0.997174
0.996835
0.996482
0.996117
0.995747
0.995376
0.995012
0.99466
0.994326
0.994018
0.993741
0.993504
0.993314
0.993178
0.993102
0.99309
0.993144
0.99326
0.99343
0.993649
0.993908
0.994202
0.994523
0.994863
0.995218
0.99558
0.995945
0.996307
0.99666
0.997
0.997327
0.997638
0.997933
0.998209
0.998462
0.998691
0.998891
0.999058
0.999189
0.999278
0.999321
0.99959
0.999557
0.999498
0.999416
0.999315
0.999197
0.999066
0.998924
0.998773
0.998614
0.998451
0.998282
0.998108
0.997929
0.997749
0.99757
0.997395
0.997228
0.997071
0.996925
0.996795
0.996683
0.996591
0.996522
0.996478
0.996462
0.996474
0.996515
0.996582
0.996672
0.996783
0.996913
0.997059
0.997218
0.997387
0.997563
0.997745
0.997929
0.998111
0.998288
0.998459
0.998625
0.998785
0.998937
0.99908
0.999211
0.999327
0.999426
0.999504
0.999557
0.999583
0.999579
0.999546
0.999486
0.999402
0.999299
0.999178
0.999044
0.998899
0.998744
0.998583
0.998415
0.998242
0.998064
0.997881
0.997698
0.997517
0.997342
0.997175
0.99702
0.996878
0.996752
0.996646
0.996562
0.996502
0.996468
0.996463
0.996487
0.996537
0.996613
0.99671
0.996828
0.996962
0.997111
0.997271
0.99744
0.997616
0.997796
0.997976
0.998154
0.998326
0.998494
0.998656
0.998813
0.998962
0.999101
0.999229
0.999343
0.99944
0.999516
0.999568
0.999594
0.999863
0.999853
0.999834
0.999807
0.999775
0.999739
0.999699
0.999656
0.999612
0.999566
0.99952
0.999473
0.999426
0.999376
0.999326
0.999277
0.99923
0.999186
0.999144
0.999106
0.999073
0.999044
0.999021
0.999003
0.998992
0.998988
0.998992
0.999002
0.999018
0.999041
0.99907
0.999103
0.999141
0.999183
0.999228
0.999275
0.999325
0.999376
0.999427
0.999475
0.999523
0.999569
0.999616
0.99966
0.999703
0.999743
0.999779
0.99981
0.999835
0.999853
0.999861
0.99986
0.999849
0.99983
0.999803
0.99977
0.999733
0.999692
0.999649
0.999604
0.999557
0.99951
0.999463
0.999414
0.999363
0.999312
0.999263
0.999216
0.999172
0.999131
0.999094
0.999062
0.999035
0.999014
0.998998
0.99899
0.998989
0.998995
0.999007
0.999026
0.999051
0.999081
0.999116
0.999155
0.999197
0.999242
0.99929
0.999339
0.999389
0.999438
0.999486
0.999532
0.999578
0.999623
0.999667
0.999709
0.999749
0.999784
0.999815
0.999839
0.999856
0.999865
)
;

boundaryField
{
    top
    {
        type            calculated;
        value           uniform 1;
    }
    bottom
    {
        type            calculated;
        value           uniform 0.148957;
    }
    frontAndBack
    {
        type            empty;
    }
    left_cyc
    {
        type            cyclic;
    }
    right_cyc
    {
        type            cyclic;
    }
}


// ************************************************************************* //
