/*--------------------------------*- C++ -*----------------------------------*\
| =========                 |                                                 |
| \\      /  F ield         | OpenFOAM: The Open Source CFD Toolbox           |
|  \\    /   O peration     | Version:  2.3.0                                 |
|   \\  /    A nd           | Web:      www.OpenFOAM.org                      |
|    \\/     M anipulation  |                                                 |
\*---------------------------------------------------------------------------*/
FoamFile
{
    version     2.0;
    format      ascii;
    class       volScalarField;
    location    "8000";
    object      NUEff;
}
// * * * * * * * * * * * * * * * * * * * * * * * * * * * * * * * * * * * * * //

dimensions      [0 2 -1 0 0 0 0];

internalField   nonuniform List<scalar> 
3060
(
0.187993
0.187358
0.186232
0.184693
0.182836
0.180764
0.178583
0.176397
0.174293
0.172343
0.170594
0.168935
0.167335
0.165788
0.164292
0.162834
0.161409
0.160023
0.158693
0.157442
0.156295
0.155277
0.154414
0.153733
0.153264
0.153034
0.153066
0.153355
0.153879
0.15461
0.15552
0.156583
0.157773
0.159066
0.160437
0.161865
0.163337
0.164851
0.166414
0.168025
0.169671
0.171378
0.173239
0.175204
0.177226
0.179229
0.181117
0.182787
0.184138
0.185082
0.185543
0.185467
0.184866
0.183802
0.182353
0.180613
0.178683
0.176665
0.174653
0.172714
0.170897
0.169212
0.167576
0.165975
0.164428
0.162926
0.161466
0.160052
0.1587
0.157433
0.156275
0.155252
0.154389
0.153712
0.15325
0.15303
0.153073
0.153371
0.153902
0.154636
0.155544
0.156601
0.157779
0.159055
0.160403
0.161801
0.163235
0.164703
0.166211
0.167775
0.16939
0.171069
0.172861
0.174865
0.177
0.179194
0.181355
0.183379
0.185157
0.18659
0.187587
0.188074
0.858098
0.853523
0.844591
0.830403
0.809395
0.779176
0.736565
0.678516
0.605026
0.52268
0.443166
0.377195
0.326325
0.288335
0.259864
0.237871
0.220525
0.20667
0.195538
0.186604
0.179472
0.17384
0.169495
0.166306
0.164211
0.163209
0.163345
0.164608
0.166969
0.170446
0.175128
0.181175
0.188838
0.198472
0.210543
0.2257
0.244923
0.269751
0.30278
0.347327
0.405689
0.478125
0.557776
0.634445
0.698668
0.747397
0.782377
0.806639
0.822773
0.832541
0.836929
0.836222
0.830406
0.81901
0.800844
0.773913
0.735431
0.682463
0.614194
0.535518
0.456885
0.388075
0.33373
0.292544
0.262211
0.239138
0.221159
0.206933
0.195589
0.18654
0.179354
0.173705
0.169369
0.166206
0.164148
0.163192
0.163377
0.164684
0.167079
0.170579
0.175264
0.181287
0.188883
0.198382
0.210209
0.224943
0.243443
0.267017
0.297752
0.339059
0.393946
0.464136
0.545915
0.626777
0.696306
0.749854
0.788676
0.816043
0.834954
0.847555
0.855211
0.858659
0.962773
0.962104
0.960846
0.958962
0.956384
0.953014
0.948717
0.943302
0.936481
0.927781
0.916386
0.900896
0.87869
0.844465
0.789002
0.695021
0.552776
0.409902
0.315481
0.260711
0.227911
0.207156
0.193558
0.184666
0.179246
0.176749
0.17708
0.180238
0.186427
0.196354
0.211533
0.234974
0.272783
0.337418
0.448656
0.602061
0.732788
0.812719
0.859878
0.888728
0.907854
0.921347
0.931316
0.938945
0.944895
0.949554
0.953165
0.955891
0.957842
0.959089
0.959668
0.959574
0.958812
0.957375
0.955219
0.952262
0.94838
0.943394
0.937027
0.928833
0.918037
0.903261
0.881998
0.849324
0.79496
0.702131
0.558783
0.412341
0.315794
0.260339
0.227396
0.206675
0.193167
0.184381
0.179076
0.176702
0.177164
0.180443
0.186746
0.196779
0.212041
0.235492
0.273075
0.336768
0.445377
0.595536
0.72612
0.807387
0.855686
0.88576
0.905726
0.919885
0.930426
0.938541
0.944934
0.950015
0.954037
0.957175
0.959552
0.961257
0.962349
0.962856
0.980374
0.980064
0.979487
0.978635
0.977492
0.976036
0.974232
0.972032
0.969364
0.966114
0.962103
0.95704
0.950453
0.94154
0.928903
0.910034
0.879367
0.823745
0.712166
0.522278
0.360228
0.277155
0.235352
0.212662
0.200341
0.194988
0.195673
0.202482
0.216835
0.243099
0.292505
0.393152
0.576976
0.751841
0.844183
0.89079
0.917225
0.933865
0.945132
0.953135
0.959089
0.963676
0.967304
0.970227
0.972599
0.974519
0.97605
0.977233
0.978096
0.978655
0.978917
0.978874
0.97853
0.977888
0.976939
0.975663
0.97403
0.971992
0.96948
0.966382
0.962519
0.957605
0.951171
0.942424
0.929918
0.911179
0.880618
0.824914
0.71231
0.519916
0.357594
0.275362
0.234193
0.211934
0.19994
0.194879
0.195868
0.202974
0.217678
0.244426
0.294554
0.396026
0.578813
0.751304
0.84298
0.889574
0.916114
0.932868
0.944306
0.95247
0.958573
0.963307
0.967084
0.970157
0.972686
0.97477
0.976474
0.97784
0.9789
0.979675
0.980177
0.980412
0.987203
0.987004
0.986635
0.986093
0.985373
0.984463
0.983348
0.982003
0.980392
0.978459
0.976117
0.973234
0.969606
0.964908
0.958609
0.949848
0.936999
0.916766
0.881609
0.811849
0.661039
0.445943
0.315995
0.257866
0.230933
0.220169
0.221488
0.235308
0.267554
0.337967
0.494204
0.709703
0.835632
0.893545
0.923687
0.941484
0.952991
0.960936
0.966675
0.970984
0.974323
0.976976
0.979123
0.980882
0.982328
0.983512
0.984464
0.985207
0.985752
0.986108
0.986274
0.986247
0.986028
0.985621
0.985022
0.984223
0.983209
0.981957
0.98043
0.978573
0.9763
0.97348
0.969907
0.965257
0.958994
0.950245
0.937362
0.91699
0.881394
0.81021
0.655555
0.439511
0.312483
0.256052
0.230042
0.219937
0.221906
0.236428
0.269752
0.342244
0.501284
0.714005
0.836741
0.893608
0.923418
0.941109
0.952592
0.960549
0.966341
0.970702
0.974098
0.976815
0.979032
0.980869
0.982402
0.98368
0.984735
0.985591
0.986261
0.986755
0.987077
0.987228
0.990635
0.990484
0.990204
0.989795
0.989254
0.988576
0.98775
0.98676
0.985583
0.984182
0.982501
0.980459
0.97793
0.974724
0.970534
0.964883
0.956957
0.945264
0.926786
0.894649
0.830837
0.689838
0.471652
0.33442
0.276899
0.256008
0.258452
0.2856
0.356295
0.519959
0.733926
0.851475
0.904918
0.932702
0.949066
0.959598
0.966819
0.972007
0.975871
0.978847
0.981199
0.983097
0.984653
0.985939
0.987005
0.987883
0.988593
0.98915
0.989561
0.989829
0.989955
0.989935
0.989769
0.989462
0.989011
0.988413
0.987658
0.986731
0.985608
0.984253
0.982612
0.980601
0.978097
0.974908
0.97073
0.965068
0.957095
0.945285
0.926534
0.893711
0.827959
0.682019
0.462815
0.330057
0.275007
0.255542
0.259296
0.288046
0.361784
0.529779
0.74019
0.853634
0.905618
0.932867
0.949012
0.959449
0.966633
0.971817
0.975695
0.97869
0.981068
0.982999
0.984596
0.98593
0.987053
0.987995
0.988779
0.989418
0.989922
0.990295
0.990539
0.990654
0.992581
0.992453
0.992216
0.991871
0.991417
0.99085
0.990164
0.989349
0.988385
0.987247
0.985894
0.984265
0.98227
0.979771
0.976553
0.972284
0.966438
0.958102
0.945569
0.925324
0.889203
0.815895
0.659855
0.457934
0.347286
0.308462
0.312829
0.363682
0.497405
0.704809
0.838596
0.900242
0.93148
0.949416
0.960712
0.968317
0.973696
0.977646
0.980638
0.982976
0.984848
0.986376
0.98764
0.988694
0.989574
0.990303
0.990897
0.991364
0.991711
0.991938
0.992044
0.992027
0.991887
0.991627
0.991248
0.990746
0.990116
0.989347
0.988422
0.987314
0.985984
0.984371
0.982384
0.979889
0.97667
0.972382
0.966487
0.958049
0.94531
0.924621
0.887435
0.811283
0.649667
0.44924
0.343523
0.307582
0.31444
0.368627
0.507629
0.713592
0.84217
0.901635
0.932039
0.949614
0.960739
0.968259
0.973598
0.977535
0.980525
0.982866
0.984749
0.986294
0.987582
0.988669
0.989589
0.990367
0.991019
0.991554
0.991978
0.992293
0.9925
0.992597
0.993765
0.993646
0.993428
0.993112
0.992697
0.992183
0.991565
0.990836
0.989982
0.988982
0.987805
0.9864
0.984697
0.982583
0.979886
0.976349
0.971578
0.964914
0.955189
0.940158
0.915072
0.868775
0.774562
0.604823
0.449651
0.38535
0.39256
0.475556
0.646754
0.80222
0.88245
0.922414
0.944566
0.958081
0.966941
0.973072
0.977493
0.980786
0.98331
0.985302
0.986915
0.988243
0.989354
0.990288
0.991074
0.991731
0.992269
0.992695
0.993012
0.99322
0.993318
0.993302
0.993174
0.992936
0.992589
0.992132
0.991562
0.990871
0.990046
0.989067
0.987901
0.986502
0.984796
0.982675
0.97997
0.976407
0.971585
0.964828
0.95493
0.939562
0.91376
0.865774
0.767595
0.594179
0.443322
0.383836
0.395339
0.483558
0.657226
0.807861
0.884855
0.923485
0.945057
0.958291
0.967005
0.973055
0.977434
0.980707
0.983219
0.985205
0.986816
0.988152
0.989276
0.990232
0.99105
0.991747
0.992336
0.992822
0.99321
0.993499
0.993689
0.993779
0.99452
0.994405
0.994191
0.993882
0.993479
0.992982
0.992389
0.991695
0.99089
0.989959
0.988872
0.98759
0.98605
0.984156
0.981759
0.978644
0.974488
0.968769
0.96059
0.948317
0.928737
0.895005
0.832093
0.7164
0.57107
0.489121
0.498907
0.599873
0.746902
0.84995
0.904592
0.93429
0.951823
0.962967
0.970475
0.97577
0.979643
0.982561
0.984817
0.986616
0.988085
0.98931
0.990343
0.991222
0.991969
0.992598
0.993117
0.99353
0.993838
0.994041
0.994137
0.994121
0.993996
0.993764
0.993427
0.992985
0.992436
0.991775
0.990994
0.990075
0.988993
0.987708
0.986157
0.984248
0.981834
0.978687
0.974478
0.968669
0.960336
0.947786
0.927666
0.892794
0.827407
0.707978
0.56349
0.487005
0.502733
0.608565
0.754467
0.853808
0.906419
0.935187
0.95227
0.963178
0.970553
0.97577
0.979596
0.982486
0.984724
0.986508
0.987969
0.989191
0.990231
0.991126
0.991898
0.992563
0.993129
0.9936
0.993977
0.99426
0.994447
0.994535
0.995027
0.994908
0.99469
0.994374
0.993963
0.993459
0.992862
0.99217
0.991374
0.990463
0.989414
0.98819
0.986734
0.984962
0.982737
0.979872
0.976086
0.970937
0.963688
0.953054
0.936655
0.909846
0.863541
0.784066
0.676511
0.60172
0.611425
0.699679
0.804816
0.876247
0.917255
0.941206
0.956039
0.965766
0.972459
0.977251
0.980798
0.983498
0.985604
0.9873
0.988701
0.989881
0.990889
0.991755
0.992498
0.993128
0.993652
0.994071
0.994385
0.994591
0.994688
0.994673
0.994545
0.994309
0.993966
0.993519
0.992966
0.992304
0.991529
0.990626
0.989575
0.988339
0.986866
0.98507
0.98282
0.979917
0.976075
0.970838
0.963449
0.952575
0.935742
0.908101
0.86018
0.778232
0.670154
0.59959
0.615178
0.70648
0.810018
0.879091
0.918731
0.941984
0.956448
0.965967
0.972536
0.977249
0.980744
0.983409
0.985492
0.987165
0.98855
0.989721
0.990729
0.991606
0.992372
0.993038
0.993609
0.994087
0.994471
0.994761
0.994952
0.995042
0.995386
0.995261
0.995031
0.994699
0.994267
0.993739
0.993116
0.992399
0.991583
0.990659
0.989606
0.988393
0.986968
0.985251
0.983116
0.980394
0.976831
0.972037
0.965379
0.955798
0.941436
0.91896
0.882599
0.82506
0.750105
0.694979
0.702452
0.766478
0.839723
0.892322
0.925058
0.945373
0.958466
0.967281
0.973457
0.977939
0.981294
0.983874
0.98591
0.987566
0.988949
0.990129
0.991147
0.992032
0.992797
0.993452
0.993998
0.994436
0.994764
0.99498
0.995082
0.995066
0.994932
0.994685
0.994326
0.993858
0.993283
0.992598
0.991801
0.990881
0.989821
0.988591
0.987141
0.985392
0.983224
0.980457
0.976834
0.971953
0.965163
0.955371
0.940652
0.917543
0.880083
0.821032
0.745657
0.693368
0.705262
0.771163
0.843384
0.894506
0.92628
0.94605
0.958832
0.967461
0.97352
0.977922
0.98122
0.983759
0.985762
0.987389
0.988748
0.989912
0.990927
0.99182
0.992608
0.993299
0.993895
0.994397
0.994801
0.995106
0.995307
0.995401
0.995659
0.995526
0.99528
0.994924
0.994461
0.993896
0.993232
0.992471
0.991611
0.990645
0.989557
0.988319
0.986883
0.985172
0.983069
0.980416
0.97698
0.972406
0.966137
0.957275
0.944332
0.924848
0.895099
0.851508
0.798554
0.760505
0.765738
0.810032
0.862391
0.902924
0.930085
0.947868
0.959747
0.967941
0.973781
0.978076
0.981327
0.983857
0.985878
0.987541
0.988947
0.990159
0.991218
0.992145
0.992954
0.993648
0.994229
0.994695
0.995045
0.995275
0.995383
0.995366
0.995224
0.994961
0.994578
0.99408
0.993468
0.992743
0.991902
0.99094
0.989842
0.988581
0.987112
0.985362
0.983218
0.980513
0.977012
0.972351
0.965958
0.956909
0.943668
0.923697
0.893189
0.848693
0.795602
0.759444
0.767606
0.813176
0.865014
0.904622
0.931094
0.948446
0.960062
0.968088
0.973815
0.978029
0.981218
0.983699
0.985679
0.987305
0.98868
0.989872
0.990924
0.99186
0.992692
0.993427
0.994063
0.9946
0.995034
0.99536
0.995575
0.995676
0.995885
0.995742
0.995477
0.995092
0.994593
0.993982
0.993264
0.992443
0.99152
0.990489
0.98934
0.988046
0.986563
0.984819
0.982703
0.980068
0.976691
0.972248
0.966241
0.9579
0.946021
0.92878
0.903817
0.869725
0.831224
0.804855
0.808526
0.839512
0.878139
0.91034
0.933415
0.949288
0.960257
0.968004
0.973622
0.977811
0.981023
0.983553
0.985602
0.987309
0.98877
0.990044
0.991166
0.992156
0.993022
0.993768
0.994393
0.994895
0.99527
0.995516
0.995632
0.995613
0.995462
0.995179
0.994769
0.994233
0.993575
0.992796
0.991896
0.990871
0.989709
0.988389
0.986867
0.985077
0.982911
0.980216
0.976769
0.972238
0.966116
0.95761
0.945483
0.927866
0.902382
0.867762
0.829293
0.804199
0.809713
0.841608
0.880013
0.911641
0.934226
0.949759
0.960505
0.9681
0.973611
0.977718
0.980862
0.983335
0.985335
0.986997
0.988422
0.989672
0.990787
0.991787
0.992682
0.993474
0.994163
0.994743
0.995211
0.995563
0.995794
0.995903
0.996086
0.995932
0.995647
0.995232
0.994692
0.99403
0.993251
0.992359
0.991357
0.990244
0.98901
0.987634
0.986074
0.984263
0.982099
0.979439
0.976072
0.971699
0.965876
0.957941
0.946925
0.931488
0.910242
0.883053
0.854355
0.835643
0.838308
0.860567
0.889765
0.915813
0.935678
0.950008
0.96024
0.967642
0.97311
0.977251
0.980469
0.98304
0.985152
0.986935
0.988478
0.989836
0.991041
0.992108
0.993043
0.993849
0.994523
0.995063
0.995466
0.99573
0.995853
0.995833
0.995671
0.995368
0.994927
0.994351
0.99364
0.992799
0.991827
0.990723
0.989479
0.988073
0.986471
0.984609
0.982385
0.979657
0.976216
0.971756
0.965824
0.957745
0.946525
0.930797
0.909208
0.881728
0.853139
0.835251
0.839041
0.86192
0.89106
0.916767
0.936296
0.950357
0.960401
0.967668
0.973034
0.977091
0.980237
0.982743
0.984798
0.986529
0.988032
0.989366
0.990565
0.991646
0.992618
0.993479
0.994226
0.994854
0.99536
0.995739
0.995989
0.996105
0.996276
0.996113
0.995807
0.995362
0.99478
0.994064
0.99322
0.992251
0.991161
0.989951
0.988615
0.987134
0.985472
0.983567
0.981325
0.978606
0.975209
0.970867
0.965184
0.957599
0.947352
0.933513
0.915343
0.893388
0.871549
0.857936
0.859928
0.876348
0.898875
0.920187
0.937358
0.950307
0.959881
0.96699
0.972351
0.976482
0.979744
0.982386
0.984588
0.986472
0.98812
0.989581
0.990881
0.992035
0.993046
0.993915
0.99464
0.995218
0.995649
0.995931
0.996062
0.996041
0.995868
0.995545
0.995074
0.994455
0.99369
0.992782
0.991732
0.990538
0.989195
0.987687
0.98598
0.984019
0.981709
0.978918
0.975442
0.971014
0.96523
0.957521
0.947111
0.933063
0.914662
0.892545
0.87081
0.857707
0.860374
0.87719
0.899716
0.920824
0.937762
0.95051
0.959931
0.966922
0.972186
0.976233
0.979418
0.981989
0.984127
0.985955
0.987561
0.988999
0.990299
0.991476
0.992532
0.993467
0.994276
0.994955
0.995499
0.995906
0.996173
0.996296
0.996465
0.996292
0.995967
0.995493
0.994872
0.994105
0.993196
0.992148
0.990966
0.989652
0.988201
0.986599
0.984816
0.982794
0.98045
0.977653
0.974218
0.969895
0.964341
0.957094
0.947575
0.935176
0.919612
0.901763
0.884914
0.874824
0.876356
0.888716
0.906336
0.923883
0.938747
0.950442
0.959392
0.966219
0.971482
0.975612
0.978928
0.98166
0.983973
0.985978
0.987745
0.98932
0.990723
0.991967
0.993055
0.993986
0.994759
0.995375
0.995832
0.99613
0.996268
0.996246
0.996064
0.995722
0.995221
0.994562
0.993745
0.992771
0.991641
0.990353
0.988904
0.98728
0.985452
0.983372
0.980956
0.978082
0.974567
0.97016
0.964514
0.957161
0.947515
0.934965
0.919246
0.901298
0.884511
0.874704
0.876609
0.889189
0.906809
0.924227
0.93893
0.950477
0.959304
0.966028
0.971201
0.975247
0.978484
0.98114
0.983383
0.985332
0.987061
0.988619
0.990031
0.991308
0.992453
0.993463
0.994333
0.995059
0.99564
0.996073
0.996355
0.996487
0.996658
0.996475
0.996134
0.995635
0.994979
0.994167
0.993199
0.99208
0.990811
0.989395
0.987828
0.9861
0.984185
0.982036
0.97958
0.976693
0.97321
0.968907
0.96349
0.956591
0.947792
0.936736
0.923442
0.908914
0.895824
0.888264
0.889471
0.898898
0.912783
0.92725
0.940082
0.9506
0.958929
0.965465
0.970623
0.974754
0.978132
0.980962
0.983393
0.985524
0.987415
0.989102
0.990606
0.991934
0.99309
0.994076
0.994892
0.99554
0.99602
0.996333
0.996478
0.996455
0.996263
0.995904
0.995378
0.994684
0.993822
0.992789
0.991586
0.99021
0.988657
0.986916
0.984963
0.982757
0.980229
0.977265
0.973702
0.969317
0.963817
0.956829
0.94793
0.936764
0.92336
0.908754
0.895669
0.88822
0.889585
0.899093
0.91295
0.927321
0.940038
0.950445
0.958676
0.965123
0.970197
0.974248
0.977546
0.980298
0.982659
0.984737
0.986597
0.988279
0.989804
0.991179
0.992407
0.993484
0.994408
0.995177
0.99579
0.996245
0.996542
0.99668
0.996858
0.996669
0.996315
0.995797
0.995114
0.994267
0.993254
0.992076
0.990733
0.989225
0.987552
0.985704
0.983662
0.981389
0.97882
0.975848
0.972324
0.968056
0.962805
0.956289
0.948229
0.938462
0.927197
0.915425
0.905258
0.899577
0.900545
0.907781
0.918733
0.930614
0.941613
0.950992
0.958681
0.964894
0.969922
0.974038
0.977468
0.980389
0.982931
0.98518
0.987185
0.988974
0.990564
0.991963
0.993175
0.994204
0.995052
0.995724
0.99622
0.996544
0.996694
0.99667
0.996472
0.996101
0.995556
0.994836
0.993938
0.99286
0.991597
0.990146
0.988502
0.986656
0.984587
0.982262
0.979628
0.976581
0.972982
0.968638
0.963312
0.95672
0.948579
0.938725
0.92737
0.915515
0.90529
0.899589
0.900558
0.907761
0.918644
0.930434
0.94134
0.950632
0.958239
0.964375
0.969327
0.973366
0.97672
0.979568
0.982045
0.98425
0.986236
0.988034
0.989661
0.991123
0.99242
0.993553
0.994519
0.995321
0.995957
0.99643
0.996738
0.996881
0.997068
0.996875
0.996514
0.995985
0.995288
0.99442
0.993378
0.99216
0.990765
0.98919
0.987433
0.985488
0.98334
0.980964
0.978304
0.975269
0.971734
0.967543
0.962508
0.956434
0.949156
0.940656
0.931242
0.92181
0.913973
0.909731
0.910516
0.916062
0.924651
0.934312
0.943621
0.951872
0.958875
0.96471
0.96956
0.973621
0.977072
0.980056
0.982682
0.985023
0.987116
0.988982
0.990633
0.992079
0.993326
0.994381
0.995247
0.995932
0.996438
0.996767
0.996921
0.996896
0.996694
0.996316
0.995761
0.995027
0.994109
0.993002
0.991701
0.990199
0.98849
0.986564
0.984406
0.981989
0.979274
0.976174
0.972571
0.968311
0.963209
0.957067
0.94972
0.941141
0.931637
0.9221
0.914146
0.909784
0.910455
0.915879
0.924351
0.933907
0.943127
0.951301
0.958233
0.964
0.968781
0.972773
0.976155
0.979075
0.981648
0.983959
0.986049
0.987941
0.989646
0.991171
0.992517
0.993685
0.994679
0.995499
0.996149
0.996631
0.996946
0.997092
0.997289
0.997095
0.996733
0.996204
0.995506
0.994635
0.993586
0.992356
0.99094
0.989334
0.987533
0.985533
0.983323
0.980889
0.978185
0.975139
0.971652
0.967605
0.962868
0.957317
0.950886
0.943648
0.935946
0.928532
0.922591
0.919473
0.920111
0.92432
0.930964
0.938685
0.946411
0.953524
0.959777
0.965154
0.969748
0.973686
0.977097
0.980089
0.982747
0.985133
0.987268
0.989167
0.990843
0.992304
0.99356
0.994617
0.995485
0.996169
0.996674
0.997004
0.997158
0.997133
0.99693
0.996552
0.995998
0.995264
0.994345
0.993234
0.991923
0.990404
0.988668
0.986705
0.984504
0.982046
0.979303
0.976205
0.97266
0.968554
0.963756
0.958143
0.951644
0.944325
0.93652
0.928972
0.922863
0.919553
0.919998
0.924019
0.930502
0.938096
0.945724
0.952758
0.958944
0.964259
0.968792
0.97267
0.976024
0.978967
0.981589
0.98396
0.98611
0.988054
0.9898
0.991353
0.992717
0.993896
0.994895
0.995717
0.996368
0.996851
0.997166
0.997313
0.997521
0.99733
0.996975
0.996457
0.995773
0.994919
0.993891
0.992681
0.991284
0.989694
0.987904
0.98591
0.983707
0.981288
0.978619
0.975645
0.972298
0.968497
0.964164
0.959238
0.953725
0.947748
0.941634
0.935969
0.931583
0.929351
0.929864
0.932997
0.93802
0.944032
0.950268
0.956224
0.961649
0.966467
0.9707
0.974416
0.977694
0.980609
0.983222
0.985579
0.98769
0.989567
0.991218
0.992654
0.993884
0.994919
0.995767
0.996436
0.996931
0.997254
0.997405
0.99738
0.997182
0.996812
0.996269
0.995552
0.994653
0.993565
0.992279
0.990785
0.989073
0.987134
0.984957
0.982532
0.97984
0.976831
0.97344
0.969589
0.9652
0.960214
0.954629
0.948561
0.942326
0.936501
0.931912
0.929446
0.92972
0.932625
0.937455
0.943317
0.94944
0.95531
0.960666
0.965424
0.969603
0.97327
0.976506
0.979389
0.981984
0.984342
0.986487
0.988423
0.990156
0.991692
0.993037
0.994195
0.995174
0.99598
0.996617
0.99709
0.9974
0.997545
0.997763
0.99758
0.997239
0.996743
0.99609
0.995276
0.994296
0.993143
0.991811
0.990291
0.988579
0.986669
0.98456
0.982252
0.979722
0.976935
0.973848
0.970417
0.966608
0.962413
0.957876
0.95314
0.948476
0.94431
0.941187
0.939648
0.940052
0.942314
0.945987
0.950505
0.95535
0.960147
0.964672
0.968821
0.972571
0.975942
0.978971
0.981701
0.984168
0.986405
0.988413
0.990199
0.99177
0.993135
0.994305
0.99529
0.996097
0.996735
0.997208
0.997517
0.997662
0.997639
0.997448
0.997094
0.996576
0.995892
0.995036
0.994002
0.992779
0.991358
0.98973
0.987884
0.985814
0.983516
0.980979
0.97817
0.97505
0.971578
0.967718
0.963461
0.958846
0.954007
0.949208
0.944868
0.94153
0.939746
0.939898
0.941922
0.94539
0.949743
0.954463
0.959164
0.963615
0.967705
0.971407
0.974738
0.977738
0.980451
0.982916
0.985169
0.987222
0.989076
0.990734
0.9922
0.993482
0.994586
0.995519
0.996288
0.996897
0.99735
0.997647
0.997786
0.998015
0.997843
0.997525
0.997063
0.996457
0.995705
0.994801
0.993741
0.992518
0.991126
0.98956
0.987817
0.985896
0.983805
0.981529
0.97905
0.976349
0.973413
0.970238
0.966848
0.963306
0.959739
0.956354
0.953432
0.951307
0.950293
0.950598
0.952168
0.954741
0.957984
0.961574
0.96525
0.968837
0.972231
0.975387
0.97829
0.980948
0.983377
0.985594
0.987614
0.989437
0.991063
0.992497
0.993747
0.994821
0.995727
0.996473
0.997064
0.997503
0.997792
0.997928
0.997906
0.997728
0.997397
0.996916
0.996283
0.995494
0.994542
0.993421
0.992121
0.990635
0.988956
0.987079
0.985005
0.982731
0.98024
0.977516
0.974543
0.971319
0.967865
0.96424
0.960567
0.957044
0.953952
0.951624
0.950383
0.950455
0.951802
0.954181
0.957262
0.960723
0.964299
0.967808
0.971143
0.974253
0.977123
0.97976
0.982182
0.984406
0.98645
0.988321
0.990014
0.991531
0.992876
0.994053
0.995068
0.995929
0.99664
0.997206
0.997628
0.997905
0.998036
0.998274
0.998117
0.997829
0.997413
0.99687
0.996199
0.995397
0.994462
0.993388
0.992173
0.990813
0.989307
0.987657
0.985873
0.983949
0.98188
0.979665
0.97731
0.974828
0.972257
0.969657
0.967127
0.964805
0.962864
0.96149
0.960855
0.961072
0.96211
0.963824
0.966032
0.968545
0.971202
0.973877
0.976488
0.978981
0.98133
0.983523
0.985557
0.987434
0.989158
0.990725
0.992132
0.993381
0.994476
0.995422
0.996225
0.99689
0.99742
0.997816
0.998078
0.998201
0.998181
0.998019
0.99772
0.997287
0.99672
0.996018
0.995176
0.994189
0.993052
0.991761
0.99031
0.988699
0.986933
0.985013
0.982935
0.980698
0.978308
0.975779
0.973144
0.970464
0.967833
0.965386
0.963296
0.961751
0.960928
0.960953
0.961807
0.963356
0.965421
0.967816
0.970377
0.972977
0.975529
0.977978
0.980296
0.98247
0.984499
0.986385
0.988132
0.989741
0.991207
0.992526
0.993702
0.994736
0.995634
0.996398
0.997034
0.997542
0.997923
0.998174
0.998293
0.998539
0.998401
0.99815
0.997789
0.997321
0.996747
0.996067
0.99528
0.994385
0.993381
0.992267
0.991045
0.989718
0.988296
0.986779
0.985172
0.983484
0.981727
0.979922
0.978105
0.976322
0.97464
0.973141
0.971922
0.97108
0.970702
0.970847
0.971497
0.972578
0.973996
0.975651
0.97745
0.979316
0.981189
0.983025
0.984795
0.986481
0.988072
0.989559
0.99094
0.992207
0.993356
0.994386
0.995297
0.996093
0.996774
0.997343
0.997799
0.998143
0.998371
0.998479
0.998462
0.99832
0.998059
0.997684
0.997197
0.996597
0.995885
0.995058
0.994114
0.993051
0.991869
0.99057
0.98916
0.987644
0.986026
0.984315
0.982524
0.980675
0.978799
0.976945
0.975177
0.973578
0.972243
0.971272
0.970756
0.970759
0.971273
0.972229
0.973535
0.975093
0.976811
0.978609
0.980427
0.982221
0.983961
0.985628
0.98721
0.988702
0.990098
0.991396
0.992589
0.993672
0.994646
0.99551
0.996267
0.996917
0.997462
0.9979
0.998231
0.998451
0.998556
0.998807
0.998692
0.998483
0.998184
0.9978
0.997334
0.996788
0.996164
0.995462
0.994684
0.993831
0.992906
0.991914
0.990862
0.989754
0.9886
0.987411
0.986199
0.984985
0.983793
0.982654
0.981608
0.9807
0.979978
0.979489
0.979274
0.979364
0.979749
0.980393
0.98125
0.982271
0.983409
0.98462
0.985867
0.987119
0.988355
0.989557
0.990711
0.991806
0.992834
0.99379
0.994668
0.995465
0.99618
0.996812
0.997359
0.997821
0.998195
0.99848
0.99867
0.99876
0.998746
0.998627
0.99841
0.998101
0.997702
0.997216
0.996646
0.995991
0.995254
0.994434
0.993534
0.992558
0.99151
0.990398
0.98923
0.988018
0.986775
0.985521
0.984281
0.983087
0.981976
0.980995
0.980192
0.979616
0.97931
0.979306
0.9796
0.980158
0.980937
0.981888
0.982963
0.98412
0.985321
0.986537
0.987744
0.988926
0.990068
0.991161
0.992197
0.993171
0.994076
0.994908
0.995665
0.996345
0.996948
0.997472
0.997916
0.998276
0.99855
0.998734
0.998822
0.999077
0.998987
0.998823
0.998592
0.998297
0.997944
0.997536
0.997075
0.996565
0.996008
0.995406
0.994763
0.994082
0.993368
0.992626
0.991866
0.991098
0.990331
0.98958
0.988859
0.988186
0.987581
0.987067
0.986665
0.986398
0.986282
0.986334
0.986548
0.986907
0.987391
0.987979
0.988646
0.989372
0.990137
0.990924
0.991716
0.992502
0.993271
0.994012
0.994716
0.99538
0.995998
0.996569
0.997088
0.997554
0.997964
0.998314
0.998602
0.998822
0.998971
0.999042
0.99903
0.998937
0.998768
0.998529
0.998224
0.997857
0.997431
0.99695
0.996416
0.995832
0.995201
0.994525
0.99381
0.993061
0.992287
0.991498
0.990706
0.989924
0.989168
0.988456
0.987808
0.987247
0.986795
0.986474
0.986304
0.986299
0.986458
0.986765
0.9872
0.987741
0.988367
0.989055
0.989787
0.990544
0.991312
0.992079
0.992835
0.99357
0.994275
0.994946
0.995578
0.996167
0.996712
0.997208
0.997655
0.998048
0.998385
0.998663
0.998876
0.99902
0.999089
0.999346
0.999282
0.999166
0.999003
0.998799
0.998558
0.998282
0.997977
0.997644
0.997287
0.996908
0.996509
0.996092
0.995658
0.995214
0.994766
0.994321
0.993886
0.993467
0.993073
0.992712
0.992394
0.992128
0.991923
0.991788
0.99173
0.991757
0.991866
0.99205
0.9923
0.992608
0.992963
0.993358
0.993781
0.994225
0.994681
0.995142
0.9956
0.996049
0.99648
0.996892
0.997282
0.997647
0.997986
0.998295
0.998572
0.998812
0.999011
0.999166
0.999271
0.999322
0.999313
0.999247
0.999128
0.99896
0.998749
0.998499
0.998213
0.997895
0.997549
0.997176
0.99678
0.996363
0.995926
0.995474
0.995014
0.994554
0.994101
0.993662
0.993246
0.992861
0.992518
0.992225
0.991992
0.991829
0.991742
0.991739
0.991818
0.991974
0.992196
0.992478
0.992809
0.99318
0.993581
0.994005
0.994444
0.99489
0.995338
0.99578
0.996209
0.996622
0.997016
0.997389
0.997739
0.998065
0.998362
0.998629
0.99886
0.999053
0.999203
0.999305
0.999354
0.999611
0.999573
0.999505
0.999411
0.999294
0.999157
0.999004
0.998837
0.998659
0.998471
0.998275
0.998072
0.997862
0.997644
0.997423
0.997204
0.99699
0.996784
0.996589
0.996408
0.996245
0.996103
0.995986
0.995897
0.995839
0.995814
0.995826
0.995873
0.995953
0.996063
0.996199
0.996359
0.996539
0.996735
0.996944
0.997163
0.997388
0.997615
0.99784
0.998057
0.998266
0.998468
0.99866
0.998842
0.999011
0.999165
0.999301
0.999415
0.999505
0.999567
0.999597
0.999592
0.999553
0.999483
0.999386
0.999265
0.999124
0.998966
0.998793
0.998608
0.998413
0.998209
0.997998
0.997778
0.997552
0.997325
0.997102
0.996885
0.99668
0.996488
0.996313
0.996159
0.99603
0.995928
0.995857
0.995819
0.995818
0.995852
0.995919
0.996016
0.996141
0.996288
0.996457
0.996642
0.99684
0.997049
0.997265
0.997485
0.997705
0.997921
0.998129
0.99833
0.998524
0.998709
0.998885
0.999048
0.999197
0.999329
0.99944
0.999527
0.999587
0.999616
0.999871
0.999858
0.999836
0.999806
0.999769
0.999727
0.99968
0.99963
0.999578
0.999525
0.99947
0.999414
0.999357
0.999295
0.999233
0.999172
0.999113
0.999057
0.999005
0.998957
0.998914
0.998877
0.998847
0.998824
0.998809
0.998802
0.998805
0.998817
0.998838
0.998866
0.998902
0.998943
0.998991
0.999044
0.9991
0.99916
0.999223
0.999286
0.99935
0.99941
0.999468
0.999524
0.999579
0.999632
0.999682
0.999729
0.999771
0.999808
0.999836
0.999856
0.999866
0.999865
0.999852
0.999829
0.999798
0.99976
0.999717
0.999669
0.999618
0.999564
0.999508
0.999452
0.999393
0.999332
0.999269
0.999205
0.999144
0.999084
0.999029
0.998977
0.998931
0.998891
0.998858
0.998831
0.998813
0.998804
0.998803
0.998812
0.998829
0.998854
0.998886
0.998925
0.99897
0.999019
0.999072
0.999129
0.999189
0.99925
0.999312
0.999373
0.99943
0.999485
0.99954
0.999593
0.999645
0.999694
0.999739
0.99978
0.999815
0.999843
0.999863
0.999872
)
;

boundaryField
{
    top
    {
        type            calculated;
        value           uniform 1;
    }
    bottom
    {
        type            calculated;
        value           uniform 0.148957;
    }
    frontAndBack
    {
        type            empty;
    }
    left_cyc
    {
        type            cyclic;
    }
    right_cyc
    {
        type            cyclic;
    }
}


// ************************************************************************* //
