/*--------------------------------*- C++ -*----------------------------------*\
| =========                 |                                                 |
| \\      /  F ield         | OpenFOAM: The Open Source CFD Toolbox           |
|  \\    /   O peration     | Version:  2.3.0                                 |
|   \\  /    A nd           | Web:      www.OpenFOAM.org                      |
|    \\/     M anipulation  |                                                 |
\*---------------------------------------------------------------------------*/
FoamFile
{
    version     2.0;
    format      ascii;
    class       volScalarField;
    location    "8000";
    object      p;
}
// * * * * * * * * * * * * * * * * * * * * * * * * * * * * * * * * * * * * * //

dimensions      [0 2 -2 0 0 0 0];

internalField   nonuniform List<scalar> 
3060
(
-919.771
-923.932
-931.531
-942.177
-955.304
-970.249
-986.479
-1004.04
-1023.97
-1048.03
-1077.4
-1111.53
-1148.76
-1187.39
-1225.73
-1262.19
-1295.35
-1324.33
-1348.38
-1366.46
-1378.47
-1385.28
-1388.17
-1388.68
-1388.17
-1387.59
-1387.39
-1387.48
-1387.3
-1385.76
-1381.39
-1372.68
-1358.47
-1338.01
-1311.8
-1280.87
-1246
-1208.44
-1169.86
-1132.1
-1096.91
-1065.9
-1039.99
-1018.76
-1000.89
-985.097
-970.981
-958.833
-949.212
-942.654
-939.535
-940.039
-944.134
-951.584
-961.96
-974.703
-989.287
-1005.57
-1024.21
-1046.62
-1073.98
-1106.28
-1142.34
-1180.51
-1219.01
-1255.97
-1289.85
-1319.55
-1344.28
-1362.99
-1375.6
-1382.96
-1386.39
-1387.42
-1387.43
-1387.39
-1387.71
-1388.33
-1388.68
-1387.66
-1383.83
-1375.68
-1362.06
-1342.25
-1316.73
-1286.53
-1252.33
-1215.2
-1176.61
-1138.2
-1101.66
-1068.7
-1040.82
-1018.1
-998.983
-981.852
-965.948
-951.442
-938.939
-929.091
-922.416
-919.257
-984.485
-984.337
-984.056
-983.664
-983.304
-983.408
-984.957
-989.682
-999.771
-1016.7
-1040.02
-1067.62
-1097.3
-1127.39
-1156.38
-1183.05
-1207.86
-1232.18
-1254.77
-1272.49
-1284.35
-1291.44
-1295.05
-1296.49
-1296.82
-1296.72
-1296.5
-1296.1
-1295.13
-1292.78
-1287.92
-1279.19
-1265.38
-1245.69
-1222.06
-1197.4
-1171.98
-1144.5
-1115.34
-1086
-1058.16
-1033.77
-1014.84
-1002.47
-995.983
-993.467
-993.013
-993.362
-993.869
-994.265
-994.46
-994.428
-994.172
-993.73
-993.227
-993.012
-993.877
-997.277
-1005.23
-1019.42
-1040.04
-1065.6
-1094.03
-1123.49
-1152.32
-1179.16
-1204.23
-1228.78
-1251.66
-1269.77
-1282.06
-1289.57
-1293.61
-1295.48
-1296.23
-1296.55
-1296.75
-1296.78
-1296.23
-1294.3
-1289.86
-1281.57
-1268.18
-1248.85
-1225.47
-1201.05
-1175.88
-1148.52
-1119.08
-1088.95
-1059.66
-1033
-1011.29
-996.319
-987.93
-984.301
-983.293
-983.388
-983.782
-984.149
-984.393
-984.504
-945.861
-946.448
-947.611
-949.487
-952.318
-956.483
-962.513
-971.043
-982.62
-997.369
-1014.71
-1033.6
-1053.2
-1073.14
-1093.58
-1115.1
-1138
-1160.25
-1178.45
-1192.14
-1202.39
-1208.48
-1210.91
-1211.37
-1211.1
-1210.75
-1210.61
-1210.63
-1210.44
-1209.27
-1205.71
-1198.18
-1186.79
-1171.87
-1152.4
-1129.96
-1108
-1087.61
-1068.17
-1049.19
-1030.75
-1013.44
-998.187
-985.742
-976.301
-969.521
-964.832
-961.684
-959.654
-958.457
-957.933
-958.015
-958.714
-960.119
-962.423
-965.947
-971.154
-978.616
-988.871
-1002.14
-1018.06
-1035.77
-1054.4
-1073.48
-1093.11
-1113.89
-1136.23
-1158.21
-1176.41
-1190.24
-1200.7
-1207.02
-1209.74
-1210.53
-1210.6
-1210.61
-1210.82
-1211.19
-1211.34
-1210.49
-1207.21
-1199.89
-1188.69
-1173.89
-1154.35
-1131.56
-1108.97
-1087.83
-1067.57
-1047.71
-1028.26
-1009.69
-992.972
-979.08
-968.389
-960.618
-955.167
-951.419
-948.885
-947.225
-946.231
-945.791
-889.008
-890.001
-891.918
-894.869
-899.045
-904.723
-912.254
-921.98
-934.041
-948.161
-963.633
-979.64
-995.683
-1011.61
-1027.52
-1043.71
-1060.58
-1077.59
-1093.56
-1107.95
-1118.11
-1123.95
-1126.27
-1125.95
-1124.97
-1124.31
-1124.26
-1124.8
-1125.5
-1125.2
-1121.86
-1115.11
-1103.85
-1089.29
-1073.43
-1056.75
-1040.51
-1024.89
-1009.48
-994.055
-978.605
-963.435
-949.195
-936.626
-926.224
-918.057
-911.893
-907.409
-904.314
-902.396
-901.532
-901.669
-902.815
-905.041
-908.494
-913.41
-920.094
-928.864
-939.89
-952.989
-967.564
-982.862
-998.32
-1013.73
-1029.16
-1044.92
-1061.35
-1077.94
-1093.46
-1107.42
-1117.34
-1123.13
-1125.48
-1125.32
-1124.59
-1124.19
-1124.42
-1125.22
-1126.15
-1125.98
-1122.64
-1115.8
-1104.24
-1089.23
-1072.93
-1055.82
-1039.16
-1023.08
-1007.19
-991.237
-975.176
-959.251
-944.066
-930.463
-919.045
-909.956
-902.977
-897.749
-893.937
-891.289
-889.636
-888.888
-842.759
-843.776
-845.726
-848.687
-852.785
-858.188
-865.092
-873.673
-884
-895.939
-909.121
-923.063
-937.339
-951.628
-965.687
-979.284
-992.227
-1004.52
-1016.5
-1027.91
-1036.35
-1041.25
-1042.23
-1040.77
-1038.96
-1037.95
-1038.01
-1039.11
-1040.91
-1042.03
-1040.36
-1034.95
-1025.97
-1014.45
-1002.56
-990.175
-977.132
-963.576
-949.738
-935.849
-922.171
-909.064
-896.969
-886.296
-877.291
-869.988
-864.273
-859.976
-856.933
-855.017
-854.146
-854.285
-855.438
-857.654
-861.027
-865.698
-871.836
-879.601
-889.079
-900.178
-912.599
-925.905
-939.672
-953.57
-967.35
-980.787
-993.653
-1005.87
-1017.7
-1028.8
-1036.77
-1041.19
-1041.89
-1040.38
-1038.69
-1037.86
-1038.12
-1039.4
-1041.28
-1042.29
-1040.26
-1034.36
-1024.94
-1013.16
-1001.15
-988.699
-975.562
-961.814
-947.67
-933.358
-919.14
-905.362
-892.477
-880.959
-871.114
-863.013
-856.546
-851.524
-847.757
-845.087
-843.403
-842.636
-800.261
-801.337
-803.381
-806.442
-810.593
-815.926
-822.532
-830.47
-839.722
-850.138
-861.442
-873.297
-885.392
-897.476
-909.347
-920.808
-931.614
-941.4
-949.735
-956.375
-961.336
-963.185
-961.38
-957.212
-953.349
-951.712
-951.895
-954.029
-958.424
-962.582
-964.068
-961.572
-956.168
-949.018
-940.241
-930.167
-919.25
-907.829
-896.135
-884.361
-872.727
-861.507
-851.02
-841.568
-833.365
-826.498
-820.958
-816.679
-813.586
-811.609
-810.703
-810.847
-812.045
-814.324
-817.736
-822.355
-828.256
-835.494
-844.056
-853.82
-864.542
-875.907
-887.603
-899.374
-911.011
-922.318
-933.042
-942.802
-951.155
-957.818
-962.64
-964.015
-961.604
-957.054
-953.181
-951.653
-951.953
-954.187
-958.483
-962.17
-963.048
-960.165
-954.695
-947.574
-938.805
-928.691
-917.673
-906.077
-894.129
-882.021
-869.966
-858.231
-847.14
-837.025
-828.13
-820.564
-814.321
-809.326
-805.486
-802.713
-800.942
-800.131
-761.281
-762.358
-764.392
-767.402
-771.417
-776.469
-782.582
-789.75
-797.914
-806.936
-816.603
-826.663
-836.869
-846.997
-856.844
-866.209
-874.867
-882.541
-888.878
-893.402
-895.455
-893.666
-887.358
-878.611
-871.114
-867.696
-868.17
-872.844
-881.398
-890.476
-896.039
-896.708
-893.832
-888.695
-881.921
-873.947
-865.121
-855.712
-845.943
-836.016
-826.143
-816.559
-807.514
-799.241
-791.919
-785.652
-780.482
-776.409
-773.416
-771.481
-770.589
-770.731
-771.91
-774.134
-777.422
-781.795
-787.269
-793.834
-801.432
-809.939
-819.158
-828.845
-838.755
-848.658
-858.347
-867.618
-876.238
-883.917
-890.29
-894.869
-896.951
-894.981
-888.144
-878.801
-871.037
-867.658
-868.189
-872.864
-881.036
-889.488
-894.613
-895.181
-892.352
-887.266
-880.52
-872.541
-863.662
-854.143
-844.199
-834.029
-823.841
-813.865
-804.353
-795.551
-787.654
-780.776
-774.959
-770.198
-766.466
-763.73
-761.964
-761.15
-724.602
-725.66
-727.644
-730.551
-734.374
-739.102
-744.709
-751.146
-758.327
-766.119
-774.346
-782.805
-791.293
-799.618
-807.592
-815.025
-821.7
-827.365
-831.71
-834.324
-834.625
-831.343
-822.219
-808.653
-796.545
-790.4
-791.399
-799.618
-813.238
-826.581
-834.203
-836.277
-835.182
-831.96
-827.157
-821.153
-814.253
-806.705
-798.719
-790.491
-782.212
-774.083
-766.312
-759.09
-752.582
-746.902
-742.128
-738.304
-735.456
-733.598
-732.736
-732.873
-734.01
-736.142
-739.261
-743.349
-748.378
-754.296
-761.014
-768.405
-776.296
-784.486
-792.77
-800.95
-808.834
-816.225
-822.903
-828.607
-833.017
-835.711
-836.082
-832.758
-823.296
-809.173
-796.635
-790.381
-791.38
-799.412
-812.536
-825.356
-832.726
-834.809
-833.791
-830.647
-825.902
-819.929
-813.02
-805.418
-797.328
-788.94
-780.44
-772.026
-763.901
-756.263
-749.277
-743.064
-737.698
-733.22
-729.651
-727
-725.273
-724.473
-689.348
-690.37
-692.275
-695.042
-698.636
-703.014
-708.117
-713.865
-720.156
-726.857
-733.813
-740.852
-747.803
-754.498
-760.772
-766.45
-771.343
-775.228
-777.827
-778.776
-777.561
-773.301
-764.041
-748.919
-733.555
-725.11
-726.608
-737.759
-754.337
-768.494
-776.232
-779.457
-779.914
-778.366
-775.295
-771.044
-765.879
-760.017
-753.649
-746.951
-740.094
-733.254
-726.61
-720.333
-714.574
-709.461
-705.093
-701.544
-698.87
-697.11
-696.29
-696.421
-697.502
-699.516
-702.436
-706.217
-710.799
-716.1
-722.015
-728.41
-735.125
-741.987
-748.817
-755.441
-761.687
-767.375
-772.311
-776.264
-778.953
-780.001
-778.877
-774.645
-765.192
-749.633
-733.833
-725.141
-726.503
-737.353
-753.471
-767.237
-774.859
-778.141
-778.694
-777.243
-774.257
-770.068
-764.937
-759.076
-752.669
-745.887
-738.894
-731.861
-724.96
-718.358
-712.207
-706.629
-701.721
-697.556
-694.188
-691.658
-689.996
-689.223
-654.91
-655.882
-657.686
-660.285
-663.626
-667.641
-672.248
-677.347
-682.824
-688.548
-694.375
-700.155
-705.738
-710.978
-715.731
-719.846
-723.163
-725.496
-726.619
-726.232
-723.92
-719.055
-710.474
-697.064
-682.154
-673.167
-674.87
-686.518
-702.096
-714.466
-721.886
-725.883
-727.502
-727.321
-725.731
-723.011
-719.381
-715.023
-710.1
-704.767
-699.175
-693.482
-687.844
-682.421
-677.357
-672.786
-668.823
-665.562
-663.08
-661.435
-660.665
-660.789
-661.802
-663.682
-666.385
-669.847
-673.988
-678.707
-683.883
-689.381
-695.049
-700.73
-706.265
-711.5
-716.283
-720.456
-723.853
-726.284
-727.516
-727.243
-725.035
-720.23
-711.567
-697.848
-682.553
-673.249
-674.692
-686
-701.192
-713.309
-720.699
-724.773
-726.502
-726.434
-724.951
-722.325
-718.77
-714.463
-709.56
-704.21
-698.558
-692.75
-686.937
-681.269
-675.884
-670.912
-666.461
-662.626
-659.485
-657.102
-655.527
-654.791
-620.885
-621.796
-623.478
-625.885
-628.95
-632.589
-636.704
-641.183
-645.905
-650.74
-655.552
-660.208
-664.573
-668.521
-671.929
-674.672
-676.621
-677.633
-677.538
-676.121
-673.092
-668.053
-660.416
-649.684
-637.745
-630.136
-631.665
-641.434
-653.775
-663.81
-670.638
-674.98
-677.408
-678.305
-677.947
-676.537
-674.244
-671.209
-667.565
-663.446
-658.985
-654.319
-649.593
-644.953
-640.542
-636.496
-632.938
-629.977
-627.703
-626.186
-625.474
-625.588
-626.525
-628.256
-630.727
-633.862
-637.566
-641.725
-646.212
-650.89
-655.613
-660.237
-664.617
-668.617
-672.106
-674.949
-677.013
-678.149
-678.183
-676.894
-673.98
-669.019
-661.365
-650.444
-638.186
-630.241
-631.458
-640.887
-652.93
-662.827
-669.671
-674.104
-676.652
-677.678
-677.447
-676.16
-673.977
-671.038
-667.468
-663.391
-658.933
-654.221
-649.389
-644.572
-639.905
-635.516
-631.524
-628.035
-625.146
-622.934
-621.463
-620.774
-587.043
-587.879
-589.418
-591.607
-594.369
-597.612
-601.228
-605.1
-609.103
-613.111
-616.996
-620.635
-623.909
-626.71
-628.932
-630.478
-631.254
-631.158
-630.079
-627.886
-624.415
-619.474
-612.853
-604.545
-595.84
-590.297
-591.467
-598.626
-607.697
-615.645
-621.736
-626.145
-629.113
-630.84
-631.487
-631.184
-630.043
-628.166
-625.655
-622.62
-619.177
-615.447
-611.562
-607.659
-603.877
-600.35
-597.207
-594.561
-592.513
-591.139
-590.492
-590.595
-591.446
-593.012
-595.234
-598.027
-601.288
-604.898
-608.726
-612.637
-616.492
-620.156
-623.498
-626.398
-628.744
-630.428
-631.348
-631.4
-630.468
-628.415
-625.071
-620.221
-613.622
-605.209
-596.261
-590.404
-591.262
-598.117
-606.977
-614.859
-620.995
-625.508
-628.606
-630.476
-631.27
-631.114
-630.115
-628.372
-625.979
-623.037
-619.65
-615.932
-612
-607.981
-604.002
-600.189
-596.666
-593.547
-590.936
-588.921
-587.574
-586.94
-553.275
-554.023
-555.395
-557.334
-559.76
-562.577
-565.674
-568.934
-572.234
-575.452
-578.468
-581.17
-583.454
-585.226
-586.4
-586.905
-586.676
-585.655
-583.785
-581.01
-577.278
-572.553
-566.863
-560.45
-554.273
-550.498
-551.327
-556.282
-562.832
-569.114
-574.48
-578.814
-582.135
-584.498
-585.964
-586.592
-586.442
-585.581
-584.079
-582.025
-579.513
-576.655
-573.567
-570.378
-567.219
-564.221
-561.511
-559.205
-557.405
-556.191
-555.617
-555.709
-556.463
-557.845
-559.793
-562.221
-565.022
-568.077
-571.257
-574.431
-577.467
-580.241
-582.636
-584.546
-585.879
-586.55
-586.491
-585.638
-583.93
-581.308
-577.711
-573.091
-567.449
-560.987
-554.634
-550.595
-551.146
-555.853
-562.261
-568.523
-573.956
-578.404
-581.866
-584.385
-586.014
-586.809
-586.828
-586.131
-584.783
-582.861
-580.452
-577.652
-574.568
-571.316
-568.015
-564.789
-561.758
-559.04
-556.741
-554.953
-553.75
-553.183
-519.566
-520.21
-521.387
-523.04
-525.089
-527.44
-529.984
-532.609
-535.198
-537.637
-539.817
-541.637
-543.004
-543.839
-544.077
-543.666
-542.574
-540.777
-538.266
-535.049
-531.159
-526.671
-521.746
-516.718
-512.293
-509.75
-510.323
-513.725
-518.51
-523.546
-528.291
-532.501
-536.06
-538.918
-541.055
-542.471
-543.184
-543.222
-542.633
-541.48
-539.843
-537.817
-535.507
-533.03
-530.507
-528.063
-525.818
-523.885
-522.361
-521.327
-520.836
-520.915
-521.559
-522.735
-524.38
-526.409
-528.721
-531.198
-533.72
-536.162
-538.405
-540.333
-541.845
-542.85
-543.271
-543.049
-542.145
-540.531
-538.194
-535.139
-531.393
-527.019
-522.161
-517.12
-512.577
-509.83
-510.177
-513.392
-518.087
-523.135
-527.962
-532.296
-536.004
-539.027
-541.341
-542.941
-543.841
-544.067
-543.658
-542.668
-541.167
-539.238
-536.976
-534.484
-531.874
-529.26
-526.759
-524.483
-522.535
-521.008
-519.975
-519.486
-485.965
-486.488
-487.44
-488.764
-490.387
-492.22
-494.163
-496.113
-497.965
-499.615
-500.967
-501.931
-502.428
-502.394
-501.778
-500.552
-498.704
-496.245
-493.204
-489.64
-485.645
-481.364
-477.022
-472.96
-469.684
-467.924
-468.321
-470.711
-474.318
-478.466
-482.727
-486.817
-490.55
-493.805
-496.504
-498.602
-500.077
-500.93
-501.183
-500.88
-500.085
-498.877
-497.349
-495.604
-493.75
-491.9
-490.162
-488.642
-487.429
-486.599
-486.203
-486.267
-486.786
-487.728
-489.033
-490.623
-492.402
-494.264
-496.099
-497.794
-499.243
-500.345
-501.012
-501.167
-500.751
-499.727
-498.079
-495.812
-492.953
-489.557
-485.711
-481.551
-477.289
-473.239
-469.89
-467.984
-468.212
-470.472
-474.029
-478.211
-482.564
-486.784
-490.671
-494.098
-496.982
-499.273
-500.948
-502.003
-502.455
-502.336
-501.701
-500.621
-499.178
-497.461
-495.572
-493.614
-491.692
-489.909
-488.361
-487.134
-486.297
-485.9
-452.573
-452.957
-453.648
-454.597
-455.737
-456.991
-458.273
-459.493
-460.563
-461.393
-461.902
-462.014
-461.663
-460.798
-459.386
-457.414
-454.893
-451.856
-448.365
-444.512
-440.431
-436.307
-432.383
-428.966
-426.413
-425.123
-425.405
-427.169
-430.018
-433.561
-437.471
-441.474
-445.352
-448.942
-452.129
-454.83
-456.997
-458.606
-459.658
-460.179
-460.218
-459.838
-459.118
-458.143
-457.006
-455.803
-454.627
-453.568
-452.707
-452.109
-451.822
-451.868
-452.244
-452.92
-453.843
-454.943
-456.135
-457.329
-458.431
-459.344
-459.978
-460.249
-460.083
-459.419
-458.214
-456.451
-454.132
-451.291
-447.983
-444.299
-440.369
-436.367
-432.529
-429.143
-426.552
-425.165
-425.331
-427.01
-429.841
-433.431
-437.439
-441.573
-445.606
-449.369
-452.742
-455.641
-458.012
-459.829
-461.088
-461.805
-462.021
-461.792
-461.186
-460.281
-459.161
-457.915
-456.633
-455.403
-454.309
-453.426
-452.817
-452.525
-419.532
-419.755
-420.147
-420.668
-421.263
-421.87
-422.421
-422.846
-423.074
-423.037
-422.669
-421.91
-420.71
-419.03
-416.853
-414.18
-411.038
-407.481
-403.589
-399.482
-395.314
-391.286
-387.639
-384.633
-382.515
-381.495
-381.704
-383.095
-385.48
-388.635
-392.317
-396.278
-400.296
-404.19
-407.817
-411.073
-413.888
-416.219
-418.053
-419.397
-420.284
-420.762
-420.892
-420.741
-420.382
-419.889
-419.337
-418.796
-418.332
-417.998
-417.834
-417.86
-418.074
-418.449
-418.94
-419.491
-420.034
-420.497
-420.806
-420.886
-420.666
-420.08
-419.071
-417.594
-415.623
-413.156
-410.213
-406.846
-403.134
-399.19
-395.167
-391.26
-387.699
-384.733
-382.602
-381.522
-381.657
-383
-385.387
-388.596
-392.374
-396.463
-400.631
-404.693
-408.502
-411.951
-414.966
-417.503
-419.542
-421.085
-422.158
-422.803
-423.073
-423.03
-422.74
-422.273
-421.701
-421.091
-420.511
-420.022
-419.674
-419.504
-387.018
-387.057
-387.111
-387.148
-387.132
-387.018
-386.763
-386.318
-385.636
-384.671
-383.376
-381.709
-379.636
-377.134
-374.198
-370.844
-367.109
-363.061
-358.795
-354.443
-350.172
-346.183
-342.698
-339.934
-338.062
-337.187
-337.353
-338.537
-340.657
-343.586
-347.145
-351.117
-355.29
-359.477
-363.524
-367.314
-370.76
-373.807
-376.427
-378.614
-380.384
-381.767
-382.805
-383.543
-384.031
-384.319
-384.459
-384.497
-384.478
-384.443
-384.419
-384.423
-384.453
-384.487
-384.494
-384.433
-384.257
-383.918
-383.366
-382.55
-381.421
-379.935
-378.052
-375.747
-373.007
-369.846
-366.298
-362.427
-358.328
-354.128
-349.99
-346.111
-342.706
-339.984
-338.113
-337.204
-337.327
-338.485
-340.618
-343.601
-347.247
-351.336
-355.648
-359.991
-364.207
-368.177
-371.811
-375.052
-377.868
-380.249
-382.206
-383.766
-384.966
-385.848
-386.459
-386.847
-387.059
-387.142
-387.14
-387.095
-387.043
-387.012
-355.241
-355.075
-354.749
-354.248
-353.553
-352.645
-351.503
-350.108
-348.439
-346.472
-344.186
-341.558
-338.572
-335.219
-331.509
-327.467
-323.142
-318.609
-313.973
-309.372
-304.971
-300.965
-297.553
-294.913
-293.165
-292.36
-292.505
-293.587
-295.577
-298.402
-301.924
-305.96
-310.315
-314.807
-319.277
-323.602
-327.688
-331.468
-334.902
-337.971
-340.675
-343.025
-345.04
-346.743
-348.155
-349.301
-350.202
-350.881
-351.359
-351.656
-351.789
-351.768
-351.592
-351.247
-350.716
-349.978
-349.011
-347.794
-346.304
-344.517
-342.412
-339.965
-337.161
-333.99
-330.458
-326.588
-322.429
-318.053
-313.563
-309.093
-304.806
-300.893
-297.547
-294.942
-293.198
-292.374
-292.49
-293.558
-295.561
-298.43
-302.026
-306.161
-310.635
-315.261
-319.88
-324.364
-328.616
-332.57
-336.182
-339.433
-342.319
-344.85
-347.046
-348.928
-350.519
-351.842
-352.917
-353.765
-354.404
-354.855
-355.135
-355.261
-324.442
-324.049
-323.307
-322.215
-320.778
-319.001
-316.894
-314.467
-311.727
-308.679
-305.327
-301.671
-297.714
-293.464
-288.944
-284.188
-279.255
-274.224
-269.204
-264.333
-259.772
-255.699
-252.29
-249.691
-247.991
-247.214
-247.353
-248.401
-250.353
-253.16
-256.718
-260.871
-265.445
-270.266
-275.182
-280.067
-284.82
-289.37
-293.666
-297.674
-301.377
-304.767
-307.839
-310.586
-313.003
-315.083
-316.816
-318.197
-319.219
-319.882
-320.188
-320.139
-319.736
-318.974
-317.853
-316.375
-314.545
-312.372
-309.863
-307.025
-303.866
-300.388
-296.599
-292.509
-288.139
-283.528
-278.73
-273.826
-268.922
-264.153
-259.677
-255.671
-252.307
-249.729
-248.025
-247.228
-247.341
-248.373
-250.327
-253.162
-256.771
-260.997
-265.661
-270.588
-275.623
-280.636
-285.526
-290.221
-294.669
-298.839
-302.713
-306.285
-309.553
-312.516
-315.17
-317.51
-319.526
-321.21
-322.552
-323.547
-324.192
-324.49
-294.888
-294.249
-293.057
-291.329
-289.092
-286.381
-283.235
-279.696
-275.804
-271.594
-267.096
-262.337
-257.341
-252.134
-246.752
-241.24
-235.662
-230.102
-224.67
-219.499
-214.741
-210.556
-207.096
-204.483
-202.782
-202.009
-202.154
-203.213
-205.186
-208.042
-211.696
-216.017
-220.852
-226.042
-231.442
-236.926
-242.394
-247.767
-252.985
-258.001
-262.78
-267.29
-271.498
-275.371
-278.871
-281.956
-284.587
-286.723
-288.332
-289.39
-289.883
-289.804
-289.155
-287.944
-286.187
-283.911
-281.151
-277.948
-274.341
-270.372
-266.078
-261.491
-256.643
-251.566
-246.301
-240.895
-235.414
-229.941
-224.586
-219.479
-214.77
-210.618
-207.174
-204.556
-202.834
-202.029
-202.137
-203.165
-205.122
-207.979
-211.653
-216.012
-220.901
-226.158
-231.637
-237.211
-242.778
-248.259
-253.597
-258.748
-263.681
-268.37
-272.792
-276.917
-280.715
-284.149
-287.178
-289.762
-291.861
-293.442
-294.482
-294.966
-266.865
-265.967
-264.301
-261.9
-258.819
-255.12
-250.875
-246.158
-241.042
-235.593
-229.873
-223.935
-217.826
-211.594
-205.288
-198.964
-192.692
-186.56
-180.676
-175.165
-170.169
-165.828
-162.274
-159.604
-157.873
-157.091
-157.25
-158.348
-160.388
-163.343
-167.146
-171.686
-176.831
-182.438
-188.371
-194.51
-200.752
-207.013
-213.223
-219.322
-225.253
-230.96
-236.382
-241.454
-246.103
-250.254
-253.834
-256.769
-258.999
-260.475
-261.165
-261.055
-260.147
-258.459
-256.03
-252.91
-249.166
-244.87
-240.098
-234.923
-229.417
-223.642
-217.659
-211.523
-205.293
-199.03
-192.807
-186.714
-180.858
-175.364
-170.372
-166.023
-162.445
-159.738
-157.958
-157.12
-157.22
-158.264
-160.258
-163.18
-166.963
-171.499
-176.652
-182.279
-188.244
-194.424
-200.718
-207.043
-213.333
-219.536
-225.602
-231.485
-237.136
-242.498
-247.511
-252.104
-256.205
-259.74
-262.638
-264.839
-266.295
-266.975
-240.679
-239.515
-237.36
-234.267
-230.315
-225.596
-220.212
-214.271
-207.877
-201.131
-194.125
-186.94
-179.652
-172.327
-165.032
-157.834
-150.811
-144.053
-137.666
-131.768
-126.485
-121.943
-118.251
-115.49
-113.703
-112.903
-113.084
-114.245
-116.386
-119.487
-123.49
-128.305
-133.816
-139.897
-146.423
-153.279
-160.361
-167.578
-174.851
-182.103
-189.256
-196.226
-202.923
-209.246
-215.092
-220.35
-224.911
-228.673
-231.543
-233.449
-234.342
-234.199
-233.024
-230.846
-227.723
-223.732
-218.968
-213.538
-207.55
-201.114
-194.333
-187.304
-180.116
-172.851
-165.585
-158.396
-151.367
-144.591
-138.175
-132.239
-126.908
-122.307
-118.545
-115.706
-113.835
-112.945
-113.035
-114.108
-116.166
-119.191
-123.128
-127.887
-133.352
-139.398
-145.9
-152.741
-159.821
-167.052
-174.362
-181.683
-188.95
-196.093
-203.036
-209.694
-215.972
-221.769
-226.979
-231.495
-235.217
-238.056
-239.94
-240.822
-216.636
-215.206
-212.563
-208.78
-203.957
-198.214
-191.685
-184.506
-176.815
-168.743
-160.414
-151.94
-143.421
-134.95
-126.609
-118.478
-110.645
-103.202
-96.2537
-89.9105
-84.2863
-79.4894
-75.6122
-72.7223
-70.8579
-70.0309
-70.2396
-71.4844
-73.7633
-77.0563
-81.3155
-86.4647
-92.4049
-99.0247
-106.209
-113.846
-121.832
-130.068
-138.462
-146.921
-155.342
-163.614
-171.615
-179.214
-186.272
-192.645
-198.193
-202.781
-206.291
-208.628
-209.724
-209.548
-208.106
-205.438
-201.621
-196.756
-190.967
-184.392
-177.172
-169.449
-161.361
-153.037
-144.595
-136.144
-127.784
-119.607
-111.708
-104.184
-97.1445
-90.7008
-84.9682
-80.0558
-76.0571
-73.0409
-71.047
-70.0889
-70.1662
-71.2803
-73.4307
-76.599
-80.7387
-85.7747
-91.6091
-98.1314
-105.228
-112.789
-120.713
-128.911
-137.296
-145.789
-154.305
-162.75
-171.019
-178.997
-186.56
-193.572
-199.897
-205.396
-209.941
-213.416
-215.728
-216.811
-195.085
-193.4
-190.288
-185.84
-180.177
-173.443
-165.798
-157.409
-148.441
-139.056
-129.407
-119.632
-109.863
-100.213
-90.7847
-81.6733
-72.9744
-64.787
-57.2139
-50.3602
-44.3292
-39.2159
-35.1
-32.0399
-30.0708
-29.2069
-29.4503
-30.8014
-33.2556
-36.7926
-41.3698
-46.9212
-53.3606
-60.5877
-68.4956
-76.9751
-85.9186
-95.2198
-104.771
-114.463
-124.166
-133.742
-143.039
-151.895
-160.139
-167.599
-174.104
-179.492
-183.62
-186.371
-187.663
-187.456
-185.756
-182.616
-178.128
-172.418
-165.634
-157.941
-149.512
-140.518
-131.129
-121.504
-111.791
-102.127
-92.6333
-83.4199
-74.5935
-66.2607
-58.5298
-51.5096
-45.3059
-40.0157
-35.7204
-32.4794
-30.3291
-29.2842
-29.347
-30.5172
-32.7905
-36.1473
-40.5461
-45.9223
-52.1912
-59.2547
-67.0086
-75.3481
-84.1713
-93.3805
-102.88
-112.574
-122.357
-132.11
-141.701
-150.985
-159.808
-168.007
-175.415
-181.867
-187.206
-191.293
-194.015
-195.293
-176.23
-174.313
-170.776
-165.723
-159.294
-151.654
-142.986
-133.479
-123.325
-112.709
-101.811
-90.7955
-79.817
-69.015
-58.5091
-48.4106
-38.8268
-29.8631
-21.6239
-14.2109
-7.72066
-2.23949
2.16073
5.42632
7.52255
8.43192
8.14861
6.67264
4.01183
0.188241
-4.7575
-10.765
-17.7557
-25.6368
-34.3056
-43.6531
-53.5665
-63.929
-74.6182
-85.5035
-96.4347
-107.246
-117.759
-127.785
-137.127
-145.586
-152.967
-159.084
-163.774
-166.902
-168.372
-168.136
-166.202
-162.633
-157.535
-151.053
-143.357
-134.635
-125.086
-114.907
-104.293
-93.4324
-82.4986
-71.6537
-61.0418
-50.7911
-41.0222
-31.8508
-23.3887
-15.7436
-9.0157
-3.29443
1.34639
4.85177
7.18643
8.33292
8.28618
7.04746
4.62514
1.04119
-3.66453
-9.43308
-16.1881
-23.8401
-32.2906
-41.4369
-51.1745
-61.3974
-71.9976
-82.8618
-93.8648
-104.863
-115.7
-126.205
-136.198
-145.491
-153.892
-161.212
-167.274
-171.918
-175.013
-176.466
-160.108
-158.001
-154.113
-148.561
-141.498
-133.107
-123.585
-113.14
-101.982
-90.3178
-78.3436
-66.2466
-54.2006
-42.3653
-30.878
-19.8663
-9.44952
0.258653
9.15014
17.1231
24.0838
29.9497
34.652
38.1378
40.3707
41.3291
41.004
39.3959
36.5162
32.3902
27.0595
20.5832
13.0369
4.51078
-4.89311
-15.063
-25.8789
-37.2124
-48.9256
-60.8694
-72.8735
-84.7512
-96.3032
-107.319
-117.583
-126.876
-134.985
-141.706
-146.861
-150.3
-151.916
-151.657
-149.53
-145.606
-140.004
-132.882
-124.426
-114.845
-104.352
-93.1675
-81.5059
-69.5746
-57.5698
-45.674
-34.0512
-22.8472
-12.1972
-2.22708
6.94521
15.2104
22.4696
28.6362
33.639
37.4239
39.9538
41.2077
41.1774
39.8649
37.2825
33.4555
28.425
22.2483
14.9983
6.76095
-2.36759
-12.2836
-22.8774
-34.0339
-45.6315
-57.5405
-69.617
-81.6974
-93.6043
-105.148
-116.128
-126.337
-135.565
-143.606
-150.265
-155.368
-158.77
-160.368
-152.232
-149.888
-145.564
-139.388
-131.53
-122.188
-111.582
-99.9387
-87.4909
-74.4658
-61.0832
-47.5522
-34.0694
-20.8173
-7.95753
4.36041
15.9981
26.8268
36.7276
45.5908
53.3181
59.8232
65.0342
68.8942
71.3619
72.411
72.0289
70.2171
66.9911
62.3814
56.4343
49.2132
40.7976
31.2829
20.7784
9.40636
-2.69856
-15.3893
-28.5056
-41.8734
-55.2984
-68.5705
-81.4667
-93.7539
-105.193
-115.542
-124.567
-132.046
-137.779
-141.604
-143.402
-143.113
-140.748
-136.384
-130.152
-122.226
-112.814
-102.141
-90.4444
-77.9662
-64.9441
-51.6087
-38.1796
-24.8633
-11.848
0.696232
12.6128
23.7581
34.0008
43.2221
51.3165
58.1928
63.7758
68.0069
70.844
72.2613
72.2469
70.8034
67.947
63.7081
58.1324
51.2809
43.2296
34.0684
23.8988
12.8332
0.993246
-11.4898
-24.4744
-37.8079
-51.3227
-64.8323
-78.1367
-91.0235
-103.27
-114.648
-124.925
-133.875
-141.284
-146.96
-150.744
-152.521
-112.472
-110.626
-107.224
-102.368
-96.1916
-88.8528
-80.5229
-71.3803
-61.6055
-51.3757
-40.8619
-30.2268
-19.6236
-9.19534
0.927706
10.6252
19.7863
28.309
36.0996
43.0726
49.1514
54.2691
58.3693
61.4067
63.3475
64.1691
63.8601
62.4221
59.8692
56.227
51.5333
45.838
39.2035
31.704
23.425
14.4625
4.92297
-5.07617
-15.4064
-25.9276
-36.4871
-46.9211
-57.0562
-66.711
-75.699
-83.8323
-90.9267
-96.808
-101.319
-104.331
-105.747
-105.52
-103.657
-100.221
-95.3181
-89.0862
-81.6878
-73.3006
-64.1103
-54.305
-44.0701
-33.5849
-23.0204
-12.5377
-2.28574
7.59855
16.9898
25.7736
33.8463
41.1148
47.4967
52.9209
57.3284
60.6726
62.9192
64.0458
64.0415
62.9085
60.6614
57.3258
52.9388
47.5487
41.215
34.0073
26.0047
17.2951
7.97447
-1.85279
-12.0732
-22.5637
-33.1905
-43.8074
-54.2588
-64.3795
-73.9963
-82.9308
-91.0026
-98.0345
-103.858
-108.322
-111.3
-112.699
-246.384
-241.842
-233.455
-221.461
-206.178
-187.98
-167.281
-144.515
-120.124
-94.5452
-68.2008
-41.4951
-14.8091
11.4983
37.0801
61.6143
84.806
106.386
126.112
143.763
159.147
172.095
182.464
190.14
195.037
197.095
196.286
192.616
186.121
176.87
164.961
150.521
133.71
114.716
93.7581
71.0849
46.9752
21.7385
-4.28494
-30.7249
-57.1967
-83.2942
-108.589
-132.635
-154.974
-175.147
-192.708
-207.236
-218.36
-225.772
-229.254
-228.695
-224.115
-215.654
-203.558
-188.155
-169.831
-149.016
-126.161
-101.727
-76.167
-49.9251
-23.4232
2.9387
28.7792
53.7361
77.4777
99.7028
120.141
138.552
154.726
168.48
179.666
188.164
193.882
196.763
196.777
193.929
188.256
179.824
168.728
155.09
139.06
120.813
100.551
78.4981
54.9062
30.051
4.23503
-22.2123
-48.9409
-75.5857
-101.759
-127.051
-151.034
-173.268
-193.315
-210.742
-225.145
-236.164
-243.501
-246.943
)
;

boundaryField
{
    top
    {
        type            calculated;
        value           nonuniform List<scalar> 
102
(
-9.81
-9.81
-9.81
-9.81
-9.81
-9.81
-9.81
-9.81
-9.81
-9.81
-9.81
-9.81
-9.81
-9.81
-9.81
-9.81
-9.81
-9.81
-9.81
-9.81
-9.81
-9.81
-9.81
-9.81
-9.81
-9.81
-9.81
-9.81
-9.81
-9.81
-9.81
-9.81
-9.81
-9.81
-9.81
-9.81
-9.81
-9.81
-9.81
-9.81
-9.81
-9.81
-9.81
-9.81
-9.81
-9.81
-9.81
-9.81
-9.81
-9.81
-9.81
-9.81
-9.81
-9.81
-9.81
-9.81
-9.81
-9.81
-9.81
-9.81
-9.81
-9.81
-9.81
-9.81
-9.81
-9.81
-9.81
-9.81
-9.81
-9.81
-9.81
-9.81
-9.81
-9.81
-9.81
-9.81
-9.81
-9.81
-9.81
-9.81
-9.81
-9.81
-9.81
-9.81
-9.81
-9.81
-9.81
-9.81
-9.81
-9.81
-9.81
-9.81
-9.81
-9.81
-9.81
-9.81
-9.81
-9.81
-9.81
-9.81
-9.81
-9.81
)
;
    }
    bottom
    {
        type            calculated;
        value           nonuniform List<scalar> 
102
(
-957.898
-962.09
-969.745
-980.471
-993.698
-1008.76
-1025.12
-1042.81
-1062.89
-1087.08
-1116.58
-1150.84
-1188.19
-1226.95
-1265.43
-1302.02
-1335.32
-1364.43
-1388.63
-1406.84
-1418.98
-1425.92
-1428.92
-1429.51
-1429.06
-1428.52
-1428.31
-1428.36
-1428.11
-1426.48
-1422
-1413.17
-1398.82
-1378.22
-1351.87
-1320.79
-1285.78
-1248.09
-1209.37
-1171.48
-1136.16
-1105.02
-1078.97
-1057.61
-1039.61
-1023.7
-1009.47
-997.229
-987.536
-980.928
-977.785
-978.293
-982.419
-989.925
-1000.38
-1013.22
-1027.92
-1044.33
-1063.1
-1085.65
-1113.14
-1145.57
-1181.76
-1220.06
-1258.69
-1295.79
-1329.81
-1359.66
-1384.53
-1403.38
-1416.12
-1423.61
-1427.14
-1428.25
-1428.33
-1428.31
-1428.63
-1429.21
-1429.49
-1428.38
-1424.44
-1416.16
-1402.41
-1382.46
-1356.8
-1326.46
-1292.13
-1254.86
-1216.14
-1177.6
-1140.94
-1107.84
-1079.83
-1056.98
-1037.72
-1020.46
-1004.42
-989.806
-977.209
-967.287
-960.563
-957.38
)
;
    }
    frontAndBack
    {
        type            empty;
    }
    left_cyc
    {
        type            cyclic;
    }
    right_cyc
    {
        type            cyclic;
    }
}


// ************************************************************************* //
