/*--------------------------------*- C++ -*----------------------------------*\
| =========                 |                                                 |
| \\      /  F ield         | OpenFOAM: The Open Source CFD Toolbox           |
|  \\    /   O peration     | Version:  2.3.0                                 |
|   \\  /    A nd           | Web:      www.OpenFOAM.org                      |
|    \\/     M anipulation  |                                                 |
\*---------------------------------------------------------------------------*/
FoamFile
{
    version     2.0;
    format      ascii;
    class       volScalarField;
    location    "8000";
    object      p_rgh;
}
// * * * * * * * * * * * * * * * * * * * * * * * * * * * * * * * * * * * * * //

dimensions      [0 2 -2 0 0 0 0];

internalField   nonuniform List<scalar> 
3060
(
-38.8642
-41.9203
-47.6485
-56.0032
-66.9371
-80.4131
-96.4057
-114.887
-135.8
-159.02
-184.336
-211.426
-239.838
-268.966
-298.017
-326.035
-352.042
-375.136
-394.541
-409.851
-421.211
-429.063
-434.11
-437.107
-438.679
-439.219
-438.881
-437.587
-435.023
-430.635
-423.689
-413.437
-399.34
-381.124
-359.017
-333.714
-306.111
-277.218
-248.042
-219.458
-192.14
-166.597
-143.192
-122.171
-103.677
-87.7821
-74.5198
-63.914
-55.9964
-50.8062
-48.3804
-48.7414
-51.8854
-57.785
-66.4017
-77.6975
-91.6433
-108.215
-127.373
-149.029
-173.016
-199.059
-226.761
-255.57
-284.765
-313.424
-340.522
-365.078
-386.23
-403.375
-416.44
-425.77
-431.977
-435.827
-438.019
-439.045
-439.157
-438.373
-436.479
-433.018
-427.317
-418.613
-406.262
-389.882
-369.459
-345.527
-318.908
-290.526
-261.369
-232.359
-204.237
-177.57
-152.771
-130.134
-109.844
-92.0054
-76.6648
-63.847
-53.5796
-45.9034
-40.8663
-38.5114
-62.7454
-65.4292
-70.4802
-77.8957
-87.6784
-99.829
-114.333
-131.144
-150.164
-171.237
-194.135
-218.533
-243.967
-269.799
-295.299
-319.947
-343.544
-365.456
-384.438
-399.569
-410.937
-419.028
-424.487
-427.948
-429.896
-430.614
-430.2
-428.605
-425.609
-420.795
-413.562
-403.248
-389.309
-371.45
-350.284
-327.078
-302.713
-277.457
-251.719
-226.24
-201.717
-178.676
-157.486
-138.406
-121.612
-107.215
-95.2662
-85.7794
-78.7494
-74.1678
-72.0336
-72.351
-75.1187
-80.3332
-87.9981
-98.1219
-110.707
-125.732
-143.13
-162.777
-184.475
-207.941
-232.77
-258.391
-284.071
-309.11
-333.214
-356.007
-376.43
-393.286
-406.243
-415.697
-422.239
-426.531
-429.132
-430.408
-430.529
-429.508
-427.202
-423.277
-417.198
-408.315
-396.012
-379.85
-359.986
-337.529
-313.631
-288.744
-263.089
-237.29
-212.07
-188.023
-165.573
-145.014
-126.556
-110.337
-96.4415
-84.9061
-75.7393
-68.9388
-64.5029
-62.4361
-76.342
-79.1482
-84.3998
-92.0412
-101.989
-114.119
-128.266
-144.223
-161.77
-180.702
-200.842
-222.045
-244.196
-267.196
-290.865
-314.526
-336.943
-356.838
-373.688
-387.976
-399.669
-408.231
-414.127
-418.013
-420.313
-421.206
-420.719
-418.842
-415.456
-410.233
-402.576
-391.856
-378.316
-362.35
-343.467
-321.799
-298.487
-274.877
-251.861
-229.701
-208.504
-188.39
-169.513
-152.058
-136.242
-122.295
-110.429
-100.821
-93.5961
-88.8413
-86.6129
-86.9451
-89.8314
-95.2316
-103.083
-113.289
-125.712
-140.165
-156.427
-174.27
-193.484
-213.892
-235.348
-257.741
-280.945
-304.591
-327.618
-348.65
-366.734
-382.046
-394.932
-404.824
-411.784
-416.484
-419.456
-420.969
-421.097
-419.846
-417.16
-412.805
-406.284
-396.919
-384.485
-369.577
-351.96
-331.312
-308.433
-284.666
-261.141
-238.352
-216.438
-195.498
-175.657
-157.067
-139.912
-124.404
-110.763
-99.1855
-89.8277
-82.8011
-78.1809
-76.0176
-57.4722
-60.4353
-65.9604
-73.9633
-84.3269
-96.8933
-111.46
-127.785
-145.603
-164.656
-184.715
-205.602
-227.197
-249.425
-272.154
-294.893
-316.875
-337.607
-356.56
-372.402
-384.624
-394.235
-401.145
-405.756
-408.574
-409.719
-409.126
-406.837
-402.828
-396.744
-387.991
-376.719
-362.193
-344.164
-324.009
-302.48
-280.006
-257.336
-235.119
-213.552
-192.713
-172.722
-153.759
-136.06
-119.895
-105.542
-93.2549
-83.247
-75.6823
-70.6813
-68.3292
-68.6806
-71.7245
-77.3981
-85.6081
-96.2234
-109.067
-123.915
-140.504
-158.555
-177.805
-198.031
-219.066
-240.807
-263.167
-285.869
-308.163
-329.374
-349.088
-366.324
-379.888
-390.506
-398.549
-404.036
-407.581
-409.437
-409.577
-407.995
-404.735
-399.594
-391.976
-381.725
-368.657
-351.866
-332.359
-311.269
-289.02
-266.203
-243.586
-221.518
-200.1
-179.414
-159.597
-140.841
-123.385
-107.492
-93.4233
-81.4119
-71.6488
-64.2805
-59.4148
-57.1286
-27.0374
-30.0284
-35.5923
-43.6318
-54.021
-66.6045
-81.1992
-97.6009
-115.595
-134.968
-155.52
-177.06
-199.397
-222.305
-245.461
-268.351
-290.434
-311.664
-332.204
-350.894
-366.06
-377.317
-385.434
-391.152
-394.766
-396.291
-395.532
-392.607
-387.63
-380.388
-370.357
-356.62
-339.065
-318.971
-297.972
-276.189
-253.52
-230.438
-207.527
-185.166
-163.609
-143.065
-123.736
-105.833
-89.5781
-75.1964
-62.9
-52.878
-45.2897
-40.2625
-37.8927
-38.2473
-41.3121
-47.0122
-55.2436
-65.8706
-78.7259
-93.6133
-110.316
-128.61
-148.274
-169.1
-190.885
-213.417
-236.416
-259.454
-281.921
-303.472
-324.299
-343.931
-360.561
-373.273
-382.49
-389.118
-393.552
-395.938
-396.1
-394.014
-389.873
-383.565
-374.732
-362.503
-346.331
-326.964
-306.214
-284.791
-262.465
-239.446
-216.313
-193.526
-171.376
-150.074
-129.809
-110.774
-93.1732
-77.2207
-63.1298
-51.1003
-41.3084
-33.9018
-28.9989
-26.6897
5.12302
2.0194
-3.73899
-12.036
-22.7271
-35.6413
-50.5864
-67.3563
-85.7402
-105.533
-126.54
-148.579
-171.468
-195.001
-218.908
-242.86
-266.358
-288.937
-310.131
-329.454
-346.362
-359.386
-368.609
-374.949
-379.171
-381.083
-380.154
-376.685
-371.179
-363.122
-351.599
-335.952
-317.301
-296.645
-274.42
-251.147
-227.288
-203.369
-179.778
-156.819
-134.725
-113.693
-93.9204
-75.6105
-58.979
-44.2452
-31.6229
-21.3098
-13.48
-8.27885
-5.82099
-6.18931
-9.3659
-15.2591
-23.7464
-34.6747
-47.8631
-63.1089
-80.196
-98.9051
-119.023
-140.35
-162.689
-185.837
-209.553
-233.501
-257.255
-280.297
-302.171
-322.332
-340.371
-354.973
-365.493
-372.806
-377.781
-380.657
-380.838
-378.263
-373.524
-366.517
-356.4
-342.297
-324.625
-304.794
-283.189
-260.334
-236.674
-212.698
-188.843
-165.45
-142.761
-120.972
-100.261
-80.8152
-62.8305
-46.5147
-32.0781
-19.7242
-9.64032
-1.99077
3.08706
5.48465
37.9987
34.7425
28.7166
20.0595
8.93939
-4.45151
-19.9047
-37.2048
-56.1392
-76.5066
-98.1215
-120.813
-144.414
-168.745
-193.584
-218.72
-243.72
-268.11
-291.308
-312.499
-330.652
-344.381
-353.418
-359.473
-363.444
-365.343
-364.437
-361.215
-356.03
-348.349
-336.382
-319.575
-299.209
-276.515
-252.381
-227.479
-202.32
-177.373
-152.906
-129.17
-106.368
-84.681
-64.2944
-45.4048
-28.2233
-12.9713
0.128533
10.8625
19.0355
24.4794
27.0583
26.6713
23.3405
17.1764
8.32372
-3.04179
-16.7194
-32.4922
-50.1369
-69.434
-90.176
-112.17
-135.234
-159.183
-183.809
-208.846
-233.981
-258.733
-282.568
-304.746
-324.334
-339.971
-350.659
-357.569
-362.222
-364.929
-365.087
-362.588
-358.106
-351.43
-341.292
-326.311
-307.239
-285.444
-261.869
-237.276
-212.204
-187.121
-162.371
-138.203
-114.819
-92.3907
-71.0823
-51.0685
-32.5387
-15.698
-0.760338
12.0596
22.5568
30.5445
35.862
38.3789
69.6041
66.1346
59.7306
50.5607
38.8272
24.7571
8.58972
-9.43516
-29.0894
-50.166
-72.4842
-95.8887
-120.242
-145.409
-171.233
-197.57
-224.019
-250.091
-275.159
-298.374
-318.622
-334.189
-343.468
-348.13
-350.923
-352.236
-351.678
-349.506
-345.826
-338.595
-325.124
-306.196
-283.761
-259.123
-233.219
-206.761
-180.292
-154.261
-128.873
-104.311
-80.7302
-58.2849
-37.1429
-17.4966
0.436241
16.4179
30.2007
41.5393
50.2041
55.9933
58.7422
58.3293
54.7808
48.2307
38.8539
26.8603
12.4849
-4.02529
-22.4238
-42.4775
-63.9749
-86.7305
-110.582
-135.377
-160.958
-187.135
-213.643
-240.012
-265.664
-289.828
-311.504
-329.225
-340.997
-346.977
-350.193
-351.991
-352.053
-350.32
-347.164
-341.627
-330.715
-313.732
-292.58
-268.792
-243.393
-217.172
-190.711
-164.474
-138.8
-113.828
-89.7063
-66.5694
-44.5575
-23.8318
-4.58
12.9846
28.6299
42.1151
53.2028
61.6714
67.3267
70.01
99.2336
95.4782
88.5644
78.7001
66.1354
51.1471
34.0223
15.041
-5.5393
-27.4953
-50.6454
-74.8497
-100.004
-126.024
-152.826
-180.306
-208.101
-235.73
-262.545
-287.665
-309.941
-327.8
-339.228
-344.08
-345.687
-346.325
-346.148
-345.155
-341.983
-333.088
-317.206
-296.172
-271.781
-245.32
-217.767
-189.858
-162.14
-135.029
-108.697
-83.2525
-58.7993
-35.4575
-13.3804
7.23746
26.1608
43.1206
57.8269
69.9858
79.317
85.5721
88.5489
88.1015
84.2608
77.189
67.1013
54.256
38.9385
21.4434
2.05681
-18.9601
-41.382
-65.0257
-89.7476
-115.434
-141.984
-169.284
-197.094
-224.968
-252.318
-278.345
-302.006
-321.902
-336.093
-343.198
-345.508
-346.264
-346.224
-345.392
-343.282
-336.957
-323.696
-304.508
-281.364
-255.706
-228.606
-200.878
-173.12
-145.776
-119.176
-93.3752
-68.4593
-44.5172
-21.662
-0.0441352
20.1436
38.6682
55.2649
69.6503
81.5384
90.6576
96.7679
99.6736
126.751
122.621
115.035
104.252
90.5858
74.3823
55.9957
35.7653
13.9952
-9.06244
-33.216
-58.337
-84.354
-111.238
-138.981
-167.5
-196.481
-225.472
-253.836
-280.694
-304.9
-325.001
-339.235
-346.579
-348.949
-349.492
-349.411
-348.134
-343.001
-331.183
-312.87
-289.816
-263.61
-235.514
-206.504
-177.308
-148.449
-120.299
-93.0099
-66.616
-41.1664
-16.7487
6.49403
28.3555
48.5684
66.8143
82.7411
95.9854
106.197
113.066
116.341
115.849
111.625
103.865
92.8376
78.8652
62.3038
43.5163
22.848
0.605439
-22.9591
-47.656
-73.3574
-99.9875
-127.503
-155.869
-184.859
-214.065
-242.917
-270.628
-296.149
-318.141
-334.924
-344.897
-348.685
-349.487
-349.415
-348.607
-345.281
-336.193
-320.269
-298.945
-273.923
-246.576
-217.974
-188.929
-160.026
-131.674
-104.16
-77.5019
-51.7137
-26.8349
-2.9511
19.793
41.1895
60.9714
78.8239
94.4014
107.35
117.329
124.038
127.235
152.503
147.896
139.451
127.491
112.411
94.6453
74.6382
52.8091
29.5264
5.08727
-20.2958
-46.498
-73.4766
-101.254
-129.895
-159.331
-189.31
-219.427
-249.078
-277.413
-303.321
-325.449
-342.29
-352.731
-357.44
-358.806
-358.34
-355.239
-347.08
-332.406
-311.89
-287.03
-259.259
-229.786
-199.558
-169.269
-139.398
-110.257
-81.981
-54.5362
-27.9204
-2.1935
22.5029
45.938
67.796
87.6892
105.181
119.817
131.156
138.807
142.462
141.912
137.201
128.563
116.332
100.914
82.7578
62.316
40.0152
16.2263
-8.75577
-34.7234
-61.5572
-89.2141
-117.704
-147.068
-177.089
-207.418
-237.528
-266.662
-293.805
-317.684
-336.82
-349.799
-356.418
-358.634
-358.643
-356.637
-350.637
-338.503
-320.149
-296.899
-270.239
-241.465
-211.62
-181.486
-151.613
-122.358
-93.9486
-66.383
-39.6057
-13.6088
11.5447
35.7074
58.644
80.0372
99.503
116.613
130.922
142.003
149.477
153.044
177.05
171.856
162.35
148.932
132.096
112.388
90.363
66.5424
41.3789
15.2303
-11.656
-39.1484
-67.2247
-95.9515
-125.453
-155.682
-186.457
-217.436
-248.061
-277.526
-304.772
-328.531
-347.453
-360.469
-367.57
-370.063
-369.022
-363.842
-353.028
-336.068
-313.774
-287.471
-258.482
-227.952
-196.778
-165.607
-134.858
-104.771
-75.4565
-46.824
-18.8291
8.48638
34.9712
60.3551
84.2554
106.195
125.63
141.99
154.722
163.338
167.458
166.839
161.528
151.807
138.087
120.877
100.74
78.2438
53.9171
28.2156
1.49417
-26.0077
-54.1686
-82.972
-112.48
-142.759
-173.651
-204.873
-235.954
-266.183
-294.595
-319.99
-341.021
-356.425
-365.666
-369.629
-369.767
-366.231
-357.681
-343.074
-322.772
-297.978
-270.041
-240.181
-209.395
-178.422
-147.76
-117.706
-88.4117
-59.8615
-31.9393
-4.59761
22.1146
48.0357
72.8887
96.2891
117.763
136.778
152.776
165.22
173.637
177.659
201.016
195.124
184.352
169.19
150.249
128.209
103.755
77.5328
50.0966
21.882
-6.8143
-35.8406
-65.1834
-94.9416
-125.279
-156.186
-187.561
-219.129
-250.388
-280.585
-308.718
-333.595
-353.963
-368.767
-377.614
-381.003
-379.483
-372.722
-360.036
-341.479
-317.944
-290.661
-260.863
-229.627
-197.792
-165.949
-134.447
-103.454
-73.02
-43.032
-13.4131
15.8018
44.4373
72.1672
98.5239
122.92
144.684
163.107
177.504
187.27
191.942
191.24
185.218
174.204
158.704
139.35
116.838
91.8733
65.1091
37.1052
8.2938
-21.0374
-50.7512
-80.8456
-111.422
-142.556
-174.171
-206.057
-237.804
-268.759
-298.018
-324.453
-346.809
-363.904
-375.018
-380.345
-380.599
-375.869
-365.494
-349.172
-327.518
-301.674
-272.896
-242.336
-210.932
-179.373
-148.099
-117.334
-87.1511
-57.5128
-28.2574
0.689861
29.2818
57.3286
84.4963
110.316
134.206
155.507
173.528
187.602
197.144
201.706
224.985
218.289
206.057
188.88
167.504
142.759
115.484
86.462
56.3671
25.7262
-5.09933
-35.9215
-66.7224
-97.6224
-128.781
-160.27
-192.065
-223.967
-255.519
-286.029
-314.565
-340.011
-361.184
-377.031
-386.929
-390.874
-389.034
-381.287
-367.485
-347.999
-323.792
-296.024
-265.848
-234.266
-202.043
-169.717
-137.571
-105.688
-74.0407
-42.5119
-11.0083
20.4266
51.5777
82.0439
111.257
138.503
162.962
183.771
200.088
211.18
216.487
215.691
208.848
196.345
178.79
156.956
131.694
103.864
74.2633
43.5715
12.315
-19.1519
-50.6608
-82.2073
-113.912
-145.866
-178.076
-210.415
-242.533
-273.836
-303.493
-330.454
-353.544
-371.631
-383.872
-390.062
-390.403
-384.936
-373.474
-356.158
-333.766
-307.404
-278.252
-247.39
-215.687
-183.779
-152.048
-120.642
-89.5508
-58.6999
-27.9021
2.92863
33.7322
64.2729
94.1457
122.783
149.478
173.428
193.789
209.746
220.586
225.769
249.456
241.862
227.998
208.568
184.47
156.7
126.262
94.0911
60.9906
27.5888
-5.67456
-38.5525
-71.0069
-103.157
-135.157
-167.162
-199.228
-231.254
-262.781
-293.192
-321.649
-347.124
-368.509
-384.78
-395.196
-399.43
-397.4
-389.124
-374.79
-354.982
-330.651
-302.891
-272.765
-241.181
-208.797
-176.145
-143.433
-110.652
-77.6926
-44.434
-10.7897
23.1706
57.1769
90.7295
123.15
153.586
181.058
204.53
222.993
235.565
241.581
240.68
232.922
218.754
198.905
174.3
145.963
114.924
82.1353
48.4073
14.3726
-19.5244
-53.069
-86.2361
-119.142
-151.901
-184.607
-217.228
-249.457
-280.74
-310.35
-337.328
-360.589
-379.058
-391.859
-398.522
-398.925
-393.076
-381.094
-363.408
-340.856
-314.501
-285.442
-254.669
-222.953
-190.89
-158.831
-126.831
-94.7947
-62.5922
-30.0361
2.95253
36.2867
69.6599
102.586
134.39
164.227
191.139
214.115
232.176
244.467
250.344
274.827
266.257
250.622
228.759
201.725
170.692
136.837
101.253
64.8774
28.4386
-7.53753
-42.7053
-76.9999
-110.514
-143.399
-175.882
-208.082
-239.941
-271.136
-301.123
-329.138
-354.242
-375.41
-391.658
-402.191
-406.511
-404.389
-395.927
-381.501
-361.795
-337.739
-310.35
-280.597
-249.297
-217.052
-184.252
-151.032
-117.325
-82.9499
-47.7822
-11.7686
24.978
62.1268
99.0352
134.926
168.805
199.524
225.869
246.653
260.831
267.619
266.603
257.849
241.877
219.549
191.956
160.305
125.801
89.5583
52.5208
15.4228
-21.1576
-56.9568
-91.9085
-126.097
-159.668
-192.783
-225.466
-257.513
-288.48
-317.708
-344.331
-367.357
-385.776
-398.709
-405.552
-405.998
-400.035
-387.959
-370.347
-348.058
-322.101
-293.488
-263.121
-231.707
-199.738
-167.463
-134.888
-101.859
-68.1556
-33.6366
1.7544
37.9036
74.3808
110.629
145.861
179.091
209.198
234.995
255.332
269.196
275.828
301.407
291.797
274.3
249.895
219.81
185.394
147.994
108.859
69.0647
29.4645
-9.32555
-46.9257
-83.1954
-118.172
-152.011
-184.993
-217.291
-248.907
-279.613
-308.954
-336.26
-360.692
-381.316
-397.21
-407.575
-411.838
-409.691
-401.283
-387.081
-367.798
-344.317
-317.565
-288.41
-257.566
-225.545
-192.634
-158.894
-124.202
-88.3199
-51.1138
-12.5873
27.0744
67.4498
107.847
147.342
184.79
218.878
248.211
271.421
287.294
294.908
293.767
283.952
266.082
241.165
210.469
175.381
137.284
97.4533
56.9817
16.733
-22.668
-60.8652
-97.7254
-133.279
-167.708
-201.23
-233.928
-265.682
-296.147
-324.757
-350.749
-373.232
-391.278
-404.038
-410.857
-411.334
-405.448
-393.583
-376.378
-354.674
-329.407
-301.497
-271.743
-240.764
-208.956
-176.486
-143.302
-109.199
-73.8877
-37.2654
0.6685
39.719
79.4388
119.153
157.948
194.697
228.117
256.85
279.567
295.092
302.532
329.46
318.792
299.429
272.503
239.412
201.67
160.78
118.131
74.9245
32.1216
-9.57099
-49.7015
-88.0526
-124.59
-159.478
-193.032
-225.466
-256.836
-286.994
-315.576
-342.015
-365.581
-385.445
-400.761
-410.771
-414.882
-412.754
-404.555
-390.784
-372.136
-349.42
-323.465
-295.023
-264.702
-232.913
-199.858
-165.532
-129.765
-92.2841
-52.9401
-11.8114
30.8341
74.4853
118.362
161.42
202.381
239.782
272.062
297.682
315.256
323.713
322.443
311.551
291.781
264.3
230.546
192.079
150.442
107.058
63.1485
19.6908
-22.6051
-63.2946
-102.164
-139.172
-174.544
-208.532
-241.268
-272.706
-302.589
-330.453
-355.646
-377.389
-394.848
-407.235
-413.898
-414.4
-408.714
-397.263
-380.688
-359.781
-335.391
-308.33
-279.29
-248.789
-217.134
-184.42
-150.545
-115.262
-78.249
-39.4207
1.14848
43.1852
86.172
129.336
171.65
211.86
248.539
280.169
305.252
322.446
330.713
359.214
347.541
326.421
297.141
261.251
220.414
176.265
130.311
83.8545
37.9539
-6.59765
-49.2649
-89.745
-127.918
-163.959
-198.194
-230.86
-262.057
-291.702
-319.519
-345.046
-367.665
-386.658
-401.278
-410.825
-414.731
-412.642
-404.738
-391.509
-373.599
-351.729
-326.617
-298.898
-269.068
-237.444
-204.15
-169.132
-132.191
-93.041
-51.5187
-7.79089
37.7827
84.5991
131.785
178.195
222.436
262.919
297.945
325.818
344.996
354.255
352.861
340.947
319.391
289.515
252.915
211.301
166.355
119.62
72.4292
25.8585
-19.2904
-62.4816
-103.412
-141.953
-178.369
-212.927
-245.791
-276.972
-306.295
-333.393
-357.732
-378.646
-395.411
-407.316
-413.752
-414.278
-408.864
-397.94
-382.114
-362.107
-338.667
-312.49
-284.159
-254.09
-222.509
-189.448
-154.77
-118.208
-79.425
-38.3549
4.84199
49.8066
95.9386
142.376
187.994
231.432
271.142
305.469
332.766
351.535
360.589
390.834
378.28
355.638
324.332
286.044
242.551
195.59
146.752
97.4169
48.7174
1.52338
-43.5474
-86.1021
-125.927
-163.199
-198.23
-231.261
-262.414
-291.66
-318.8
-343.47
-365.165
-383.281
-397.173
-406.221
-409.898
-407.854
-400.271
-387.61
-370.445
-349.399
-325.075
-297.993
-268.542
-236.953
-203.29
-167.467
-129.277
-88.4473
-44.8089
1.37382
49.6465
99.3177
149.432
198.762
245.834
288.963
326.345
356.16
376.73
386.693
385.19
372.382
349.279
317.341
278.3
233.983
186.175
136.511
86.4036
37.0108
-10.7826
-56.3514
-99.2984
-139.405
-176.954
-212.203
-245.327
-276.377
-305.245
-331.657
-355.186
-375.287
-391.344
-402.741
-408.925
-409.477
-404.364
-394.004
-378.954
-359.847
-337.324
-311.968
-284.251
-254.495
-222.855
-189.317
-153.726
-115.818
-75.2693
-32.033
13.6359
61.2899
110.248
159.571
208.062
254.28
296.588
333.228
362.434
382.572
392.317
424.433
411.199
387.403
354.578
314.505
269.035
219.961
168.921
117.336
66.3847
16.9941
-30.1469
-74.5595
-115.934
-154.436
-190.336
-223.851
-255.109
-284.113
-310.726
-334.672
-355.549
-372.863
-386.071
-394.637
-398.087
-396.082
-388.801
-376.664
-360.172
-339.847
-316.181
-289.585
-260.356
-228.654
-194.503
-157.804
-118.371
-75.9678
-30.4397
17.8511
68.3613
120.324
172.724
224.284
273.482
318.585
357.723
388.998
410.628
421.137
419.548
406.051
381.773
348.291
307.431
261.096
211.132
159.219
106.822
55.1464
5.14372
-42.4821
-87.241
-128.846
-167.551
-203.577
-237.091
-268.162
-296.732
-322.603
-345.448
-364.83
-380.244
-391.168
-397.117
-397.7
-392.883
-383.063
-368.736
-350.446
-328.727
-304.053
-276.796
-247.197
-215.355
-181.231
-144.672
-105.441
-63.2579
-18.1032
29.674
79.5435
130.756
182.321
232.994
281.293
325.535
363.899
394.539
415.72
426.002
460.077
446.446
422.003
388.359
347.343
300.834
250.632
198.37
145.471
93.1212
42.2758
-6.32766
-52.1409
-94.7678
-134.34
-171.058
-205.093
-236.552
-265.451
-291.696
-315.078
-335.285
-351.918
-364.531
-372.669
-375.91
-373.929
-366.902
-355.209
-339.274
-319.526
-296.36
-270.093
-240.949
-209.037
-174.362
-136.84
-96.3267
-52.6567
-5.7094
44.0646
96.0505
149.432
203.165
255.961
306.298
352.444
392.516
424.585
446.815
457.646
456.004
442.105
417.172
382.855
341.031
293.629
242.501
189.328
135.576
82.4667
30.9852
-18.1072
-64.2409
-107.089
-146.82
-183.598
-217.556
-248.759
-277.175
-302.665
-324.981
-343.782
-358.66
-369.183
-374.935
-375.554
-371.006
-361.664
-347.963
-330.361
-309.294
-285.14
-258.189
-228.618
-196.491
-161.766
-124.315
-83.9543
-40.4762
6.09974
55.3409
106.653
159.243
212.098
263.967
313.372
358.629
397.907
429.327
451.098
461.698
497.792
484.127
459.688
426.115
385.236
338.898
288.852
236.679
183.749
131.216
80.0223
30.9196
-15.5037
-58.7889
-99.0077
-136.266
-170.666
-202.271
-231.087
-257.041
-279.968
-299.623
-315.688
-327.797
-335.567
-338.622
-336.653
-329.832
-318.501
-303.018
-283.735
-260.962
-234.949
-205.866
-173.799
-138.758
-100.695
-59.5341
-15.2024
32.356
82.6277
134.959
188.52
242.281
294.992
345.18
391.168
431.122
463.137
485.375
496.24
494.59
480.658
455.731
421.486
379.795
332.554
281.564
228.453
174.637
121.309
69.4448
19.8271
-26.9282
-70.4575
-110.822
-148.105
-182.378
-213.679
-241.981
-267.176
-289.073
-307.404
-321.846
-332.042
-337.637
-338.296
-333.983
-325.051
-311.878
-294.847
-274.314
-250.579
-223.868
-194.32
-161.988
-126.848
-88.8195
-47.796
-3.66813
43.492
93.1946
144.811
197.542
250.392
302.151
351.39
396.481
435.638
467.005
488.787
499.422
537.565
524.307
500.656
468.229
428.79
384.098
335.797
285.359
234.054
182.952
132.937
84.7291
38.9132
-4.03075
-44.0876
-81.2509
-115.535
-146.946
-175.459
-200.995
-223.415
-242.516
-258.035
-269.673
-277.101
-279.985
-278.026
-271.397
-260.408
-245.363
-226.553
-204.23
-178.598
-149.799
-117.92
-82.9964
-45.0372
-4.05021
39.9266
86.8549
136.203
187.323
239.422
291.535
342.5
390.949
435.318
473.88
504.819
526.352
536.901
535.296
521.78
497.657
464.577
424.345
378.765
329.527
278.147
225.94
174.015
123.293
74.5261
28.3318
-14.9087
-55.1312
-92.3149
-126.458
-157.549
-185.54
-210.333
-231.769
-249.63
-263.652
-273.542
-278.99
-279.686
-275.591
-267.039
-254.363
-237.885
-217.9
-194.652
-168.329
-139.056
-106.894
-71.8566
-33.932
6.89487
50.6149
97.0937
145.826
196.194
247.438
298.626
348.637
396.147
439.636
477.421
507.731
528.824
539.151
579.349
567.003
545.039
514.989
478.492
437.154
392.461
345.721
298.055
250.402
203.537
158.095
114.603
73.5041
34.9221
-1.01906
-34.2421
-64.6868
-92.2837
-116.935
-138.502
-156.804
-171.616
-182.681
-189.714
-192.414
-190.491
-184.118
-173.58
-159.145
-141.057
-119.534
-94.7536
-66.8556
-35.9423
-2.09168
34.6224
74.1029
116.197
160.749
207.268
255.174
303.764
352.191
399.433
444.281
485.339
521.045
549.734
569.745
579.575
578.076
565.491
543.088
512.427
475.185
433.006
387.416
339.764
291.209
242.727
195.127
149.077
105.134
63.6655
24.8717
-11.1191
-44.2222
-74.3668
-101.471
-125.424
-146.077
-163.242
-176.692
-186.177
-191.424
-192.143
-188.288
-180.181
-168.117
-152.375
-133.204
-110.819
-85.39
-57.043
-25.8671
8.07352
44.7181
83.9831
125.734
169.772
215.633
262.767
310.501
358.022
404.344
448.298
488.524
523.502
551.605
571.206
580.83
623.061
612.183
592.889
566.559
534.646
498.547
459.533
418.706
376.994
335.159
293.822
253.482
214.547
177.353
142.142
109.142
78.5088
50.3642
24.8207
2.00207
-17.9456
-34.8484
-48.5039
-58.6846
-65.1399
-67.5941
-65.7727
-59.8452
-50.0759
-36.7023
-19.9415
0.0118828
22.9877
48.84
77.4419
108.673
142.401
178.451
216.571
256.477
297.794
340.07
382.751
425.155
466.448
505.626
541.508
572.755
597.912
615.506
624.175
622.85
611.761
592.078
565.208
532.63
495.776
455.948
414.281
371.736
329.103
287.032
246.047
206.581
168.942
133.459
100.354
69.7865
41.8815
16.7591
-5.4503
-24.5949
-40.4984
-52.9599
-61.7572
-66.6467
-67.3547
-63.8342
-56.3868
-45.2809
-30.7611
-13.0489
7.66086
31.2016
57.4338
86.2381
117.502
151.099
186.859
224.531
263.865
304.505
346.024
387.892
429.454
469.905
508.274
543.413
574.012
598.651
615.883
624.37
668.593
659.762
644.158
622.946
597.324
568.43
537.272
504.707
471.436
438.016
404.874
372.335
340.63
309.922
280.556
252.828
226.942
203.053
181.301
161.823
144.77
130.307
118.617
109.901
104.377
102.292
103.895
109.027
117.45
128.954
143.347
160.452
180.108
202.164
226.481
252.912
281.292
311.401
342.925
375.468
408.844
442.786
476.931
510.802
543.785
575.119
603.881
629.001
649.296
663.543
670.589
669.51
660.505
644.583
622.926
596.757
567.235
535.394
502.116
468.122
433.989
400.162
366.98
334.685
303.477
273.782
245.883
219.981
196.233
174.782
155.771
139.352
125.689
114.965
107.374
103.133
102.49
105.492
111.866
121.375
133.804
148.957
166.656
186.739
209.06
233.483
259.866
288.042
317.789
348.774
380.719
413.445
446.697
480.127
513.275
545.548
576.207
604.354
628.942
648.811
662.762
669.66
715.811
709.597
698.689
683.967
666.314
646.551
625.387
603.402
581.047
558.655
536.448
514.551
492.994
471.715
451.112
431.491
413.048
395.931
380.265
366.176
353.791
343.251
334.705
328.316
324.259
322.734
323.95
327.769
333.995
342.459
353.004
365.485
379.764
395.712
413.203
432.105
452.263
473.469
495.409
517.626
540.175
563.006
585.971
608.812
631.159
652.514
672.249
689.607
703.73
713.712
718.681
717.917
711.578
700.441
685.397
667.347
647.127
625.461
602.944
580.038
557.084
534.31
511.837
489.687
467.9
446.939
427.087
408.535
391.429
375.9
362.073
350.08
340.06
332.16
326.54
323.376
322.874
325.077
329.757
336.722
345.801
356.834
369.675
384.187
400.242
417.717
436.48
456.375
477.179
498.536
520.192
542.185
564.462
586.874
609.172
630.994
651.856
671.144
688.117
701.935
711.704
716.566
764.585
761.518
756.237
749.265
741.111
732.228
722.985
713.659
704.438
695.428
686.652
678.054
669.475
660.626
651.868
643.427
635.419
627.92
620.993
614.7
609.11
604.299
600.352
597.367
595.451
594.732
595.351
597.213
600.191
604.176
609.075
614.804
621.287
628.455
636.244
644.588
653.406
662.579
671.881
680.895
689.92
699.111
708.514
718.089
727.709
737.161
746.137
754.239
760.988
765.859
768.327
767.943
764.809
759.403
752.256
743.886
734.752
725.231
715.604
706.062
696.709
687.56
678.542
669.462
660.176
651.082
642.377
634.17
626.535
619.537
613.242
607.719
603.048
599.315
596.616
595.062
594.792
595.835
598.04
601.285
605.465
610.487
616.267
622.731
629.812
637.449
645.577
654.109
662.903
671.673
680.253
688.898
697.739
706.814
716.078
725.406
734.587
743.32
751.214
757.798
762.553
764.963
814.701
815.245
816.397
818.259
820.897
824.342
828.577
833.55
839.17
845.318
851.848
858.576
865.256
871.48
877.403
883.041
888.345
893.254
897.706
901.648
905.035
907.832
910.018
911.582
912.531
912.888
912.695
911.921
910.538
908.538
905.926
902.723
898.963
894.689
889.955
884.823
879.356
873.605
867.566
861.052
854.489
848.133
842.171
836.752
831.994
827.981
824.761
822.341
820.68
819.703
819.302
819.356
819.896
821.04
822.891
825.517
828.944
833.155
838.093
843.663
849.74
856.164
862.731
869.143
875.111
880.795
886.182
891.217
895.837
899.983
903.602
906.654
909.109
910.95
912.173
912.792
912.843
912.336
911.229
909.503
907.158
904.205
900.67
896.591
892.015
886.997
881.6
875.882
869.876
863.512
856.804
850.114
843.67
837.648
832.187
827.4
823.367
820.133
817.701
816.033
815.051
814.646
)
;

boundaryField
{
    top
    {
        type            fixedFluxPressure;
        gradient        nonuniform List<scalar> 
102
(
1562.76
1681.09
1891.34
2179.02
2529.05
2927.01
3359.99
3817
4289.07
4769.37
5253.25
5738.92
6229.23
6737.33
7242.22
7731.98
8199.28
8638.3
9043.8
9410.79
9734.38
10009.8
10232.6
10398.2
10502.7
10541.9
10512.3
10416.1
10257.3
10039.8
9767.81
9445.74
9078.3
8670.4
8227.14
7753.92
7256.77
6743.23
6225.03
5725.81
5231.81
4740.28
4253.4
3776.33
3316.6
2883.92
2490.06
2148.67
1874.75
1683.62
1589.59
1603.95
1724.28
1938.21
2231.02
2587.35
2992.47
3433.21
3898.3
4378.61
4867.26
5359.84
5855.41
6359.41
6877.31
7387.32
7878.89
8344.91
8779.55
9177.47
9533.63
9843.18
10101.5
10304.2
10447.1
10526.4
10538.1
10481.6
10360.9
10180
9943.13
9654.72
9319.38
8941.91
8527.21
8080.34
7606.66
7112.35
6605.8
6102.5
5613.21
5127.63
4644.15
4165.34
3696.36
3244.62
2819.58
2432.76
2097.51
1828.51
1640.84
1548.54
)
;
        value           nonuniform List<scalar> 
102
(
840.747
843.264
847.92
854.576
863.048
873.125
884.577
897.166
910.654
924.808
939.402
954.225
969.076
983.769
998.107
1011.91
1025
1037.23
1048.44
1058.49
1067.27
1074.66
1080.56
1084.89
1087.58
1088.59
1087.9
1085.52
1081.49
1075.87
1068.72
1060.15
1050.27
1039.2
1027.07
1014.06
1000.3
985.992
971.316
956.482
941.686
927.138
913.061
899.691
887.271
876.046
866.262
858.152
851.926
847.764
845.795
846.089
848.634
853.344
860.075
868.639
878.818
890.375
903.065
916.64
930.861
945.495
960.321
975.133
989.733
1003.92
1017.5
1030.3
1042.16
1052.94
1062.5
1070.71
1077.47
1082.69
1086.29
1088.23
1088.48
1087.03
1083.91
1079.17
1072.88
1065.12
1055.99
1045.62
1034.13
1021.67
1008.38
994.421
979.972
965.22
950.358
935.574
921.073
907.07
893.793
881.477
870.36
860.679
852.66
846.509
842.398
840.455
)
;
    }
    bottom
    {
        type            fixedFluxPressure;
        gradient        nonuniform List<scalar> 
102
(
0
0
0
0
0
0
0
0
0
0
0
0
0
0
0
0
0
0
0
0
0
0
0
0
0
0
0
0
0
0
0
0
0
0
0
0
0
0
0
0
0
0
0
0
0
0
0
0
0
0
0
0
0
0
0
0
0
0
0
0
0
0
0
0
0
0
0
0
0
0
0
0
0
0
0
0
0
0
0
0
0
0
0
0
0
0
0
0
0
0
0
0
0
0
0
0
0
0
0
0
0
-1.64892e-14
)
;
        value           nonuniform List<scalar> 
102
(
-38.8642
-41.9203
-47.6485
-56.0032
-66.9371
-80.4131
-96.4057
-114.887
-135.8
-159.02
-184.336
-211.426
-239.838
-268.966
-298.017
-326.035
-352.042
-375.136
-394.541
-409.851
-421.211
-429.063
-434.11
-437.107
-438.679
-439.219
-438.881
-437.587
-435.023
-430.635
-423.689
-413.437
-399.34
-381.124
-359.017
-333.714
-306.111
-277.218
-248.042
-219.458
-192.14
-166.597
-143.192
-122.171
-103.677
-87.7821
-74.5198
-63.914
-55.9964
-50.8062
-48.3804
-48.7414
-51.8854
-57.785
-66.4017
-77.6975
-91.6433
-108.215
-127.373
-149.029
-173.016
-199.059
-226.761
-255.57
-284.765
-313.424
-340.522
-365.078
-386.23
-403.375
-416.44
-425.77
-431.977
-435.827
-438.019
-439.045
-439.157
-438.373
-436.479
-433.018
-427.317
-418.613
-406.262
-389.882
-369.459
-345.527
-318.908
-290.526
-261.369
-232.359
-204.237
-177.57
-152.771
-130.134
-109.844
-92.0054
-76.6648
-63.847
-53.5796
-45.9034
-40.8663
-38.5114
)
;
    }
    frontAndBack
    {
        type            empty;
    }
    left_cyc
    {