/*--------------------------------*- C++ -*----------------------------------*\
| =========                 |                                                 |
| \\      /  F ield         | OpenFOAM: The Open Source CFD Toolbox           |
|  \\    /   O peration     | Version:  2.3.0                                 |
|   \\  /    A nd           | Web:      www.OpenFOAM.org                      |
|    \\/     M anipulation  |                                                 |
\*---------------------------------------------------------------------------*/
FoamFile
{
    version     2.0;
    format      ascii;
    class       volScalarField;
    location    "8000";
    object      p_rgh;
}
// * * * * * * * * * * * * * * * * * * * * * * * * * * * * * * * * * * * * * //

dimensions      [0 2 -2 0 0 0 0];

internalField   nonuniform List<scalar> 
765
(
-1753.31
-1762.32
-1770.87
-1779.77
-1790.11
-1803.08
-1819.4
-1838.1
-1857.28
-1873.16
-1879.26
-1869.35
-1851.99
-1832.51
-1814.18
-1798.63
-1786.41
-1776.53
-1767.8
-1759.18
-1749.96
-1739.82
-1728.64
-1716.25
-1702.43
-1686.81
-1668.8
-1647.46
-1621.25
-1587.91
-1543.92
-1485.06
-1415.17
-1335.86
-1242.27
-1176.12
-1188.09
-1268.74
-1360.48
-1436.04
-1504.36
-1558.53
-1598.94
-1629.91
-1654.52
-1674.78
-1692.04
-1707.11
-1720.51
-1732.55
-1743.43
-1722.42
-1732.23
-1741.51
-1750.88
-1761.27
-1773.77
-1788.95
-1807.32
-1828.32
-1849.23
-1859.57
-1843.7
-1822.24
-1801.7
-1784.19
-1769.42
-1757.52
-1747.46
-1738.17
-1728.8
-1718.77
-1707.49
-1694.96
-1681.19
-1666.08
-1649.37
-1630.64
-1609.19
-1583.87
-1553.41
-1516.53
-1474.62
-1430.39
-1395.29
-1394.33
-1392.2
-1393.82
-1393.97
-1403.42
-1444.58
-1487.91
-1528.58
-1563.41
-1592.19
-1616.24
-1636.81
-1654.92
-1671.16
-1685.88
-1699.3
-1711.51
-1679.03
-1689.78
-1700.1
-1710.37
-1721.2
-1733.55
-1748.91
-1770.76
-1800.05
-1834.04
-1852.63
-1824.62
-1790.96
-1763.41
-1743.28
-1729.16
-1717.32
-1706.67
-1696.39
-1685.95
-1675.01
-1663.44
-1650.66
-1636.64
-1621.53
-1605.33
-1588.08
-1569.72
-1550.05
-1529.12
-1499.82
-1464.92
-1426.48
-1372.79
-1348.54
-1339.06
-1340.95
-1352.88
-1386.51
-1439.29
-1474.99
-1510.82
-1536.3
-1556.68
-1575.9
-1593.9
-1610.85
-1626.73
-1641.53
-1655.24
-1667.67
-1650.54
-1661.52
-1672.28
-1682.77
-1693.08
-1703.92
-1718.44
-1742.06
-1778.9
-1826.58
-1853.53
-1813.19
-1766.96
-1733.72
-1712.93
-1700.08
-1689.53
-1679.16
-1668.54
-1657.66
-1646.58
-1635.34
-1623.94
-1612.33
-1600.5
-1588.49
-1575.95
-1562.03
-1545.46
-1524.57
-1488.1
-1434.82
-1380.22
-1339.16
-1305.92
-1285.54
-1289.21
-1314.25
-1350.02
-1392.28
-1452.38
-1502.46
-1532.37
-1551.71
-1567.32
-1580.68
-1592.94
-1604.84
-1616.59
-1628.08
-1639.39
-1649.42
-1659.11
-1668.8
-1677.92
-1685.97
-1693.62
-1705.1
-1727.58
-1769.53
-1828.68
-1862.16
-1812.12
-1755.45
-1719.19
-1700.62
-1690.8
-1683.31
-1674.93
-1665.55
-1655.75
-1646.08
-1636.86
-1628.24
-1620.14
-1612.3
-1604.09
-1594.38
-1581.38
-1562.67
-1535.87
-1494.04
-1431.17
-1348.72
-1290.58
-1249.07
-1224.46
-1228.73
-1259.06
-1305.39
-1368.96
-1452.26
-1509.77
-1545.69
-1569.96
-1586.71
-1598.48
-1607.53
-1615.46
-1623.25
-1631.41
-1640.13
-1669.37
-1677.26
-1684.93
-1691.35
-1695.7
-1699.27
-1705.76
-1725.76
-1771.17
-1838.31
-1875.49
-1819.86
-1755.61
-1717.63
-1702.62
-1697.8
-1694.33
-1689.38
-1682.49
-1674.62
-1666.77
-1659.59
-1653.36
-1647.95
-1642.83
-1636.88
-1628.33
-1614.61
-1592.39
-1558.36
-1507.89
-1435.45
-1338.78
-1261.96
-1202.81
-1168.85
-1174.55
-1216.46
-1282.14
-1365.07
-1457.91
-1525.18
-1570.17
-1600.67
-1620.12
-1632.04
-1639.56
-1645.05
-1650.09
-1655.61
-1662.03
-1699.85
-1705.81
-1710.79
-1713.6
-1713.69
-1713.07
-1716.71
-1736.56
-1783.04
-1850.99
-1888.94
-1832.72
-1767.48
-1728.45
-1714.17
-1713.04
-1713.61
-1712.82
-1709.34
-1703.97
-1697.91
-1692.12
-1687.15
-1683.03
-1679.15
-1674.15
-1665.69
-1650.45
-1624.34
-1583.25
-1522.74
-1440
-1336.48
-1239.1
-1157.08
-1111.02
-1118.59
-1176.06
-1265.23
-1365.09
-1464.29
-1541.99
-1596.74
-1633.45
-1656.17
-1669.14
-1676.31
-1680.75
-1684.54
-1688.8
-1693.96
-1732.82
-1736.42
-1738.32
-1738.15
-1736.84
-1735.15
-1739.39
-1758.52
-1801.05
-1863.01
-1899.71
-1846.65
-1787.24
-1751.12
-1736.85
-1734.98
-1736.85
-1738.13
-1737.82
-1735.43
-1731.52
-1726.92
-1722.36
-1718.12
-1713.81
-1708.06
-1698.16
-1680.18
-1649.46
-1601.45
-1530.81
-1438.23
-1333.47
-1216.89
-1110.1
-1049.57
-1059.42
-1135.47
-1249.32
-1361.14
-1464.95
-1552.65
-1616.58
-1659.47
-1686.32
-1701.69
-1710.13
-1715.28
-1719.44
-1723.73
-1728.33
-1762.45
-1764.69
-1765.63
-1765.41
-1764.22
-1764.07
-1769.36
-1786.49
-1821.94
-1873.58
-1906.95
-1860.33
-1810.9
-1780.37
-1766.96
-1763.62
-1764.41
-1765.43
-1765.41
-1764.18
-1761.64
-1757.97
-1753.46
-1748.22
-1741.84
-1733
-1719.1
-1696.25
-1659.95
-1605.63
-1526.56
-1425.76
-1321.13
-1186.54
-1056.21
-980.798
-993.079
-1087.94
-1225.26
-1347.62
-1454.86
-1550.48
-1622.07
-1670.99
-1703.31
-1723.4
-1735.67
-1743.68
-1749.68
-1754.72
-1759.03
-1785.28
-1788.9
-1791.3
-1792.62
-1793.5
-1795.45
-1801.28
-1815.4
-1842.51
-1881.98
-1910.2
-1872.42
-1834.62
-1810.91
-1799.32
-1794.82
-1793.38
-1792.49
-1790.97
-1788.27
-1784.35
-1779.24
-1772.92
-1765.09
-1755.03
-1741.21
-1721.04
-1691
-1647.37
-1586.15
-1499.97
-1394.57
-1290.56
-1137.8
-987.776
-900.385
-914.664
-1023.5
-1178.74
-1313.46
-1423.55
-1524.64
-1603.65
-1659.67
-1699.48
-1726.65
-1744.94
-1757.64
-1767.04
-1774.45
-1780.47
-1786.82
-1795.21
-1802.4
-1808.49
-1813.81
-1819.19
-1826.35
-1838.12
-1857.78
-1885.67
-1907.57
-1879.63
-1852.77
-1835.11
-1824.71
-1818.19
-1812.93
-1807.46
-1801.11
-1793.63
-1784.93
-1774.98
-1763.74
-1750.4
-1734.08
-1713.03
-1684.8
-1646.37
-1595.19
-1527.99
-1436.8
-1322.24
-1216.43
-1056.82
-898.574
-805.11
-820.607
-934.455
-1099.05
-1245.73
-1352.83
-1461.51
-1546.15
-1608.62
-1656.43
-1692.05
-1718.28
-1737.99
-1753.48
-1766.26
-1777.18
-1732.24
-1750
-1766.33
-1781.34
-1795.14
-1807.95
-1820.45
-1834.04
-1850.6
-1870.75
-1886.67
-1867.17
-1847.26
-1831.38
-1818.11
-1805.56
-1792.5
-1778.39
-1763.04
-1746.37
-1728.25
-1708.57
-1687.45
-1665.42
-1640.43
-1610.89
-1574.65
-1528.7
-1469.9
-1393.08
-1297.54
-1187.23
-1083.76
-932.185
-785.714
-694.583
-710.153
-819.037
-972.716
-1112.43
-1213.61
-1322.46
-1413.84
-1484.94
-1540.3
-1583.5
-1617.9
-1646.22
-1670.49
-1692.17
-1712.94
-1548.45
-1577.97
-1605.59
-1631.66
-1656.4
-1679.9
-1702.19
-1723.44
-1743.91
-1763.15
-1775.44
-1760.18
-1740.16
-1719.32
-1697.7
-1675.03
-1651.17
-1626.1
-1599.7
-1571.7
-1541.71
-1509.6
-1476.11
-1442.85
-1410.63
-1374.72
-1333.48
-1283.2
-1220.48
-1140.47
-1048.39
-970.581
-889.249
-772.698
-656.685
-578.891
-592.528
-683.622
-802.789
-911.852
-986.938
-1068.18
-1161.9
-1235.89
-1295.73
-1343.26
-1382.96
-1417.8
-1449.98
-1483.44
-1516.78
-1150.03
-1184.28
-1217.01
-1248.4
-1278.38
-1306.64
-1332.73
-1356.21
-1376.69
-1393.34
-1401.61
-1390.84
-1372.95
-1351.61
-1327.4
-1300.71
-1272
-1241.7
-1210.05
-1177.06
-1142.49
-1106.01
-1067.84
-1028.49
-987.952
-947.387
-903.847
-855.732
-806.438
-757.687
-709.635
-666.809
-612.367
-534.81
-455
-398.924
-408.967
-473.893
-554.903
-627.827
-675.607
-720.422
-769.213
-817.317
-867.018
-914.093
-956.565
-996.877
-1037
-1076.08
-1113.95
-425.095
-455.921
-487.471
-519.831
-553.089
-587.171
-621.609
-655.226
-685.646
-708.772
-717.548
-705.177
-679.982
-648.664
-614.848
-580.594
-546.859
-513.985
-481.983
-450.74
-420.183
-390.279
-360.621
-331.573
-306.257
-286.518
-273.851
-270.357
-279.38
-305.429
-350.525
-405.305
-455.659
-485.52
-496.082
-493.498
-494.536
-494.47
-478.926
-443.324
-389.13
-336.364
-295.388
-273.559
-268.083
-273.784
-288.413
-309.481
-335.865
-365.295
-394.975
)
;

boundaryField
{
    top
    {
        type            fixedValue;
        value           uniform 0;
    }
    bottom
    {
        type            fixedFluxPressure;
        gradient        uniform 0;
        value           nonuniform List<scalar> 
51
(
-1753.31
-1762.32
-1770.87
-1779.77
-1790.11
-1803.08
-1819.4
-1838.1
-1857.28
-1873.16
-1879.26
-1869.35
-1851.99
-1832.51
-1814.18
-1798.63
-1786.41
-1776.53
-1767.8
-1759.18
-1749.96
-1739.82
-1728.64
-1716.25
-1702.43
-1686.81
-1668.8
-1647.46
-1621.25
-1587.91
-1543.92
-1485.06
-1415.17
-1335.86
-1242.27
-1176.12
-1188.09
-1268.74
-1360.48
-1436.04
-1504.36
-1558.53
-1598.94
-1629.91
-1654.52
-1674.78
-1692.04
-1707.11
-1720.51
-1732.55
-1743.43
)
;
    }
    frontAndBack
    {
        type            empty;
    }
    left_cyc
    {
        type            cyclic;
    }
    right_cyc
    {
        type            cyclic;
    }
}


// ************************************************************************* //
