/*--------------------------------*- C++ -*----------------------------------*\
| =========                 |                                                 |
| \\      /  F ield         | OpenFOAM: The Open Source CFD Toolbox           |
|  \\    /   O peration     | Version:  2.3.0                                 |
|   \\  /    A nd           | Web:      www.OpenFOAM.org                      |
|    \\/     M anipulation  |                                                 |
\*---------------------------------------------------------------------------*/
FoamFile
{
    version     2.0;
    format      ascii;
    class       volScalarField;
    location    "8000";
    object      p_rgh;
}
// * * * * * * * * * * * * * * * * * * * * * * * * * * * * * * * * * * * * * //

dimensions      [0 2 -2 0 0 0 0];

internalField   nonuniform List<scalar> 
3060
(
-38.8482
-42.0311
-47.9887
-56.6578
-67.967
-81.8524
-98.2673
-117.173
-138.509
-162.159
-187.919
-215.48
-244.407
-274.107
-303.779
-332.418
-358.962
-382.486
-402.224
-417.691
-429.025
-436.703
-441.49
-444.226
-445.603
-446.055
-445.748
-444.592
-442.238
-438.068
-431.26
-420.998
-406.705
-388.1
-365.497
-339.614
-311.35
-281.79
-252.009
-222.892
-195.102
-169.125
-145.31
-123.889
-104.998
-88.7083
-75.0641
-64.1107
-55.9069
-50.517
-47.9952
-48.3718
-51.6417
-57.7675
-66.6908
-78.3475
-92.6821
-109.651
-129.208
-151.268
-175.671
-202.158
-230.347
-259.707
-289.526
-318.858
-346.601
-371.71
-393.335
-410.821
-424.027
-433.321
-439.361
-442.986
-444.98
-445.892
-446.004
-445.338
-443.659
-440.465
-435.007
-426.442
-414.069
-397.478
-376.689
-352.3
-325.114
-296.102
-266.333
-236.767
-208.145
-181.016
-155.78
-132.716
-112.005
-93.7438
-77.9846
-64.7658
-54.1385
-46.1699
-40.9308
-38.4796
-66.8929
-69.5087
-74.4371
-81.6867
-91.2776
-103.236
-117.578
-134.284
-153.27
-174.376
-197.356
-221.86
-247.392
-273.286
-298.827
-323.622
-347.57
-369.981
-389.442
-404.817
-416.251
-424.335
-429.778
-433.225
-435.16
-435.865
-435.438
-433.826
-430.808
-425.96
-418.674
-408.244
-394.036
-375.66
-353.912
-330.264
-305.676
-280.346
-254.553
-228.995
-204.394
-181.3
-160.106
-141.088
-124.425
-110.211
-98.4712
-89.187
-82.3274
-77.8662
-75.791
-76.1005
-78.7943
-83.8759
-91.3616
-101.28
-113.662
-128.516
-145.803
-165.407
-187.125
-210.654
-235.565
-261.259
-286.991
-312.128
-336.511
-359.793
-380.806
-398.116
-411.287
-420.831
-427.418
-431.738
-434.359
-435.649
-435.782
-434.773
-432.48
-428.568
-422.503
-413.614
-401.209
-384.731
-364.357
-341.428
-317.231
-292.239
-266.544
-240.672
-215.35
-191.202
-168.681
-148.107
-129.703
-113.608
-99.8874
-88.5487
-79.5709
-72.9283
-68.6033
-66.5909
-81.1712
-83.997
-89.2857
-96.9838
-107.009
-119.238
-133.493
-149.55
-167.161
-186.088
-206.129
-227.123
-248.95
-271.55
-294.87
-318.405
-340.849
-360.819
-378.145
-393.214
-405.478
-414.168
-419.974
-423.753
-425.978
-426.831
-426.339
-424.491
-421.164
-415.999
-408.243
-397.023
-382.655
-366.01
-346.89
-325.132
-301.856
-278.556
-255.959
-234.162
-213.213
-193.229
-174.381
-156.881
-140.979
-126.933
-114.98
-105.302
-98.0291
-93.2447
-91.0033
-91.3385
-94.2437
-99.68
-107.587
-117.869
-130.386
-144.937
-161.28
-179.152
-198.315
-218.563
-239.74
-261.747
-284.54
-307.941
-330.987
-352.117
-370.542
-386.615
-400.282
-410.55
-417.543
-422.176
-425.096
-426.587
-426.729
-425.525
-422.922
-418.678
-412.212
-402.616
-389.507
-373.85
-355.883
-335.194
-312.302
-288.729
-265.584
-243.182
-221.565
-200.807
-181.038
-162.433
-145.203
-129.592
-115.845
-104.176
-94.7472
-87.6711
-83.0204
-80.8436
-61.3085
-64.2809
-69.8216
-77.8446
-88.2305
-100.818
-115.402
-131.738
-149.564
-168.631
-188.731
-209.714
-231.487
-253.98
-277.01
-299.914
-321.626
-341.626
-360.112
-376.152
-389.029
-399.35
-406.533
-411.137
-413.905
-415.015
-414.407
-412.124
-408.106
-401.823
-392.406
-380.357
-365.356
-347.527
-328.067
-306.931
-284.351
-261.385
-238.889
-217.126
-196.18
-176.145
-157.173
-139.477
-123.315
-108.959
-96.6645
-86.6472
-79.0736
-74.066
-71.7109
-72.0639
-75.1137
-80.7965
-89.0176
-99.6435
-112.495
-127.346
-143.933
-161.983
-181.249
-201.532
-222.697
-244.658
-267.312
-290.288
-312.585
-333.264
-352.343
-369.565
-383.723
-395.136
-403.722
-409.326
-412.867
-414.72
-414.879
-413.335
-410.124
-404.95
-396.927
-385.929
-372.283
-355.463
-336.564
-316.131
-294.009
-270.965
-248.048
-225.736
-204.164
-183.399
-163.552
-144.786
-127.324
-111.419
-97.3331
-85.3014
-75.518
-68.1324
-63.2545
-60.9628
-30.7506
-33.7437
-39.3107
-47.3546
-57.7498
-70.3413
-84.9466
-101.361
-119.372
-138.768
-159.351
-180.937
-203.334
-226.319
-249.569
-272.589
-294.852
-316.29
-336.932
-355.35
-370.238
-381.779
-390.194
-396.049
-399.684
-401.19
-400.399
-397.419
-392.305
-384.762
-374.308
-360.566
-343.266
-323.119
-301.896
-279.894
-257.058
-233.866
-210.875
-188.455
-166.858
-146.291
-126.949
-109.04
-92.7849
-78.4051
-66.1123
-56.0948
-48.5111
-43.4875
-41.12
-41.4753
-44.5394
-50.2374
-58.4659
-69.0902
-81.9437
-96.8313
-113.537
-131.839
-151.518
-172.372
-194.204
-216.799
-239.885
-263.046
-285.694
-307.471
-328.505
-348.099
-364.457
-377.335
-386.964
-393.846
-398.384
-400.815
-401.004
-398.928
-394.745
-388.256
-379.089
-366.69
-350.877
-331.679
-310.77
-289.141
-266.648
-243.51
-220.288
-197.429
-175.223
-153.88
-133.587
-114.533
-96.9173
-80.9536
-66.8544
-54.819
-45.0233
-37.6146
-32.7108
-30.4018
1.35912
-1.74738
-7.50993
-15.8123
-26.5094
-39.4304
-54.3827
-71.1603
-89.5541
-109.361
-130.393
-152.472
-175.42
-199.032
-223.037
-247.1
-270.702
-293.374
-314.677
-334.103
-351.044
-364.019
-373.125
-379.3
-383.463
-385.374
-384.389
-380.885
-375.485
-367.488
-355.932
-340.166
-321.367
-300.55
-278.197
-254.802
-230.822
-206.799
-183.127
-160.114
-137.987
-116.94
-97.1638
-78.8566
-62.2303
-47.5021
-34.885
-24.5764
-16.7503
-11.552
-9.09585
-9.46508
-12.6416
-18.5338
-27.0189
-37.9441
-51.1286
-66.3703
-83.4538
-102.162
-122.288
-143.633
-166.011
-189.222
-213.024
-237.082
-260.958
-284.121
-306.13
-326.454
-344.63
-359.335
-369.857
-377.085
-381.98
-384.912
-385.132
-382.552
-377.913
-371.06
-361.047
-346.966
-329.238
-309.294
-287.584
-264.635
-240.868
-216.783
-192.834
-169.366
-146.625
-124.801
-104.07
-84.612
-66.6194
-50.2973
-35.8552
-23.4964
-13.4083
-5.75568
-0.675986
1.72204
34.293
31.0346
25.0057
16.3451
5.22096
-8.17434
-23.6325
-40.9388
-59.8818
-80.2624
-101.899
-124.623
-148.273
-172.671
-197.596
-222.833
-247.942
-272.444
-295.753
-317.034
-335.277
-349.124
-358.108
-363.642
-367.096
-368.816
-367.939
-365.082
-360.432
-352.87
-340.661
-323.638
-303.115
-280.27
-255.997
-230.971
-205.705
-180.673
-156.144
-132.368
-109.542
-87.8467
-67.4601
-48.5756
-31.4016
-16.1577
-3.06562
7.66156
15.8292
21.2692
23.8457
23.4578
20.1277
13.966
5.11725
-6.24293
-19.9142
-35.6804
-53.3192
-72.6133
-93.3582
-115.365
-138.457
-162.453
-187.146
-212.275
-237.522
-262.401
-286.378
-308.707
-328.457
-344.326
-355.212
-361.85
-365.96
-368.401
-368.58
-366.341
-362.431
-356.171
-345.997
-330.895
-311.736
-289.844
-266.155
-241.45
-216.27
-191.089
-166.258
-142.029
-118.602
-96.1443
-74.8182
-54.7937
-36.2575
-19.4123
-4.47143
8.35111
18.8503
26.8395
32.1577
34.6745
65.9215
62.4518
56.0488
46.8812
35.1513
21.0857
4.92316
-13.0978
-32.751
-53.832
-76.1633
-99.5936
-123.989
-149.215
-175.118
-201.55
-228.107
-254.298
-279.49
-302.818
-323.162
-338.846
-348.201
-352.481
-354.427
-355.233
-354.905
-353.517
-350.376
-343.019
-329.256
-310.119
-287.511
-262.709
-236.662
-210.086
-183.522
-157.418
-131.98
-107.389
-83.7956
-61.3512
-40.2194
-20.5889
-2.67434
13.2888
27.0545
38.3784
47.0317
52.813
55.5576
55.144
51.5986
45.0553
35.6889
23.7089
9.34948
-7.14344
-25.5254
-45.5654
-67.0556
-89.8143
-113.683
-138.514
-164.151
-190.406
-217.016
-243.509
-269.309
-293.639
-315.489
-333.435
-345.499
-351.46
-353.983
-355.086
-355.115
-354.04
-351.677
-346.357
-335.326
-318.232
-296.979
-273.072
-247.547
-221.209
-194.642
-168.311
-142.567
-117.542
-93.3846
-70.2266
-48.2052
-27.4779
-8.22945
9.32945
24.9683
38.4475
49.53
57.9946
63.6471
66.3285
95.5248
91.7705
84.8602
75.0022
62.4465
47.4697
30.3581
11.3905
-9.17758
-31.1259
-54.2762
-78.4929
-103.676
-129.744
-156.619
-184.192
-212.1
-239.858
-266.81
-292.063
-314.463
-332.449
-344.001
-348.754
-349.797
-349.942
-350.02
-349.637
-346.613
-337.441
-321.269
-300.01
-275.424
-248.789
-221.088
-193.061
-165.254
-138.083
-111.716
-86.2578
-61.8082
-38.4824
-16.4294
4.16032
23.0544
39.9863
54.6677
66.8058
76.1211
82.3654
85.3366
84.8886
81.0525
73.9907
63.9182
51.0929
35.7995
18.3315
-1.02719
-22.0177
-44.4183
-68.0496
-92.7726
-118.478
-145.07
-172.438
-200.345
-228.345
-255.849
-282.055
-305.913
-326.045
-340.537
-347.849
-349.853
-349.999
-349.91
-349.679
-348.021
-341.697
-328.299
-308.982
-285.71
-259.914
-232.676
-204.823
-176.957
-149.524
-122.86
-97.0176
-72.0787
-48.1288
-25.2769
-3.66929
16.5044
35.0138
51.596
65.9688
77.8465
86.9581
93.0631
95.9659
123.001
118.873
111.293
100.52
86.8684
70.6835
52.319
32.113
10.3669
-12.67
-36.8102
-61.9299
-87.9627
-114.885
-142.693
-171.305
-200.405
-229.54
-258.066
-285.093
-309.464
-329.726
-344.129
-351.588
-353.89
-354.287
-354.275
-353.063
-347.714
-335.552
-316.933
-293.622
-267.189
-238.896
-209.726
-180.409
-151.466
-123.266
-95.9557
-69.5639
-44.1337
-19.7472
3.45711
25.2773
45.4493
63.6573
79.5511
92.7683
102.96
109.815
113.083
112.59
108.372
100.626
89.618
75.6724
59.1437
40.3936
19.7653
-2.43742
-25.9659
-50.6349
-76.3216
-102.956
-130.5
-158.925
-188.008
-217.345
-246.367
-274.281
-300.036
-322.292
-339.391
-349.693
-353.622
-354.314
-354.234
-353.583
-350.268
-341.033
-324.937
-303.448
-278.258
-250.74
-221.978
-192.796
-163.781
-135.344
-107.773
-81.0837
-55.2856
-30.4127
-6.54555
16.1755
37.5464
57.303
75.1326
90.6907
103.624
113.592
120.293
123.486
148.698
144.093
135.655
123.708
108.646
90.905
70.9276
49.1321
25.8849
1.4793
-23.8766
-50.0635
-77.0447
-104.85
-133.549
-163.076
-193.179
-223.453
-253.289
-281.826
-307.942
-330.273
-347.315
-357.958
-362.848
-364.293
-363.742
-360.382
-351.862
-336.824
-315.979
-290.824
-262.796
-233.107
-202.708
-172.296
-142.345
-113.164
-84.8809
-57.4534
-30.8725
-5.19191
19.4521
42.8335
64.64
84.4867
101.939
116.542
127.857
135.493
139.139
138.589
133.885
125.262
113.055
97.6696
79.553
59.1578
36.9081
13.172
-11.7596
-37.684
-64.4874
-92.1334
-120.639
-150.054
-180.165
-210.63
-240.922
-270.282
-297.69
-321.87
-341.341
-354.685
-361.645
-364.076
-364.123
-362.001
-355.805
-343.464
-324.904
-301.446
-274.577
-245.603
-215.578
-185.296
-155.306
-125.971
-97.5117
-69.9268
-43.1529
-17.1758
7.94744
32.0747
54.9748
76.3339
95.7697
112.855
127.145
138.212
145.677
149.239
173.186
167.994
158.496
145.091
128.276
108.595
86.6056
62.8262
37.7076
11.604
-15.2427
-42.7071
-70.7739
-99.5177
-129.071
-159.389
-190.293
-221.44
-252.269
-281.963
-309.448
-333.445
-352.594
-365.829
-373.148
-375.752
-374.575
-369.064
-357.87
-340.539
-317.895
-291.272
-262.003
-231.24
-199.887
-168.591
-137.766
-107.647
-78.3366
-49.7346
-21.7883
5.46785
31.8882
57.2078
81.048
102.934
122.324
138.648
151.354
159.953
164.064
163.444
158.141
148.436
134.742
117.569
97.4775
75.0348
50.7684
25.1308
-1.52771
-28.973
-57.0897
-85.8691
-115.382
-145.704
-176.684
-208.046
-239.32
-269.793
-298.495
-324.216
-345.599
-361.374
-370.987
-375.242
-375.446
-371.751
-362.975
-348.143
-327.607
-302.572
-274.394
-244.309
-213.327
-182.195
-151.416
-121.283
-91.9472
-63.3883
-35.4819
-8.17267
18.4971
44.3719
69.1795
92.5389
113.978
132.965
148.942
161.371
169.78
173.796
197.094
191.204
180.439
165.289
146.368
124.356
99.9399
73.7632
46.3789
18.218
-10.4289
-39.4168
-68.74
-98.5068
-128.889
-159.882
-191.388
-223.134
-254.612
-285.057
-313.454
-338.591
-359.201
-374.226
-383.266
-386.734
-385.071
-377.993
-364.937
-346.008
-322.112
-294.491
-264.397
-232.915
-200.894
-168.924
-137.35
-106.331
-75.9109
-45.9639
-16.4038
12.742
41.3039
68.9618
95.2526
119.592
141.308
159.695
174.064
183.813
188.476
187.774
181.758
170.761
155.288
135.971
113.507
88.5999
61.9024
33.9705
5.23166
-24.0327
-53.6918
-83.7517
-114.324
-145.495
-177.196
-209.224
-241.173
-272.387
-301.953
-328.729
-351.448
-368.913
-380.386
-385.993
-386.326
-381.47
-370.887
-354.335
-332.43
-306.321
-277.279
-246.475
-214.861
-183.136
-151.743
-120.903
-90.6859
-61.0482
-31.8188
-2.91411
25.6257
53.6178
80.7341
106.509
130.362
151.635
169.635
183.695
193.229
197.787
221.012
214.316
202.087
184.918
163.559
138.839
111.6
82.6245
52.5846
22.003
-8.76734
-39.5447
-70.3189
-101.22
-132.418
-163.991
-195.917
-227.999
-259.784
-290.559
-319.374
-345.093
-366.514
-382.579
-392.641
-396.632
-394.653
-386.617
-372.457
-352.605
-328.031
-299.917
-269.433
-237.594
-205.177
-172.726
-140.511
-108.607
-76.9792
-45.4976
-14.0584
17.3028
48.3746
78.7649
107.91
135.099
159.512
180.285
196.578
207.652
212.951
212.154
205.318
192.829
175.299
153.5
128.285
100.514
70.9819
40.3667
9.18828
-22.2067
-53.6547
-85.1602
-116.855
-148.841
-181.134
-213.614
-245.945
-277.519
-307.493
-334.804
-358.259
-376.711
-389.293
-395.737
-396.163
-390.606
-378.956
-361.413
-338.761
-312.119
-282.689
-251.568
-219.642
-187.565
-155.716
-124.239
-93.1192
-62.2757
-31.5106
-0.728277
30.0166
60.498
90.3172
118.91
145.57
169.495
189.838
205.784
216.618
221.798
245.437
237.84
223.974
204.547
180.459
152.706
122.297
90.1676
57.1203
23.7802
-9.42817
-42.2612
-74.6861
-106.834
-138.869
-170.954
-203.149
-235.345
-267.126
-297.813
-326.559
-352.313
-373.95
-390.428
-400.982
-405.238
-403.075
-394.536
-379.868
-359.7
-335.003
-306.893
-276.451
-244.597
-212.008
-179.241
-146.463
-113.664
-80.7253
-47.515
-13.9339
19.9569
53.8808
87.3582
119.715
150.099
177.53
200.972
219.414
231.972
237.981
237.078
229.324
215.167
195.338
170.763
142.467
111.482
78.7591
45.1082
11.1527
-22.6754
-56.1593
-89.2836
-122.178
-154.967
-187.751
-220.5
-252.963
-284.527
-314.46
-341.792
-365.417
-384.239
-397.356
-404.248
-404.739
-398.827
-386.681
-368.773
-345.957
-319.315
-289.969
-258.925
-226.965
-194.745
-162.571
-130.503
-98.4422
-66.2502
-33.7282
-0.786429
32.4858
65.799
98.6751
130.44
160.25
187.144
210.109
228.165
240.453
246.328
270.769
262.192
246.55
224.679
197.643
166.614
132.775
97.2196
60.8888
24.5146
-11.4172
-46.5506
-80.8183
-114.33
-147.249
-179.811
-212.142
-244.183
-275.62
-305.881
-334.184
-359.568
-380.984
-397.429
-408.082
-412.409
-410.161
-401.457
-386.717
-366.663
-342.248
-314.512
-284.447
-252.884
-220.439
-187.512
-154.222
-120.495
-86.1365
-51.012
-15.0524
21.6476
58.7068
95.5474
131.385
165.224
195.914
222.238
243.007
257.176
263.959
262.94
254.187
238.221
215.904
188.332
156.71
122.248
86.0612
49.0976
12.0776
-24.4527
-60.1986
-95.1118
-129.292
-162.895
-196.093
-228.919
-261.185
-292.429
-321.978
-348.951
-372.332
-391.09
-404.317
-411.371
-411.904
-405.896
-393.674
-375.846
-353.296
-327.052
-298.151
-267.515
-235.87
-203.732
-171.34
-138.699
-105.646
-71.9514
-37.461
-2.09915
33.9836
70.4052
106.614
141.819
175.035
205.137
230.935
251.275
265.142
271.774
297.317
287.695
270.181
245.756
215.651
181.22
143.814
104.686
64.9127
25.3468
-13.4086
-50.9776
-87.2257
-122.203
-156.077
-189.138
-221.565
-253.363
-284.301
-313.909
-341.496
-366.2
-387.065
-403.145
-413.616
-417.879
-415.613
-406.982
-392.486
-372.871
-349.043
-321.956
-292.497
-261.398
-229.182
-196.14
-162.327
-127.608
-91.735
-54.5623
-16.0803
23.5348
63.857
104.211
143.675
181.103
215.179
244.506
267.712
283.581
291.192
290.048
280.231
262.358
237.441
206.75
171.673
133.596
93.7989
53.3732
13.1765
-26.1769
-64.3301
-101.161
-136.712
-171.179
-204.788
-237.631
-269.597
-300.33
-329.252
-355.583
-378.408
-396.776
-409.81
-416.823
-417.384
-411.463
-399.465
-382.054
-360.096
-334.55
-306.359
-276.344
-245.143
-213.166
-180.579
-147.328
-113.199
-77.893
-41.2942
-3.39121
35.6208
75.3096
115.006
153.797
190.552
223.986
252.736
275.468
291.002
298.445
325.339
314.652
295.259
268.294
235.158
197.374
156.448
113.776
70.5589
27.7597
-13.9209
-54.0371
-92.3798
-128.926
-163.854
-197.487
-230.048
-261.593
-291.972
-320.808
-347.515
-371.341
-391.433
-406.923
-417.028
-421.136
-418.896
-410.492
-396.449
-377.487
-354.443
-328.168
-299.437
-268.871
-236.894
-203.708
-169.303
-133.5
-96.0145
-56.6865
-15.5825
27.0382
70.6685
114.533
157.591
198.56
235.975
268.27
293.902
311.484
319.942
318.668
307.767
287.982
260.482
226.71
188.227
146.582
103.2
59.3048
15.8698
-26.3995
-67.0641
-105.92
-142.939
-178.355
-212.434
-245.315
-276.955
-307.095
-335.256
-360.771
-382.838
-400.599
-413.239
-420.081
-420.663
-414.949
-403.376
-386.607
-365.459
-340.803
-313.473
-284.185
-253.472
-221.653
-188.824
-154.88
-119.565
-82.5468
-43.7279
-3.17206
38.8542
81.8407
125.018
167.359
207.604
244.323
275.991
301.107
318.323
326.597
355.064
343.362
322.194
292.849
256.884
215.969
171.746
125.727
79.2201
33.284
-11.2901
-53.9721
-94.467
-132.666
-168.756
-203.073
-235.864
-267.229
-297.081
-325.135
-350.912
-373.773
-392.978
-407.757
-417.39
-421.29
-419.099
-411.008
-397.528
-379.328
-357.153
-331.742
-303.751
-273.689
-241.882
-208.457
-173.353
-136.362
-97.1859
-55.6526
-11.918
33.6663
80.5018
127.717
174.166
218.453
258.983
294.053
321.961
341.161
350.428
349.029
337.096
315.508
285.588
248.939
207.275
162.282
115.51
68.292
21.7052
-23.4517
-66.6482
-107.59
-146.161
-182.634
-217.287
-250.295
-281.67
-311.235
-338.612
-363.251
-384.466
-401.51
-413.648
-420.246
-420.846
-415.409
-404.374
-388.37
-368.138
-344.449
-318.022
-289.459
-259.19
-227.451
-194.276
-159.523
-122.917
-84.1107
-43.025
0.189285
45.1803
91.3519
137.843
183.528
227.039
266.823
301.218
328.571
347.377
356.446
386.657
374.061
351.348
319.946
281.544
237.93
190.846
141.892
92.4549
43.669
-3.59518
-48.7229
-91.3275
-131.204
-168.543
-203.666
-236.822
-268.136
-297.576
-324.935
-349.834
-371.75
-390.059
-404.096
-413.22
-416.89
-414.753
-407
-394.111
-376.682
-355.356
-330.757
-303.421
-273.751
-241.984
-208.185
-172.263
-134.003
-93.1166
-49.4289
-3.19503
45.1371
94.8788
145.074
194.495
241.659
284.878
322.339
352.218
372.831
382.812
381.301
368.461
345.303
313.291
274.162
229.752
181.849
132.095
81.9092
32.4493
-15.4
-61.0173
-104.012
-144.176
-181.8
-217.154
-250.423
-281.66
-310.755
-337.426
-361.231
-381.607
-397.918
-409.526
-415.858
-416.478
-411.345
-400.885
-385.673
-366.361
-343.61
-318.024
-290.092
-260.148
-228.354
-194.699
-159.022
-121.05
-80.4486
-37.1594
8.57094
56.3002
105.349
154.779
203.386
249.725
292.149
328.895
358.184
378.379
388.149
420.231
406.94
383.045
350.088
309.856
264.211
214.958
163.74
111.989
60.8869
11.3645
-35.8901
-80.4018
-121.867
-160.464
-196.474
-230.122
-261.54
-290.728
-317.544
-341.699
-362.777
-380.264
-393.601
-402.235
-405.677
-403.587
-396.154
-383.813
-367.082
-346.502
-322.582
-295.749
-266.31
-234.43
-200.132
-163.314
-123.778
-81.2765
-35.6477
12.7526
63.3847
115.483
168.027
219.738
269.086
314.33
353.592
384.964
406.661
417.199
415.601
402.056
377.697
344.103
303.109
256.628
206.51
154.447
101.906
50.0995
-0.020948
-47.7527
-92.6108
-134.309
-173.117
-209.266
-242.933
-274.189
-302.975
-329.087
-352.185
-371.817
-387.459
-398.572
-404.653
-405.298
-400.463
-390.556
-376.084
-357.609
-335.683
-310.798
-283.34
-253.56
-221.563
-187.311
-150.645
-111.318
-69.0407
-23.7815
24.1154
74.1228
125.491
177.225
228.076
276.552
320.961
359.473
390.231
411.492
421.81
455.852
442.147
417.575
383.756
342.531
295.788
245.34
192.83
139.689
87.1124
36.0595
-12.7295
-58.7065
-101.478
-141.188
-178.048
-212.236
-243.864
-272.947
-299.385
-322.963
-343.352
-360.142
-372.871
-381.068
-384.302
-382.244
-375.082
-363.204
-347.052
-327.071
-303.667
-277.174
-247.819
-215.718
-180.875
-143.199
-102.538
-58.7143
-11.6003
38.356
90.54
144.133
198.086
251.104
301.657
348.001
388.247
420.454
442.778
453.652
451.999
438.035
412.988
378.517
336.507
288.898
237.55
184.154
130.182
76.865
25.1901
-24.0796
-70.3756
-113.371
-153.246
-190.178
-224.307
-255.702
-284.332
-310.051
-332.602
-351.63
-366.715
-377.408
-383.278
-383.953
-379.39
-369.97
-356.139
-338.368
-317.111
-292.76
-265.614
-235.86
-203.567
-168.69
-131.097
-90.5949
-46.9651
-0.217882
49.2163
100.742
153.564
206.662
258.779
308.425
353.906
393.381
424.958
446.836
457.486
493.546
479.789
455.188
421.397
380.254
333.619
283.256
230.757
177.503
124.656
73.1676
23.7936
-22.8736
-66.3739
-106.791
-144.24
-178.829
-210.627
-239.641
-265.792
-288.911
-308.742
-324.954
-337.17
-344.994
-348.044
-346.005
-339.06
-327.559
-311.875
-292.369
-269.366
-243.123
-213.816
-181.535
-146.288
-108.021
-66.652
-22.0955
25.71
76.2499
128.867
182.727
236.791
289.802
340.276
386.526
426.707
458.904
481.267
492.19
490.526
476.51
451.435
416.99
375.056
327.543
276.26
222.846
168.727
115.103
62.9581
13.0784
-33.9173
-77.6621
-118.23
-155.713
-190.192
-221.708
-250.233
-275.656
-297.78
-316.327
-330.96
-341.312
-347.014
-347.724
-343.397
-334.392
-321.098
-303.908
-283.192
-259.26
-232.349
-202.602
-170.076
-134.743
-96.5211
-55.2934
-10.9406
36.4726
86.4545
138.372
191.421
244.596
296.678
346.227
391.603
431.008
462.574
484.492
495.192
533.303
519.933
496.088
463.399
423.642
378.591
329.902
279.059
227.345
175.839
125.435
76.8611
30.7091
-12.5354
-52.8673
-90.2881
-124.818
-156.466
-185.208
-210.964
-233.588
-252.869
-268.538
-280.282
-287.766
-290.647
-288.624
-281.878
-270.725
-255.483
-236.449
-213.887
-188.005
-158.952
-126.815
-91.6292
-53.3995
-12.1271
32.1587
79.4257
129.136
180.637
233.126
285.628
336.972
385.78
430.475
469.319
500.483
522.172
532.796
531.174
517.553
493.249
459.922
419.392
373.473
323.867
272.103
219.505
167.193
116.094
66.9719
20.4473
-23.0921
-63.5927
-101.042
-135.443
-166.788
-195.031
-220.069
-241.739
-259.815
-274.024
-284.062
-289.611
-290.354
-286.243
-277.617
-264.819
-248.181
-228.005
-204.546
-177.999
-148.492
-116.088
-80.8002
-42.6115
-1.50084
42.5314
89.3562
138.463
189.225
240.875
292.472
342.883
390.772
434.607
472.692
503.241
524.5
534.906
575.074
562.6
540.414
510.062
473.198
431.446
386.3
339.084
290.931
242.789
195.443
149.541
105.616
64.1225
25.1759
-11.105
-44.6468
-75.391
-103.268
-128.179
-149.98
-168.485
-183.461
-194.643
-201.74
-204.442
-202.458
-195.969
-185.265
-170.623
-152.296
-130.506
-105.439
-77.2382
-46.0065
-11.8221
25.2437
65.0976
107.593
152.578
199.555
247.932
296.999
345.896
393.591
438.864
480.307
516.345
545.3
565.495
575.415
573.897
561.19
538.573
507.623
470.03
427.452
381.426
333.314
284.287
235.329
187.26
140.759
96.3922
54.5325
15.3734
-20.9621
-54.3927
-84.8497
-112.251
-136.483
-157.394
-174.788
-188.432
-198.067
-203.414
-204.175
-200.299
-192.11
-179.913
-163.993
-144.609
-121.98
-96.2836
-67.6488
-36.1662
-1.89932
35.0936
74.7332
116.891
161.37
207.7
255.317
303.542
351.548
398.339
442.734
483.361
518.685
547.064
566.858
576.575
618.781
607.763
588.224
561.563
529.247
492.691
453.177
411.82
369.559
327.167
285.276
244.395
204.94
167.261
131.595
98.1675
67.1349
38.6176
12.7297
-10.4025
-30.6288
-47.7696
-61.6165
-71.9349
-78.4677
-80.9325
-79.0522
-73.0042
-63.0585
-49.4594
-32.4303
-12.1721
11.1398
37.3558
66.3464
97.9905
132.155
168.667
207.275
247.699
289.555
332.379
375.607
418.545
460.349
500.004
536.317
567.936
593.391
611.192
619.963
618.618
607.392
587.472
560.278
527.308
490.007
449.691
407.505
364.421
321.241
278.624
237.107
197.13
159.011
123.073
89.5398
58.5673
30.2819
4.80465
-17.7311
-37.1693
-53.3282
-66.0006
-74.9576
-79.9493
-80.6961
-77.144
-69.6001
-58.3393
-43.613
-25.6492
-4.64914
19.2156
45.8019
74.9881
106.661
140.694
176.919
215.088
254.948
296.135
338.21
380.633
422.739
463.713
502.57
538.15
569.131
594.075
611.52
620.111
664.316
655.338
639.479
617.921
591.881
562.509
530.829
497.708
463.858
429.846
396.108
362.977
330.695
299.433
269.539
241.31
214.952
190.623
168.463
148.617
131.237
116.496
104.582
95.7034
90.0851
87.9786
89.6375
94.895
103.507
115.258
129.95
147.401
167.441
189.919
214.688
241.6
270.488
301.13
333.207
366.327
400.292
434.826
469.557
503.997
537.523
569.362
598.581
624.095
644.706
659.173
666.329
665.229
656.08
639.906
617.908
591.325
561.33
528.972
495.142
460.574
425.853
391.436
357.667
324.802
293.045
262.824
234.425
208.05
183.859
161.998
142.614
125.863
111.916
100.961
93.1988
88.8519
88.1749
91.2213
97.7111
107.401
120.07
135.516
153.555
174.019
196.759
221.632
248.495
277.181
307.464
339.011
371.539
404.859
438.707
472.727
506.448
539.269
570.439
599.046
624.032
644.222
658.395
665.403
711.565
705.207
694.049
678.987
660.922
640.69
619.012
596.481
573.557
550.579
527.78
505.289
483.141
461.28
440.115
419.955
400.999
383.4
367.287
352.791
340.045
329.196
320.4
313.827
309.658
308.1
309.365
313.31
319.733
328.457
339.319
352.169
366.863
383.265
401.245
420.665
441.367
463.138
485.656
508.464
531.608
555.033
578.581
601.989
624.876
646.734
666.924
684.676
699.116
709.319
714.397
713.614
707.131
695.744
680.36
661.897
641.207
619.026
595.96
572.483
548.943
525.575
502.509
479.772
457.408
435.887
415.497
396.435
378.85
362.877
348.648
336.3
325.977
317.835
312.039
308.77
308.241
310.499
315.313
322.482
331.828
343.186
356.402
371.333
387.845
405.812
425.096
445.537
466.909
488.851
511.099
533.688
556.557
579.551
602.413
624.773
646.137
665.879
683.245
697.378
707.368
712.339
760.354
757.159
751.653
744.374
735.848
726.541
716.834
707.016
697.283
687.746
678.437
669.3
660.18
650.785
641.494
632.536
624.034
616.067
608.703
602.01
596.063
590.944
586.747
583.575
581.541
580.781
581.437
583.41
586.568
590.797
595.997
602.079
608.959
616.563
624.821
633.66
642.997
652.705
662.549
672.107
681.676
691.406
701.34
711.431
721.545
731.459
740.853
749.316
756.355
761.429
763.997
763.597
760.332
754.698
747.24
738.492
728.928
718.935
708.808
698.746
688.859
679.17
669.609
659.986
650.156
640.531
631.313
622.616
614.521
607.097
600.416
594.555
589.597
585.636
582.775
581.13
580.843
581.95
584.292
587.742
592.188
597.531
603.681
610.555
618.083
626.196
634.824
643.878
653.208
662.524
671.645
680.828
690.203
699.801
709.573
719.387
729.022
738.167
746.416
753.285
758.24
760.749
810.712
811.148
812.107
813.702
816.016
819.092
822.926
827.474
832.656
838.36
844.442
850.722
856.951
862.717
868.189
873.386
878.263
882.763
886.828
890.41
893.472
895.985
897.936
899.32
900.151
900.456
900.281
899.593
898.359
896.566
894.213
891.316
887.9
884.003
879.673
874.966
869.942
864.647
859.07
853.017
846.915
841.021
835.518
830.551
826.227
822.624
819.776
817.678
816.275
815.477
815.163
815.204
815.632
816.576
818.152
820.442
823.486
827.281
831.779
836.896
842.513
848.475
854.581
860.533
866.038
871.268
876.216
880.831
885.053
888.829
892.114
894.871
897.079
898.727
899.816
900.367
900.417
899.979
899.007
897.476
895.378
892.72
889.52
885.808
881.624
877.021
872.054
866.779
861.225
855.318
849.061
842.819
836.823
831.245
826.22
821.852
818.214
815.339
813.219
811.8
810.99
810.67
)
;

boundaryField
{
    top
    {
        type            fixedFluxPressure;
        gradient        nonuniform List<scalar> 
102
(
1551.93
1671.83
1884.68
2175.72
2529.62
2931.8
3369.19
3830.72
4307.37
4792.26
5280.77
5771.16
6266.48
6780.37
7290.97
7786.3
8258.98
8703.12
9113.44
9484.85
9812.39
10091.2
10316.7
10484.3
10589.8
10629.1
10598.6
10500.6
10339.2
10118.4
9842.42
9515.92
9143.65
8730.59
8281.94
7803.16
7300.36
6781.16
6257.53
5753.47
5254.86
4758.8
4267.42
3785.89
3321.77
2884.83
2486.95
2141.92
1864.91
1671.53
1576.34
1590.93
1712.79
1929.28
2225.39
2585.51
2994.76
3439.82
3909.33
4394.12
4887.27
5384.38
5884.6
6393.55
6917.03
7432.72
7929.92
8401.45
8841.4
9244.37
9605.23
9919.06
10181.1
10386.9
10532.2
10613
10625.4
10568.4
10446.3
10263.3
10023.5
9731.51
9392.07
9010.04
8590.41
8138.31
7659.18
7159.26
6647.01
6138.11
5643.87
5153.58
4665.49
4182.09
3708.56
3252.32
2822.94
2432.01
2093.04
1820.91
1630.94
1537.47
)
;
        value           nonuniform List<scalar> 
102
(
836.578
839.012
843.518
849.964
858.177
867.955
879.079
891.319
904.446
918.231
932.455
946.908
961.392
975.723
989.705
1003.16
1015.91
1027.81
1038.72
1048.49
1057.01
1064.17
1069.88
1074.06
1076.65
1077.61
1076.92
1074.6
1070.68
1065.2
1058.25
1049.91
1040.29
1029.51
1017.71
1005.02
991.614
977.666
963.362
948.908
934.496
920.334
906.642
893.649
881.59
870.704
861.226
853.376
847.357
843.336
841.435
841.72
844.178
848.731
855.242
863.533
873.399
884.611
896.935
910.132
923.967
938.215
952.658
967.092
981.322
995.147
1008.38
1020.85
1032.41
1042.9
1052.2
1060.19
1066.76
1071.84
1075.35
1077.25
1077.51
1076.12
1073.11
1068.53
1062.44
1054.91
1046.05
1035.97
1024.8
1012.66
999.707
986.099
972.009
957.62
943.125
928.712
914.582
900.947
888.029
876.058
865.263
855.873
848.103
842.148
838.172
836.295
)
;
    }
    bottom
    {
        type            fixedFluxPressure;
        gradient        nonuniform List<scalar> 
102
(
0
0
0
0
0
0
0
0
0
0
0
0
0
0
0
0
0
0
0
0
0
0
0
0
0
0
0
0
0
0
0
0
0
0
0
0
0
0
0
0
0
0
0
0
0
0
0
0
0
0
0
0
0
0
0
0
0
0
0
0
0
0
0
0
0
0
0
0
0
0
0
0
0
0
0
0
0
0
0
0
0
0
0
0
0
0
0
0
0
0
0
0
0
0
0
0
0
0
0
0
0
-1.65897e-14
)
;
        value           nonuniform List<scalar> 
102
(
-38.8482
-42.0311
-47.9887
-56.6578
-67.967
-81.8524
-98.2673
-117.173
-138.509
-162.159
-187.919
-215.48
-244.407
-274.107
-303.779
-332.418
-358.962
-382.486
-402.224
-417.691
-429.025
-436.703
-441.49
-444.226
-445.603
-446.055
-445.748
-444.592
-442.238
-438.068
-431.26
-420.998
-406.705
-388.1
-365.497
-339.614
-311.35
-281.79
-252.009
-222.892
-195.102
-169.125
-145.31
-123.889
-104.998
-88.7083
-75.0641
-64.1107
-55.9069
-50.517
-47.9952
-48.3718
-51.6417
-57.7675
-66.6908
-78.3475
-92.6821
-109.651
-129.208
-151.268
-175.671
-202.158
-230.347
-259.707
-289.526
-318.858
-346.601
-371.71
-393.335
-410.821
-424.027
-433.321
-439.361
-442.986
-444.98
-445.892
-446.004
-445.338
-443.659
-440.465
-435.007
-426.442
-414.069
-397.478
-376.689
-352.3
-325.114
-296.102
-266.333
-236.767
-208.145
-181.016
-155.78
-132.716
-112.005
-93.7438
-77.9846
-64.7658
-54.1385
-46.1699
-40.9308
-38.4796
)
;
    }
    frontAndBack
    {
        type            empty;
    }