/*--------------------------------*- C++ -*----------------------------------*\
| =========                 |                                                 |
| \\      /  F ield         | OpenFOAM: The Open Source CFD Toolbox           |
|  \\    /   O peration     | Version:  2.3.0                                 |
|   \\  /    A nd           | Web:      www.OpenFOAM.org                      |
|    \\/     M anipulation  |                                                 |
\*---------------------------------------------------------------------------*/
FoamFile
{
    version     2.0;
    format      ascii;
    class       volScalarField;
    location    "8000";
    object      p_rgh;
}
// * * * * * * * * * * * * * * * * * * * * * * * * * * * * * * * * * * * * * //

dimensions      [0 2 -2 0 0 0 0];

internalField   nonuniform List<scalar> 
765
(
-71.5679
-85.4997
-111.003
-146.872
-191.437
-242.224
-295.386
-345.813
-389.715
-425.007
-447.074
-456.027
-458.363
-456.958
-450.009
-431.602
-398.558
-356.58
-307.346
-254.344
-202.579
-156.276
-118.167
-90.0649
-73.2633
-68.6523
-76.5486
-96.444
-127.332
-167.804
-215.857
-268.425
-320.877
-368.556
-408.3
-438.245
-452.915
-457.949
-458.397
-454.863
-443.313
-417.108
-379.561
-333.654
-282.082
-229.063
-179.546
-136.976
-103.574
-80.8748
-69.9878
-113.911
-124.71
-144.057
-170.77
-203.594
-241.139
-282.051
-325.716
-367.134
-398.029
-419.034
-430.743
-434.167
-432.045
-422.703
-403.574
-375.239
-335.835
-291.919
-250.17
-211.683
-177.59
-149.293
-128.066
-115.104
-111.475
-117.663
-132.925
-156.139
-186.094
-221.483
-260.883
-303.378
-347.181
-383.905
-409.542
-426.427
-433.379
-434.081
-429.059
-414.668
-391.461
-357.633
-314.648
-271.524
-231.356
-194.858
-163.444
-138.464
-121.152
-112.665
-61.2399
-72.7732
-93.2262
-121.227
-155.458
-194.748
-238.067
-284.658
-330.173
-365.892
-390.866
-403.753
-407.622
-405.105
-394.932
-372.445
-339.325
-295.385
-248.389
-204.221
-163.879
-128.343
-98.7401
-76.3514
-62.5472
-58.6258
-65.2869
-81.5009
-105.934
-137.225
-174.134
-215.571
-260.671
-307.697
-349.23
-379.566
-398.991
-406.511
-407.387
-401.903
-385.747
-358.077
-319.373
-272.796
-226.888
-184.486
-146.36
-113.574
-87.3346
-68.9861
-59.8876
7.76416
-5.62067
-29.0735
-60.7262
-98.8352
-141.955
-188.88
-238.501
-287.358
-330.985
-362.258
-376.307
-380.408
-377.815
-366.806
-339.508
-297.756
-249.79
-199.856
-152.245
-108.149
-68.7495
-35.4196
-9.83854
6.13459
10.7171
2.94402
-15.7641
-43.5804
-78.6721
-119.442
-164.59
-212.965
-262.912
-309.627
-348.583
-371.204
-379.361
-380.244
-374.301
-356.216
-320.795
-275.491
-225.921
-176.841
-130.756
-88.7719
-52.1316
-22.3576
-1.24618
9.34598
65.5118
49.678
22.3682
-13.6652
-55.9844
-102.895
-153.535
-207.684
-262.5
-313.015
-350.732
-368.605
-374.204
-370.559
-356.445
-323.125
-274.464
-220.121
-165.335
-114.007
-66.2293
-22.7365
14.9718
44.6074
63.4444
68.8914
59.6528
37.6713
5.63063
-33.8111
-78.5621
-127.366
-179.722
-234.786
-288.174
-333.996
-362.007
-372.593
-373.856
-365.98
-343.241
-301.081
-248.949
-193.872
-140.558
-90.7988
-44.9257
-3.98674
30.1183
54.8233
67.3903
118.485
98.8954
65.5595
22.6323
-26.2229
-78.6317
-133.777
-192.156
-251.656
-308.07
-354.164
-380.717
-389.386
-383.939
-362.095
-319.76
-264.849
-205.597
-146.658
-90.9132
-37.9054
11.9004
56.5017
92.494
115.75
122.492
111.04
83.9832
45.3055
-0.965796
-51.7599
-105.512
-162.165
-221.45
-280.04
-332.634
-370.035
-386.925
-388.749
-376.201
-344.165
-294.488
-236.82
-177.327
-119.775
-65.2972
-13.6402
34.0163
74.9333
105.232
120.804
168.219
143.493
101.815
49.2412
-8.83176
-68.8954
-129.719
-191.889
-254.321
-313.875
-364.456
-397.654
-409.833
-402.178
-373.77
-326.402
-268.217
-206.086
-143.763
-82.7535
-22.5458
36.1674
90.4408
135.258
164.58
173.074
158.618
124.572
76.6542
20.778
-38.5209
-98.9295
-160.273
-222.695
-284.202
-340.335
-383.438
-406.294
-408.847
-391.42
-353.069
-299.444
-238.764
-176.273
-114.506
-53.857
5.90298
63.0215
113.446
151.467
171.134
218.359
187.238
135.21
70.5978
0.853791
-69.0593
-136.987
-202.456
-266.034
-325.877
-377.089
-412.455
-426.525
-417.592
-386.761
-338.487
-280.074
-217.107
-152.106
-84.9143
-15.453
54.5777
120.957
176.73
213.593
224.282
206.075
163.347
103.943
35.9987
-34.1502
-103.111
-169.576
-234.061
-296.146
-352.533
-396.942
-422.324
-425.322
-405.538
-365.43
-311.411
-250.331
-186.281
-120.353
-51.8083
18.3264
87.3794
149.644
197.251
222.021
271.502
233.086
169.707
92.0632
9.62639
-70.9049
-145.923
-214.462
-278.288
-336.821
-386.537
-421.529
-436.031
-426.766
-396.013
-349.09
-292.176
-229.445
-162.126
-88.8348
-9.52367
72.8411
152.329
220.054
265.414
278.739
256.105
203.704
131.817
50.7847
-31.2218
-109.114
-180.553
-246.558
-307.947
-362.727
-406.049
-431.643
-434.768
-414.582
-375.215
-322.793
-262.76
-197.883
-128.018
-51.42
30.0607
112.087
187.188
245.385
276.078
330.251
285.017
211.5
122.344
28.4583
-62.1233
-144.312
-216.391
-280.746
-337.744
-385.181
-418.585
-432.706
-423.654
-394.218
-349.555
-294.497
-231.829
-161.736
-82.1649
6.64632
100.244
191.342
269.683
322.873
338.79
311.873
250.672
167.742
75.0593
-17.8805
-104.596
-181.272
-249.205
-309.937
-362.608
-403.806
-428.418
-431.482
-411.944
-374.458
-324.274
-265.379
-199.327
-125.202
-40.4705
51.5983
145.24
231.675
299.411
335.736
396.934
347.227
267.467
171.301
70.0995
-27.5492
-115.532
-191.331
-256.998
-313.217
-358.762
-390.475
-403.986
-395.311
-367.385
-324.709
-270.817
-207.398
-134.16
-49.2628
46.4405
147.365
245.582
330.408
388.639
406.371
376.514
309.749
220.107
120.2
19.9504
-73.4063
-154.814
-225.237
-286.136
-337.3
-376.514
-399.89
-402.833
-384.209
-348.589
-300.138
-241.567
-173.612
-95.2564
-4.25014
95.0434
195.971
289.282
362.958
403.065
473.414
423.715
344.864
250.108
149.944
52.2773
-36.8776
-114.43
-181.01
-236.829
-281.035
-311.378
-324.329
-316.012
-289.35
-248.135
-194.941
-130.93
-56.0758
30.238
126.273
226.38
323.202
406.935
464.957
482.91
452.802
386.491
298.11
199.535
99.8336
5.81995
-77.2132
-149.065
-210.211
-260.403
-298.11
-320.415
-323.24
-305.432
-271.271
-223.99
-165.479
-96.2805
-16.0456
75.7959
174.764
274.453
366.386
439.369
479.642
561.289
518.219
450.765
370.125
284.489
199.598
119.648
47.4602
-15.3706
-67.9838
-109.301
-137.455
-149.504
-141.765
-117.065
-78.6439
-28.6028
31.8302
101.812
180.01
263.987
349.817
432.227
503.712
553.808
569.567
543.246
486.206
410.895
326.944
241.163
158.37
82.2426
14.7488
-42.9961
-90.116
-125.191
-145.852
-148.483
-131.952
-100.215
-55.9105
-0.665928
64.5789
138.906
220.398
305.89
390.888
469.133
531.72
566.774
661.717
633.461
590.307
539.742
486.483
432.986
380.013
328.653
282.401
242.947
211.645
190.153
180.847
186.833
205.711
234.858
272.478
317.183
367.425
420.26
473.587
526.998
578.496
623.974
656.633
667.165
649.675
612.745
565.119
512.841
459.393
406.322
353.665
304.695
261.743
226.214
199.555
183.724
181.684
194.403
218.583
252.083
293.374
341.135
393.51
446.439
499.9
552.734
601.977
642.248
665.399
776.497
771.337
765.219
760.248
757.013
754.715
750.914
743.973
736.599
729.565
723.36
718.613
716.304
717.818
722.081
727.986
734.838
742.132
749.2
753.935
756.252
759.112
763.648
769.61
775.267
777.45
773.952
767.95
762.275
758.253
755.783
753.382
747.495
740.252
733.035
726.388
720.839
717.162
716.635
719.692
724.883
731.341
738.504
745.903
752.662
755.494
757.762
761.354
766.7
772.836
777.28
)
;

boundaryField
{
    top
    {
        type            fixedFluxPressure;
        gradient        nonuniform List<scalar> 
51
(
1974.1
2417.95
3107.72
3929.75
4812.58
5728.48
6704.15
7744.79
8723.05
9577.22
10259.4
10723.1
10918.8
10793.8
10387.9
9752.83
8935.35
7982.69
6952.07
5950.77
5026.73
4135.9
3294.93
2564.84
2049.49
1886.24
2158.51
2743.88
3511.75
4369.3
5266.45
6198.33
7228.78
8246.54
9168.54
9942.73
10522.7
10861.2
10903.5
10633.7
10109.7
9379.38
8488.84
7486.6
6438.64
5491.84
4587.44
3716.92
2919.98
2279.13
1917.23
)
;
        value           nonuniform List<scalar> 
51
(
842.3
851.936
868.81
891.24
917.432
945.664
974.385
1002.13
1027.37
1048.81
1065.34
1076.05
1080.26
1077.61
1068.35
1053.08
1032.68
1008.22
980.936
952.294
923.81
896.976
873.479
855.105
843.584
840.325
845.902
859.413
879.333
903.896
931.332
959.994
988.454
1015.14
1038.65
1057.81
1071.6
1079.2
1080.08
1074.15
1061.87
1043.99
1021.47
995.457
967.283
938.555
910.676
885.251
864.032
848.807
841.187
)
;
    }
    bottom
    {
        type            fixedFluxPressure;
        gradient        uniform 0;
        value           nonuniform List<scalar> 
51
(
-71.5679
-85.4997
-111.003
-146.872
-191.437
-242.224
-295.386
-345.813
-389.715
-425.007
-447.074
-456.027
-458.363
-456.958
-450.009
-431.602
-398.558
-356.58
-307.346
-254.344
-202.579
-156.276
-118.167
-90.0649
-73.2633
-68.6523
-76.5486
-96.444
-127.332
-167.804
-215.857
-268.425
-320.877
-368.556
-408.3
-438.245
-452.915
-457.949
-458.397
-454.863
-443.313
-417.108
-379.561
-333.654
-282.082
-229.063
-179.546
-136.976
-103.574
-80.8748
-69.9878
)
;
    }
    frontAndBack
    {
        type            empty;
    }
    left_cyc
    {
        type            cyclic;
    }
    right_cyc
    {
        type            cyclic;
    }
}


// ************************************************************************* //
