/*--------------------------------*- C++ -*----------------------------------*\
| =========                 |                                                 |
| \\      /  F ield         | OpenFOAM: The Open Source CFD Toolbox           |
|  \\    /   O peration     | Version:  2.3.0                                 |
|   \\  /    A nd           | Web:      www.OpenFOAM.org                      |
|    \\/     M anipulation  |                                                 |
\*---------------------------------------------------------------------------*/
FoamFile
{
    version     2.0;
    format      ascii;
    class       surfaceScalarField;
    location    "8000";
    object      phi;
}
// * * * * * * * * * * * * * * * * * * * * * * * * * * * * * * * * * * * * * //

dimensions      [0 3 -1 0 0 0 0];

internalField   nonuniform List<scalar> 
5988
(
3.58547e-08
-3.17137e-08
6.70312e-08
-3.11765e-08
9.72167e-08
-3.01855e-08
1.2599e-07
-2.8773e-08
1.52971e-07
-2.69809e-08
1.7783e-07
-2.4859e-08
2.00291e-07
-2.24617e-08
2.20132e-07
-1.98405e-08
2.37162e-07
-1.70305e-08
2.51193e-07
-1.40303e-08
2.61977e-07
-1.07843e-08
2.69155e-07
-7.17811e-09
2.72212e-07
-3.05708e-09
2.70488e-07
1.72412e-09
2.63281e-07
7.20718e-09
2.50087e-07
1.31938e-08
2.30886e-07
1.92011e-08
2.06289e-07
2.45963e-08
1.7766e-07
2.86292e-08
1.46962e-07
3.0698e-08
1.16178e-07
3.07843e-08
8.69905e-08
2.91875e-08
6.03594e-08
2.66311e-08
3.63446e-08
2.40148e-08
1.42722e-08
2.20723e-08
-6.95232e-09
2.12245e-08
-2.85729e-08
2.16206e-08
-5.17603e-08
2.31874e-08
-7.73664e-08
2.56061e-08
-1.05612e-07
2.82454e-08
-1.35834e-07
3.02225e-08
-1.66542e-07
3.0708e-08
-1.95801e-07
2.92584e-08
-2.21555e-07
2.57543e-08
-2.42177e-07
2.06217e-08
-2.56785e-07
1.4608e-08
-2.65183e-07
8.39787e-09
-2.67756e-07
2.57382e-09
-2.65193e-07
-2.56314e-09
-2.58196e-07
-6.99713e-09
-2.47341e-07
-1.08549e-08
-2.3305e-07
-1.42916e-08
-2.15621e-07
-1.74289e-08
-1.9529e-07
-2.0331e-08
-1.72283e-07
-2.30064e-08
-1.46859e-07
-2.54248e-08
-1.19321e-07
-2.75377e-08
-9.00277e-08
-2.92932e-08
-5.93842e-08
-3.06435e-08
-2.78357e-08
-3.15485e-08
4.14223e-09
-3.19779e-08
3.60559e-08
-3.19137e-08
6.7415e-08
-3.13591e-08
9.77507e-08
-3.03357e-08
1.26627e-07
-2.88765e-08
1.53651e-07
-2.70238e-08
1.78478e-07
-2.48269e-08
2.00816e-07
-2.23377e-08
2.20417e-07
-1.96019e-08
2.37059e-07
-1.66416e-08
2.50494e-07
-1.34352e-08
2.60397e-07
-9.90283e-09
2.66308e-07
-5.91067e-09
2.67611e-07
-1.30289e-09
2.63588e-07
4.02298e-09
2.53599e-07
9.98836e-09
2.37389e-07
1.62109e-08
2.15321e-07
2.20673e-08
1.88474e-07
2.68474e-08
1.5864e-07
2.98334e-08
1.27879e-07
3.07612e-08
9.80554e-08
2.98238e-08
7.04689e-08
2.75866e-08
4.5542e-08
2.49268e-08
2.28602e-08
2.26818e-08
1.4605e-09
2.13997e-08
-1.98679e-08
2.13284e-08
-4.23516e-08
2.24837e-08
-6.70056e-08
2.46539e-08
-9.43417e-08
2.73362e-08
-1.2407e-07
2.97283e-08
-1.55014e-07
3.09435e-08
-1.85375e-07
3.03616e-08
-2.13131e-07
2.77564e-08
-2.36428e-07
2.32961e-08
-2.54102e-07
1.76739e-08
-2.65715e-07
1.1613e-08
-2.71437e-07
5.72191e-09
-2.7185e-07
4.13371e-10
-2.67663e-07
-4.18687e-09
-2.59504e-07
-8.15887e-09
-2.47846e-07
-1.16579e-08
-2.33015e-07
-1.48315e-08
-2.15235e-07
-1.77794e-08
-1.94693e-07
-2.05421e-08
-1.71584e-07
-2.31094e-08
-1.46143e-07
-2.54403e-08
-1.18662e-07
-2.74815e-08
-8.94825e-08
-2.91793e-08
-5.89967e-08
-3.04858e-08
-2.76354e-08
-3.13613e-08
-3.17764e-08
5.41112e-08
-7.95861e-08
1.01603e-07
-7.86688e-08
1.48395e-07
-7.69768e-08
1.94192e-07
-7.45702e-08
2.3873e-07
-7.15188e-08
2.81751e-07
-6.78803e-08
3.22966e-07
-6.36765e-08
3.61999e-07
-5.88735e-08
3.9834e-07
-5.33712e-08
4.31313e-07
-4.70038e-08
4.6007e-07
-3.95415e-08
4.83583e-07
-3.06904e-08
5.00623e-07
-2.00973e-08
5.09735e-07
-7.38813e-09
5.09263e-07
7.67932e-09
4.97577e-07
2.48802e-08
4.73486e-07
4.32916e-08
4.36685e-07
6.13975e-08
3.88385e-07
7.69287e-08
3.31638e-07
8.74454e-08
2.70293e-07
9.21287e-08
2.08124e-07
9.13572e-08
1.47886e-07
8.6869e-08
9.07053e-08
8.11954e-08
3.61681e-08
7.66096e-08
-1.71273e-08
7.45199e-08
-7.09596e-08
7.54529e-08
-1.26922e-07
7.915e-08
-1.85837e-07
8.45207e-08
-2.47143e-07
8.95519e-08
-3.08588e-07
9.16669e-08
-3.66617e-07
8.87375e-08
-4.1729e-07
7.99312e-08
-4.57114e-07
6.55782e-08
-4.84246e-07
4.77541e-08
-4.98587e-07
2.89491e-08
-5.0112e-07
1.09309e-08
-4.93416e-07
-5.1307e-09
-4.77194e-07
-1.87846e-08
-4.54016e-07
-3.01751e-08
-4.25211e-07
-3.96602e-08
-3.919e-07
-4.76025e-08
-3.55015e-07
-5.43142e-08
-3.15302e-07
-6.0044e-08
-2.73332e-07
-6.49764e-08
-2.29528e-07
-6.92282e-08
-1.84218e-07
-7.28479e-08
-1.37687e-07
-7.58248e-08
-9.02202e-08
-7.81101e-08
-4.21272e-08
-7.96416e-08
6.26192e-09
-8.0367e-08
5.4607e-08
-8.02588e-08
1.02569e-07
-7.93213e-08
1.49823e-07
-7.75892e-08
1.96066e-07
-7.51194e-08
2.41014e-07
-7.19727e-08
2.84378e-07
-6.81907e-08
3.25811e-07
-6.37701e-08
3.64854e-07
-5.86453e-08
4.00894e-07
-5.26815e-08
4.33136e-07
-4.56773e-08
4.60601e-07
-3.73674e-08
4.82115e-07
-2.74247e-08
4.96291e-07
-1.54796e-08
5.01513e-07
-1.19869e-09
4.96055e-07
1.5446e-08
4.78461e-07
3.38054e-08
4.4797e-07
5.25579e-08
4.05074e-07
6.97432e-08
3.52123e-07
8.27852e-08
2.92824e-07
9.00602e-08
2.31114e-07
9.15338e-08
1.70279e-07
8.84208e-08
1.12141e-07
8.30649e-08
5.68514e-08
7.79717e-08
3.32676e-09
7.49243e-08
-5.01276e-08
7.47828e-08
-1.05246e-07
7.76024e-08
-1.63236e-07
8.26435e-08
-2.24153e-07
8.82538e-08
-2.86428e-07
9.20029e-08
-3.46961e-07
9.14768e-08
-4.01879e-07
8.52791e-08
-4.47421e-07
7.32984e-08
-4.80966e-07
5.6841e-08
-5.01762e-07
3.84698e-08
-5.10396e-07
2.02471e-08
-5.08212e-07
3.53813e-09
-4.96886e-07
-1.09127e-08
-4.78034e-07
-2.30388e-08
-4.53049e-07
-3.3144e-08
-4.23104e-07
-4.16031e-08
-3.8918e-07
-4.87557e-08
-3.5208e-07
-5.4879e-08
-3.12436e-07
-6.01862e-08
-2.70719e-07
-6.48265e-08
-2.27277e-07
-6.88823e-08
-1.82386e-07
-7.2372e-08
-1.36304e-07
-7.5262e-08
-8.93005e-08
-7.74891e-08
-4.16775e-08
-7.89843e-08
-7.96927e-08
6.06747e-08
-1.33263e-07
1.13862e-07
-1.31857e-07
1.66131e-07
-1.29245e-07
2.17054e-07
-1.25493e-07
2.66203e-07
-1.20668e-07
3.13139e-07
-1.14816e-07
3.57402e-07
-1.07939e-07
3.98505e-07
-9.99772e-08
4.35939e-07
-9.08047e-08
4.69178e-07
-8.02432e-08
4.97709e-07
-6.80723e-08
5.2106e-07
-5.40414e-08
5.38844e-07
-3.78811e-08
5.50771e-07
-1.9315e-08
5.56485e-07
1.96535e-09
5.54979e-07
2.63862e-08
5.43939e-07
5.4331e-08
5.20185e-07
8.51521e-08
4.8106e-07
1.16054e-07
4.2602e-07
1.42485e-07
3.57955e-07
1.60194e-07
2.82406e-07
1.66907e-07
2.04456e-07
1.64819e-07
1.27128e-07
1.58524e-07
5.12738e-08
1.52464e-07
-2.37131e-08
1.49507e-07
-9.90021e-08
1.50742e-07
-1.75489e-07
1.55637e-07
-2.52928e-07
1.6196e-07
-3.29088e-07
1.65711e-07
-3.99492e-07
1.62071e-07
-4.58449e-07
1.47695e-07
-5.01901e-07
1.23382e-07
-5.29364e-07
9.30412e-08
-5.43008e-07
6.13987e-08
-5.4606e-07
3.20013e-08
-5.41242e-07
6.11221e-09
-5.29908e-07
-1.64644e-08
-5.12518e-07
-3.61749e-08
-4.89358e-07
-5.3335e-08
-4.6081e-07
-6.82084e-08
-4.27354e-07
-8.10579e-08
-3.89531e-07
-9.21375e-08
-3.47897e-07
-1.01678e-07
-3.03003e-07
-1.09871e-07
-2.55373e-07
-1.16858e-07
-2.05506e-07
-1.22715e-07
-1.53877e-07
-1.27454e-07
-1.00945e-07
-1.31042e-07
-4.71645e-08
-1.33422e-07
7.01167e-09
-1.34543e-07
6.11291e-08
-1.34376e-07
1.14734e-07
-1.32926e-07
1.67373e-07
-1.30228e-07
2.18591e-07
-1.26337e-07
2.67925e-07
-1.21307e-07
3.14896e-07
-1.15162e-07
3.58999e-07
-1.07873e-07
3.997e-07
-9.93466e-08
4.36447e-07
-8.94279e-08
4.68682e-07
-7.79128e-08
4.95878e-07
-6.45635e-08
5.17576e-07
-4.9122e-08
5.33422e-07
-3.13259e-08
5.4313e-07
-1.09065e-08
5.46094e-07
1.24817e-08
5.40605e-07
3.92944e-08
5.23678e-07
6.94854e-08
4.92201e-07
1.01219e-07
4.44546e-07
1.30441e-07
3.82099e-07
1.52506e-07
3.09674e-07
1.63959e-07
2.3284e-07
1.65255e-07
1.55525e-07
1.6038e-07
7.93862e-08
1.5411e-07
4.28549e-09
1.50025e-07
-7.08243e-08
1.49893e-07
-1.47047e-07
1.53825e-07
-2.24698e-07
1.60295e-07
-3.0241e-07
1.65965e-07
-3.76564e-07
1.66157e-07
-4.41728e-07
1.56641e-07
-4.92761e-07
1.36312e-07
-5.27729e-07
1.08267e-07
-5.47877e-07
7.6989e-08
-5.56148e-07
4.67404e-08
-5.55615e-07
1.97142e-08
-5.48234e-07
-3.84245e-09
-5.34763e-07
-2.43843e-08
-5.15502e-07
-4.22998e-08
-4.90763e-07
-5.78821e-08
-4.60961e-07
-7.14055e-08
-4.26581e-07
-8.3136e-08
-3.88142e-07
-9.33173e-08
-3.46168e-07
-1.0216e-07
-3.01164e-07
-1.09831e-07
-2.53609e-07
-1.16438e-07
-2.03957e-07
-1.22024e-07
-1.52642e-07
-1.26576e-07
-1.00093e-07
-1.30038e-07
-4.67364e-08
-1.32341e-07
-1.33427e-07
6.35288e-08
-1.89463e-07
1.19102e-07
-1.87429e-07
1.73498e-07
-1.83642e-07
2.26173e-07
-1.78168e-07
2.76586e-07
-1.7108e-07
3.24201e-07
-1.62432e-07
3.68498e-07
-1.52236e-07
4.0897e-07
-1.4045e-07
4.45146e-07
-1.2698e-07
4.76588e-07
-1.11685e-07
5.0291e-07
-9.43945e-08
5.23784e-07
-7.49161e-08
5.38945e-07
-5.30418e-08
5.48163e-07
-2.85333e-08
5.51196e-07
-1.06758e-09
5.47762e-07
2.98207e-08
5.37571e-07
6.45217e-08
5.19998e-07
1.02725e-07
4.92833e-07
1.43218e-07
4.51707e-07
1.83611e-07
3.93415e-07
2.18485e-07
3.19524e-07
2.40798e-07
2.36084e-07
2.48258e-07
1.48808e-07
2.458e-07
6.06677e-08
2.40605e-07
-2.74407e-08
2.37615e-07
-1.15409e-07
2.3871e-07
-2.02758e-07
2.42987e-07
-2.87401e-07
2.46602e-07
-3.6455e-07
2.42861e-07
-4.27746e-07
2.25267e-07
-4.7359e-07
1.93538e-07
-5.03959e-07
1.53752e-07
-5.23367e-07
1.12449e-07
-5.34808e-07
7.28397e-08
-5.39246e-07
3.64398e-08
-5.37006e-07
3.87153e-09
-5.28373e-07
-2.50972e-08
-5.13608e-07
-5.09394e-08
-4.92949e-07
-7.39942e-08
-4.66664e-07
-9.4494e-08
-4.35085e-07
-1.12636e-07
-3.98615e-07
-1.28608e-07
-3.57712e-07
-1.42581e-07
-3.12881e-07
-1.54702e-07
-2.64661e-07
-1.65078e-07
-2.13614e-07
-1.73762e-07
-1.60311e-07
-1.80756e-07
-1.05333e-07
-1.8602e-07
-4.92595e-08
-1.89496e-07
7.32458e-09
-1.91127e-07
6.38328e-08
-1.90884e-07
1.19679e-07
-1.88772e-07
1.7428e-07
-1.84829e-07
2.27054e-07
-1.79112e-07
2.77425e-07
-1.71678e-07
3.24821e-07
-1.62558e-07
3.68687e-07
-1.51738e-07
4.08489e-07
-1.39149e-07
4.43736e-07
-1.24674e-07
4.7398e-07
-1.08157e-07
4.98838e-07
-8.94212e-08
5.17993e-07
-6.82778e-08
5.31192e-07
-4.45242e-08
5.38195e-07
-1.79094e-08
5.38731e-07
1.1945e-08
5.32516e-07
4.55101e-08
5.19159e-07
8.28418e-08
4.97307e-07
1.23072e-07
4.63334e-07
1.64414e-07
4.12981e-07
2.02859e-07
3.45626e-07
2.31315e-07
2.65926e-07
2.44955e-07
1.8024e-07
2.46066e-07
9.26179e-08
2.41732e-07
4.60162e-09
2.38041e-07
-8.35376e-08
2.38032e-07
-1.71601e-07
2.41888e-07
-2.5828e-07
2.46974e-07
-3.39883e-07
2.47568e-07
-4.10192e-07
2.36466e-07
-4.6395e-07
2.10399e-07
-5.01012e-07
1.73373e-07
-5.2533e-07
1.32585e-07
-5.40867e-07
9.25252e-08
-5.49271e-07
5.51452e-08
-5.51e-07
2.1443e-08
-5.46336e-07
-8.50673e-09
-5.35553e-07
-3.5167e-08
-5.18886e-07
-5.89672e-08
-4.96568e-07
-8.02001e-08
-4.68881e-07
-9.90924e-08
-4.36169e-07
-1.15848e-07
-3.98833e-07
-1.30654e-07
-3.57318e-07
-1.43674e-07
-3.12109e-07
-1.5504e-07
-2.63715e-07
-1.64832e-07
-2.12662e-07
-1.73077e-07
-1.59486e-07
-1.79752e-07
-1.04731e-07
-1.84794e-07
-4.89418e-08
-1.8813e-07
-1.89698e-07
6.41521e-08
-2.4621e-07
1.20171e-07
-2.43448e-07
1.74824e-07
-2.38294e-07
2.27484e-07
-2.30829e-07
2.77545e-07
-2.21141e-07
3.24423e-07
-2.0931e-07
3.67568e-07
-1.95381e-07
4.06475e-07
-1.79356e-07
4.40686e-07
-1.61192e-07
4.69803e-07
-1.40802e-07
4.93477e-07
-1.18069e-07
5.11412e-07
-9.28515e-08
5.23357e-07
-6.49865e-08
5.29101e-07
-3.42772e-08
5.28507e-07
-4.73233e-10
5.21605e-07
3.67221e-08
5.08639e-07
7.74876e-08
4.8977e-07
1.21594e-07
4.64607e-07
1.68382e-07
4.31608e-07
2.1661e-07
3.86797e-07
2.63296e-07
3.25106e-07
3.02489e-07
2.46869e-07
3.26495e-07
1.58337e-07
3.34333e-07
6.53189e-08
3.33622e-07
-2.89728e-08
3.31907e-07
-1.22489e-07
3.32226e-07
-2.12647e-07
3.33145e-07
-2.94655e-07
3.2861e-07
-3.61787e-07
3.09993e-07
-4.11249e-07
2.74729e-07
-4.4689e-07
2.2918e-07
-4.73588e-07
1.8045e-07
-4.9354e-07
1.32401e-07
-5.07414e-07
8.67131e-08
-5.15169e-07
4.41947e-08
-5.16537e-07
5.24042e-09
-5.11423e-07
-3.02121e-08
-4.99932e-07
-6.243e-08
-4.82272e-07
-9.16538e-08
-4.587e-07
-1.18066e-07
-4.29521e-07
-1.41815e-07
-3.95097e-07
-1.63032e-07
-3.55851e-07
-1.81827e-07
-3.12267e-07
-1.98286e-07
-2.64885e-07
-2.1246e-07
-2.14292e-07
-2.24355e-07
-1.61113e-07
-2.33936e-07
-1.05996e-07
-2.41138e-07
-4.96065e-08
-2.45885e-07
7.3771e-09
-2.48111e-07
6.42723e-08
-2.4778e-07
1.20397e-07
-2.44897e-07
1.75076e-07
-2.39508e-07
2.27648e-07
-2.31684e-07
2.77469e-07
-2.21499e-07
3.23923e-07
-2.09013e-07
3.66435e-07
-1.9425e-07
4.04477e-07
-1.77192e-07
4.37581e-07
-1.57779e-07
4.65341e-07
-1.35917e-07
4.8741e-07
-1.1149e-07
5.03495e-07
-8.43626e-08
5.13351e-07
-5.43806e-08
5.1679e-07
-2.13485e-08
5.13746e-07
1.49887e-08
5.0438e-07
5.4877e-08
4.88947e-07
9.82739e-08
4.6735e-07
1.44669e-07
4.38641e-07
1.93124e-07
3.99986e-07
2.41514e-07
3.46089e-07
2.85212e-07
2.74543e-07
3.16501e-07
1.898e-07
3.30809e-07
9.84274e-08
3.33105e-07
4.51365e-09
3.31955e-07
-8.966e-08
3.32205e-07
-1.8191e-07
3.34138e-07
-2.68439e-07
3.33503e-07
-3.42836e-07
3.21965e-07
-3.9988e-07
2.9351e-07
-4.41075e-07
2.51593e-07
-4.71781e-07
2.04079e-07
-4.95226e-07
1.56031e-07
-5.12555e-07
1.09854e-07
-5.23974e-07
6.65649e-08
-5.29255e-07
2.67241e-08
-5.28198e-07
-9.56395e-09
-5.20826e-07
-4.25388e-08
-5.07303e-07
-7.24904e-08
-4.87851e-07
-9.96527e-08
-4.62732e-07
-1.24211e-07
-4.32255e-07
-1.46324e-07
-3.96782e-07
-1.66127e-07
-3.56727e-07
-1.83729e-07
-3.1256e-07
-1.99207e-07
-2.648e-07
-2.12592e-07
-2.14005e-07
-2.23872e-07
-1.60767e-07
-2.3299e-07
-1.05698e-07
-2.39862e-07
-4.94276e-08
-2.44401e-07
-2.4653e-07
6.30173e-08
-3.01952e-07
1.17958e-07
-2.98389e-07
1.71402e-07
-2.91738e-07
2.22673e-07
-2.82099e-07
2.71123e-07
-2.69591e-07
3.16145e-07
-2.54332e-07
3.57181e-07
-2.36417e-07
3.93731e-07
-2.15906e-07
4.25358e-07
-1.92819e-07
4.51691e-07
-1.67134e-07
4.72417e-07
-1.38795e-07
4.87279e-07
-1.07714e-07
4.96072e-07
-7.37791e-08
4.98646e-07
-3.68514e-08
4.94946e-07
3.227e-09
4.85071e-07
4.6597e-08
4.69299e-07
9.32591e-08
4.47977e-07
1.42916e-07
4.21399e-07
1.9496e-07
3.89536e-07
2.48474e-07
3.50962e-07
3.0187e-07
3.01625e-07
3.51826e-07
2.36296e-07
3.91824e-07
1.55383e-07
4.15245e-07
6.51119e-08
4.23893e-07
-2.83967e-08
4.25416e-07
-1.20212e-07
4.24042e-07
-2.04818e-07
4.17751e-07
-2.75541e-07
3.99333e-07
-3.29435e-07
3.63887e-07
-3.70498e-07
3.15792e-07
-4.03678e-07
2.6236e-07
-4.31195e-07
2.07966e-07
-4.53384e-07
1.5459e-07
-4.69995e-07
1.03325e-07
-4.80684e-07
5.48839e-08
-4.85134e-07
9.69007e-09
-4.8319e-07
-3.21564e-08
-4.74876e-07
-7.07441e-08
-4.6033e-07
-1.062e-07
-4.39759e-07
-1.38636e-07
-4.1343e-07
-1.68145e-07
-3.81668e-07
-1.94794e-07
-3.44867e-07
-2.18628e-07
-3.03489e-07
-2.39664e-07
-2.58069e-07
-2.57881e-07
-2.09201e-07
-2.73223e-07
-1.57534e-07
-2.85602e-07
-1.03757e-07
-2.94914e-07
-4.8591e-08
-3.01051e-07
7.22666e-09
-3.03929e-07
6.29474e-08
-3.035e-07
1.17824e-07
-2.99774e-07
1.71123e-07
-2.92807e-07
2.22131e-07
-2.82691e-07
2.70167e-07
-2.69535e-07
3.14597e-07
-2.53442e-07
3.54839e-07
-2.34492e-07
3.90378e-07
-2.12731e-07
4.20769e-07
-1.88169e-07
4.45636e-07
-1.60784e-07
4.6467e-07
-1.30523e-07
4.7762e-07
-9.73125e-08
4.84294e-07
-6.10548e-08
4.84578e-07
-2.16326e-08
4.78488e-07
2.10783e-08
4.6623e-07
6.71355e-08
4.48141e-07
1.16363e-07
4.24554e-07
1.68255e-07
3.95652e-07
2.22026e-07
3.60751e-07
2.76415e-07
3.16936e-07
3.29027e-07
2.58822e-07
3.74615e-07
1.83938e-07
4.05693e-07
9.68383e-08
4.20204e-07
4.11281e-09
4.24681e-07
-8.90469e-08
4.25365e-07
-1.7755e-07
4.22641e-07
-2.54885e-07
4.10839e-07
-3.15783e-07
3.82863e-07
-3.61778e-07
3.39506e-07
-3.98339e-07
2.88155e-07
-4.28776e-07
2.34516e-07
-4.54011e-07
1.81266e-07
-4.73924e-07
1.29767e-07
-4.88199e-07
8.08394e-08
-4.96491e-07
3.50167e-08
-4.98564e-07
-7.49105e-09
-4.94364e-07
-4.67386e-08
-4.83977e-07
-8.28773e-08
-4.67569e-07
-1.16061e-07
-4.45359e-07
-1.46422e-07
-4.17618e-07
-1.74066e-07
-3.84672e-07
-1.99072e-07
-3.46911e-07
-2.2149e-07
-3.04788e-07
-2.4133e-07
-2.58818e-07
-2.58562e-07
-2.09574e-07
-2.73116e-07
-1.57674e-07
-2.84889e-07
-1.03775e-07
-2.93762e-07
-4.85578e-08
-2.99617e-07
-3.02364e-07
6.04362e-08
-3.55407e-07
1.13049e-07
-3.51002e-07
1.64089e-07
-3.42778e-07
2.12853e-07
-3.30863e-07
2.58677e-07
-3.15416e-07
3.0095e-07
-2.96605e-07
3.39119e-07
-2.74586e-07
3.72701e-07
-2.49488e-07
4.01283e-07
-2.21402e-07
4.24527e-07
-1.90377e-07
4.42156e-07
-1.56424e-07
4.53958e-07
-1.19516e-07
4.59781e-07
-7.96023e-08
4.59542e-07
-3.66127e-08
4.53255e-07
9.51427e-09
4.41064e-07
5.8788e-08
4.23252e-07
1.11071e-07
4.00177e-07
1.65991e-07
3.72216e-07
2.2292e-07
3.39707e-07
2.80983e-07
3.02627e-07
3.3895e-07
2.5954e-07
3.94914e-07
2.06375e-07
4.44989e-07
1.39012e-07
4.82608e-07
5.94001e-08
5.03505e-07
-2.5454e-08
5.1027e-07
-1.0766e-07
5.06248e-07
-1.79624e-07
4.89714e-07
-2.37141e-07
4.5685e-07
-2.82696e-07
4.09442e-07
-3.21005e-07
3.54101e-07
-3.54378e-07
2.95733e-07
-3.83135e-07
2.36724e-07
-4.07002e-07
1.78457e-07
-4.25597e-07
1.21919e-07
-4.38547e-07
6.78345e-08
-4.45538e-07
1.66806e-08
-4.46381e-07
-3.13129e-08
-4.41035e-07
-7.60899e-08
-4.2957e-07
-1.17666e-07
-4.12134e-07
-1.56072e-07
-3.88947e-07
-1.91331e-07
-3.60297e-07
-2.23443e-07
-3.26545e-07
-2.52381e-07
-2.88127e-07
-2.78081e-07
-2.4556e-07
-3.00448e-07
-1.99432e-07
-3.1935e-07
-1.50397e-07
-3.34638e-07
-9.91595e-08
-3.46151e-07
-4.6466e-08
-3.53744e-07
6.91095e-09
-3.57305e-07
6.01861e-08
-3.56776e-07
1.12576e-07
-3.52164e-07
1.63314e-07
-3.43545e-07
2.11663e-07
-3.3104e-07
2.5693e-07
-3.14802e-07
2.98477e-07
-2.94989e-07
3.35734e-07
-2.71749e-07
3.68205e-07
-2.45202e-07
3.95473e-07
-2.15437e-07
4.17196e-07
-1.82507e-07
4.33104e-07
-1.46432e-07
4.42997e-07
-1.07205e-07
4.46743e-07
-6.48007e-08
4.44298e-07
-1.91876e-08
4.35739e-07
2.96371e-08
4.21292e-07
8.15829e-08
4.01294e-07
1.36361e-07
3.76123e-07
1.93426e-07
3.46155e-07
2.51995e-07
3.11579e-07
3.1099e-07
2.71729e-07
3.68876e-07
2.23576e-07
4.22768e-07
1.62284e-07
4.66985e-07
8.70296e-08
4.95459e-07
3.38244e-09
5.08328e-07
-8.08668e-08
5.09614e-07
-1.57858e-07
4.99632e-07
-2.21426e-07
4.74407e-07
-2.71468e-07
4.32905e-07
-3.12711e-07
3.80749e-07
-3.48556e-07
3.24e-07
-3.79907e-07
2.65866e-07
-4.06636e-07
2.07995e-07
-4.28382e-07
1.51513e-07
-4.44768e-07
9.72253e-08
-4.55448e-07
4.56969e-08
-4.60172e-07
-2.76714e-09
-4.58832e-07
-4.80784e-08
-4.51444e-07
-9.02653e-08
-4.3811e-07
-1.29395e-07
-4.18999e-07
-1.65533e-07
-3.94339e-07
-1.98726e-07
-3.64421e-07
-2.2899e-07
-3.29604e-07
-2.56307e-07
-2.90318e-07
-2.80616e-07
-2.47066e-07
-3.01814e-07
-2.00416e-07
-3.19767e-07
-1.50994e-07
-3.34311e-07
-9.94762e-08
-3.4528e-07
-4.65728e-08
-3.52521e-07
-3.55917e-07
5.66791e-08
-4.05538e-07
1.0595e-07
-4.00273e-07
1.53618e-07
-3.90447e-07
1.98976e-07
-3.76221e-07
2.41362e-07
-3.57802e-07
2.80175e-07
-3.35417e-07
3.1488e-07
-3.09291e-07
3.45022e-07
-2.79629e-07
3.70221e-07
-2.466e-07
3.90173e-07
-2.1033e-07
4.0465e-07
-1.70901e-07
4.13489e-07
-1.28355e-07
4.16595e-07
-8.27082e-08
4.13947e-07
-3.3965e-08
4.05614e-07
1.7847e-08
3.91774e-07
7.26287e-08
3.72709e-07
1.30136e-07
3.4878e-07
1.89921e-07
3.20385e-07
2.51315e-07
2.87939e-07
3.1343e-07
2.51766e-07
3.75122e-07
2.11789e-07
4.34891e-07
1.66517e-07
4.90261e-07
1.12632e-07
5.36494e-07
4.87995e-08
5.67337e-07
-2.03821e-08
5.79451e-07
-8.6808e-08
5.72674e-07
-1.44126e-07
5.47032e-07
-1.91712e-07
5.04437e-07
-2.3285e-07
4.5058e-07
-2.69776e-07
3.91027e-07
-3.0291e-07
3.28866e-07
-3.31995e-07
2.65809e-07
-3.56628e-07
2.0309e-07
-3.76397e-07
1.41688e-07
-3.90924e-07
8.23609e-08
-3.99895e-07
2.56515e-08
-4.03101e-07
-2.81067e-08
-4.00449e-07
-7.87417e-08
-3.91946e-07
-1.26169e-07
-3.77683e-07
-1.70335e-07
-3.57826e-07
-2.11188e-07
-3.32616e-07
-2.48653e-07
-3.02375e-07
-2.82622e-07
-2.67506e-07
-3.1295e-07
-2.28497e-07
-3.39457e-07
-1.85916e-07
-3.61931e-07
-1.40404e-07
-3.80149e-07
-9.26653e-08
-3.93891e-07
-4.34488e-08
-4.02961e-07
6.46234e-09
-4.07217e-07
5.627e-08
-4.06583e-07
1.05178e-07
-4.01072e-07
1.52412e-07
-3.90778e-07
1.9723e-07
-3.75859e-07
2.38946e-07
-3.56518e-07
2.76935e-07
-3.32979e-07
3.1065e-07
-3.05464e-07
3.39625e-07
-2.74176e-07
3.63476e-07
-2.39289e-07
3.81906e-07
-2.00936e-07
3.94691e-07
-1.59217e-07
4.01685e-07
-1.14199e-07
4.02817e-07
-6.59328e-08
3.98104e-07
-1.44752e-08
3.8767e-07
4.00718e-08
3.71751e-07
9.75011e-08
3.50684e-07
1.57428e-07
3.24856e-07
2.19254e-07
2.94685e-07
2.82165e-07
2.60555e-07
3.45121e-07
2.22627e-07
4.06804e-07
1.80126e-07
4.65269e-07
1.30278e-07
5.16833e-07
7.02777e-08
5.55459e-07
2.3643e-09
5.76241e-07
-6.61511e-08
5.7813e-07
-1.276e-07
5.61081e-07
-1.78932e-07
5.25738e-07
-2.2256e-07
4.76532e-07
-2.61488e-07
4.19677e-07
-2.96715e-07
3.59227e-07
-3.28148e-07
2.97299e-07
-3.55424e-07
2.35271e-07
-3.78128e-07
1.74217e-07
-3.95868e-07
1.14966e-07
-4.08301e-07
5.81302e-08
-4.15169e-07
4.10051e-09
-4.16324e-07
-4.69232e-08
-4.11723e-07
-9.48663e-08
-4.01407e-07
-1.39711e-07
-3.85489e-07
-1.81451e-07
-3.64147e-07
-2.20067e-07
-3.37632e-07
-2.55506e-07
-3.06264e-07
-2.87675e-07
-2.70443e-07
-3.16436e-07
-2.30647e-07
-3.4161e-07
-1.87427e-07
-3.62986e-07
-1.41402e-07
-3.80336e-07
-9.32474e-08
-3.93435e-07
-4.36808e-08
-4.02087e-07
-4.06147e-07
5.19661e-08
-4.51497e-07
9.70717e-08
-4.45378e-07
1.40589e-07
-4.33964e-07
1.81821e-07
-4.17453e-07
2.20125e-07
-3.96106e-07
2.54922e-07
-3.70214e-07
2.85711e-07
-3.4008e-07
3.12069e-07
-3.05987e-07
3.33657e-07
-2.68189e-07
3.50218e-07
-2.26891e-07
3.6157e-07
-1.82253e-07
3.67607e-07
-1.34391e-07
3.6829e-07
-8.33917e-08
3.63659e-07
-2.93341e-08
3.53834e-07
2.76721e-08
3.39026e-07
8.74368e-08
3.19533e-07
1.49629e-07
2.95721e-07
2.13732e-07
2.68009e-07
2.79028e-07
2.36854e-07
3.44584e-07
2.02733e-07
4.09244e-07
1.66061e-07
4.71562e-07
1.26844e-07
5.29478e-07
8.40084e-08
5.79329e-07
3.62955e-08
6.1505e-07
-1.45107e-08
6.30257e-07
-6.36687e-08
6.21832e-07
-1.08014e-07
5.91377e-07
-1.48064e-07
5.44487e-07
-1.85227e-07
4.87743e-07
-2.19811e-07
4.25611e-07
-2.51472e-07
3.60527e-07
-2.79735e-07
2.94072e-07
-3.04128e-07
2.27484e-07
-3.24216e-07
1.61776e-07
-3.39609e-07
9.77546e-08
-3.49986e-07
3.60285e-08
-3.55109e-07
-2.29835e-08
-3.54837e-07
-7.90138e-08
-3.49118e-07
-1.31888e-07
-3.37984e-07
-1.8147e-07
-3.21543e-07
-2.27629e-07
-2.99987e-07
-2.70209e-07
-2.73589e-07
-3.0902e-07
-2.42711e-07
-3.43828e-07
-2.07804e-07
-3.74364e-07
-1.69404e-07
-4.00332e-07
-1.28124e-07
-4.21429e-07
-8.46494e-08
-4.37366e-07
-3.97148e-08
-4.47896e-07
5.907e-09
-4.52838e-07
5.14264e-08
-4.52103e-07
9.60563e-08
-4.45702e-07
1.39032e-07
-4.33754e-07
1.7963e-07
-4.16456e-07
2.17183e-07
-3.94071e-07
2.51095e-07
-3.66891e-07
2.80853e-07
-3.35222e-07
3.06029e-07
-2.99352e-07
3.26285e-07
-2.59544e-07
3.41367e-07
-2.16019e-07
3.51107e-07
-1.68958e-07
3.55416e-07
-1.18508e-07
3.54283e-07
-6.47997e-08
3.47782e-07
-7.97446e-09
3.3608e-07
5.17745e-08
3.19436e-07
1.14145e-07
2.98194e-07
1.78671e-07
2.72753e-07
2.44694e-07
2.43563e-07
3.11355e-07
2.11099e-07
3.77585e-07
1.75827e-07
4.42076e-07
1.3799e-07
5.03106e-07
9.69904e-08
5.57832e-07
5.13223e-08
6.01127e-07
1.28753e-09
6.26276e-07
-4.91128e-08
6.2853e-07
-9.556e-08
6.07528e-07
-1.37292e-07
5.67471e-07
-1.75798e-07
5.15038e-07
-2.11835e-07
4.55715e-07
-2.45233e-07
3.92625e-07
-2.7554e-07
3.27606e-07
-3.02283e-07
2.62014e-07
-3.25012e-07
1.96945e-07
-3.43321e-07
1.33275e-07
-3.5686e-07
7.1669e-08
-3.65351e-07
1.25921e-08
-3.68609e-07
-4.36654e-08
-3.66535e-07
-9.69404e-08
-3.59111e-07
-1.47135e-07
-3.46391e-07
-1.94171e-07
-3.28503e-07
-2.37955e-07
-3.05647e-07
-2.78363e-07
-2.78101e-07
-3.15221e-07
-2.46226e-07
-3.48311e-07
-2.10465e-07
-3.77371e-07
-1.71341e-07
-4.0211e-07
-1.2945e-07
-4.22227e-07
-8.54511e-08
-4.37434e-07
-4.00516e-08
-4.47487e-07
-4.52205e-07
4.64787e-08
-4.92601e-07
8.67552e-08
-4.85655e-07
1.25495e-07
-4.72704e-07
1.62029e-07
-4.53988e-07
1.95747e-07
-4.29823e-07
2.26106e-07
-4.00573e-07
2.52644e-07
-3.66618e-07
2.74983e-07
-3.28327e-07
2.92831e-07
-2.86037e-07
3.0598e-07
-2.4004e-07
3.14302e-07
-1.90575e-07
3.17745e-07
-1.37834e-07
3.16331e-07
-8.19777e-08
3.10155e-07
-2.31581e-08
2.99389e-07
3.84386e-08
2.84283e-07
1.02543e-07
2.65163e-07
1.68749e-07
2.4242e-07
2.36475e-07
2.16506e-07
3.04942e-07
1.87933e-07
3.73157e-07
1.57286e-07
4.39891e-07
1.25227e-07
5.03621e-07
9.24177e-08
5.62287e-07
5.91587e-08
6.12588e-07
2.51801e-08
6.49028e-07
-9.40702e-09
6.64844e-07
-4.36215e-08
6.56046e-07
-7.69684e-08
6.24724e-07
-1.09729e-07
5.77247e-07
-1.41813e-07
5.19827e-07
-1.72625e-07
4.56423e-07
-2.01477e-07
3.89379e-07
-2.27753e-07
3.20348e-07
-2.50914e-07
2.50645e-07
-2.70485e-07
1.81346e-07
-2.8605e-07
1.1332e-07
-2.97262e-07
4.72403e-08
-3.03846e-07
-1.63993e-08
-3.05612e-07
-7.72477e-08
-3.02452e-07
-1.35048e-07
-2.94337e-07
-1.89585e-07
-2.81319e-07
-2.40647e-07
-2.63533e-07
-2.87995e-07
-2.41201e-07
-3.31351e-07
-2.14636e-07
-3.70393e-07
-1.84242e-07
-4.04758e-07
-1.50511e-07
-4.34063e-07
-1.1402e-07
-4.57919e-07
-7.54175e-08
-4.75968e-07
-3.54073e-08
-4.87906e-07
5.26629e-09
-4.93512e-07
4.5841e-08
-4.92677e-07
8.55573e-08
-4.85418e-07
1.23679e-07
-4.71876e-07
1.59516e-07
-4.52293e-07
1.92435e-07
-4.2699e-07
2.21883e-07
-3.96339e-07
2.47388e-07
-3.60727e-07
2.6857e-07
-3.20534e-07
2.85139e-07
-2.76114e-07
2.96898e-07
-2.27777e-07
3.03732e-07
-1.75792e-07
3.05612e-07
-1.20387e-07
3.02585e-07
-6.17727e-08
2.94781e-07
-1.70812e-10
2.82413e-07
6.41429e-08
2.65773e-07
1.30784e-07
2.45231e-07
1.99214e-07
2.21214e-07
2.68711e-07
1.94215e-07
3.38354e-07
1.64792e-07
4.07008e-07
1.33583e-07
4.73286e-07
1.01279e-07
5.3541e-07
6.83872e-08
5.90724e-07
3.48319e-08
6.34683e-07
4.2888e-10
6.60679e-07
-3.40742e-08
6.63033e-07
-6.78349e-08
6.41289e-07
-1.00968e-07
6.00604e-07
-1.33634e-07
5.47704e-07
-1.65394e-07
4.87474e-07
-1.95563e-07
4.22795e-07
-2.23499e-07
3.55542e-07
-2.48637e-07
2.87152e-07
-2.7048e-07
2.18788e-07
-2.88592e-07
1.51387e-07
-3.02599e-07
8.56759e-08
-3.12193e-07
2.21864e-08
-3.17145e-07
-3.87138e-08
-3.17303e-07
-9.67827e-08
-3.1259e-07
-1.51847e-07
-3.03006e-07
-2.03755e-07
-2.8862e-07
-2.52341e-07
-2.69581e-07
-2.97402e-07
-2.46118e-07
-3.38684e-07
-2.18547e-07
-3.75883e-07
-1.87266e-07
-4.08651e-07
-1.52761e-07
-4.36615e-07
-1.15592e-07
-4.59396e-07
-7.63862e-08
-4.7664e-07
-3.5825e-08
-4.88048e-07
-4.93405e-07
4.03636e-08
-5.28295e-07
7.52751e-08
-5.20566e-07
1.08736e-07
-5.06165e-07
1.40121e-07
-4.85373e-07
1.68863e-07
-4.58566e-07
1.94468e-07
-4.26178e-07
2.16523e-07
-3.88672e-07
2.34699e-07
-3.46503e-07
2.48757e-07
-3.00095e-07
2.58541e-07
-2.49824e-07
2.63978e-07
-1.96012e-07
2.65073e-07
-1.38929e-07
2.61903e-07
-7.88078e-08
2.54619e-07
-1.58737e-08
2.43442e-07
4.96157e-08
2.28666e-07
1.17319e-07
2.10652e-07
1.86762e-07
1.89827e-07
2.573e-07
1.66681e-07
3.28088e-07
1.4178e-07
3.98058e-07
1.15785e-07
4.65886e-07
8.94801e-08
5.29926e-07
6.37546e-08
5.88013e-07
3.93794e-08
6.36964e-07
1.65017e-08
6.71906e-07
-5.58797e-09
6.86934e-07
-2.80347e-08
6.78493e-07
-5.17599e-08
6.48449e-07
-7.69135e-08
6.02401e-07
-1.02869e-07
5.45782e-07
-1.28724e-07
4.82278e-07
-1.53648e-07
4.14303e-07
-1.76935e-07
3.43635e-07
-1.97985e-07
2.71694e-07
-2.16279e-07
1.9964e-07
-2.31368e-07
1.28409e-07
-2.42868e-07
5.87395e-08
-2.50462e-07
-8.80503e-09
-2.53911e-07
-7.37984e-08
-2.53052e-07
-1.35907e-07
-2.47798e-07
-1.94839e-07
-2.38143e-07
-2.50302e-07
-2.24166e-07
-3.01972e-07
-2.06032e-07
-3.49485e-07
-1.84e-07
-3.92425e-07
-1.5842e-07
-4.30338e-07
-1.29733e-07
-4.6275e-07
-9.8465e-08
-4.89188e-07
-6.52148e-08
-5.09219e-07
-3.06411e-08
-5.22479e-07
4.5573e-09
-5.2871e-07
3.96626e-08
-5.27783e-07
7.39597e-08
-5.19716e-07
1.06758e-07
-5.04674e-07
1.37414e-07
-4.82948e-07
1.65344e-07
-4.54921e-07
1.90045e-07
-4.2104e-07
2.11099e-07
-3.8178e-07
2.28178e-07
-3.37613e-07
2.41049e-07
-2.88985e-07
2.49568e-07
-2.36297e-07
2.53681e-07
-1.79905e-07
2.53414e-07
-1.2012e-07
2.48874e-07
-5.72319e-08
2.40242e-07
8.46026e-09
2.27781e-07
7.66044e-08
2.11822e-07
1.46742e-07
1.92768e-07
2.18268e-07
1.71086e-07
2.90393e-07
1.47314e-07
3.62126e-07
1.22076e-07
4.32246e-07
9.61091e-08
4.99253e-07
7.02779e-08
5.61241e-07
4.54589e-08
6.15543e-07
2.21181e-08
6.58024e-07
-1.26555e-10
6.82924e-07
-2.23172e-08
6.85224e-07
-4.5546e-08
6.64518e-07
-7.03197e-08
6.25378e-07
-9.62812e-08
5.73665e-07
-1.22588e-07
5.13781e-07
-1.48369e-07
4.48575e-07
-1.72873e-07
3.80046e-07
-1.95468e-07
3.09746e-07
-2.15607e-07
2.38927e-07
-2.32817e-07
1.68598e-07
-2.4669e-07
9.95486e-08
-2.56881e-07
3.23771e-08
-2.63114e-07
-3.24805e-08
-2.65187e-07
-9.47099e-08
-2.62968e-07
-1.54066e-07
-2.56398e-07
-2.10326e-07
-2.45492e-07
-2.63247e-07
-2.30345e-07
-3.12549e-07
-2.11134e-07
-3.57895e-07
-1.88122e-07
-3.98895e-07
-1.61658e-07
-4.35115e-07
-1.32177e-07
-4.66095e-07
-1.00195e-07
-4.91378e-07
-6.62946e-08
-5.10541e-07
-3.11141e-08
-5.23229e-07
-5.29189e-07
3.37391e-08
-5.58128e-07
6.2853e-08
-5.4968e-07
9.06354e-08
-5.33947e-07
1.16517e-07
-5.11254e-07
1.39988e-07
-4.82037e-07
1.60611e-07
-4.46802e-07
1.7803e-07
-4.06091e-07
1.91972e-07
-3.60445e-07
2.02252e-07
-3.10375e-07
2.0877e-07
-2.56342e-07
2.11507e-07
-1.98749e-07
2.1052e-07
-1.37942e-07
2.0594e-07
-7.4228e-08
1.97968e-07
-7.90185e-09
1.86873e-07
6.07109e-08
1.72989e-07
1.31203e-07
1.56713e-07
2.03038e-07
1.38501e-07
2.75512e-07
1.18876e-07
3.47713e-07
9.84335e-08
4.185e-07
7.78601e-08
4.86459e-07
5.79477e-08
5.49839e-07
3.95668e-08
6.06394e-07
2.34605e-08
6.5307e-07
9.70993e-09
6.85657e-07
-2.77083e-09
6.99415e-07
-1.58647e-08
6.91587e-07
-3.1031e-08
6.63616e-07
-4.85543e-08
6.19924e-07
-6.78343e-08
5.65062e-07
-8.79968e-08
5.02441e-07
-1.08209e-07
4.34516e-07
-1.27746e-07
3.63171e-07
-1.45976e-07
2.89925e-07
-1.62352e-07
2.16016e-07
-1.76391e-07
1.42449e-07
-1.87675e-07
7.00235e-08
-1.95849e-07
-6.31306e-10
-2.00626e-07
-6.90217e-08
-2.01791e-07
-1.34742e-07
-1.99204e-07
-1.97426e-07
-1.92804e-07
-2.56702e-07
-1.82612e-07
-3.12164e-07
-1.68737e-07
-3.6336e-07
-1.51378e-07
-4.09784e-07
-1.30827e-07
-4.5089e-07
-1.07464e-07
-4.86113e-07
-8.17544e-08
-5.14898e-07
-5.42362e-08
-5.36737e-07
-2.55074e-08
-5.51208e-07
3.79365e-09
-5.58011e-07
3.30094e-08
-5.56998e-07
6.1485e-08
-5.48191e-07
8.85907e-08
-5.3178e-07
1.13743e-07
-5.081e-07
1.3642e-07
-4.77598e-07
1.56178e-07
-4.40798e-07