/*--------------------------------*- C++ -*----------------------------------*\
| =========                 |                                                 |
| \\      /  F ield         | OpenFOAM: The Open Source CFD Toolbox           |
|  \\    /   O peration     | Version:  2.3.0                                 |
|   \\  /    A nd           | Web:      www.OpenFOAM.org                      |
|    \\/     M anipulation  |                                                 |
\*---------------------------------------------------------------------------*/
FoamFile
{
    version     2.0;
    format      ascii;
    class       surfaceScalarField;
    location    "8000";
    object      phi;
}
// * * * * * * * * * * * * * * * * * * * * * * * * * * * * * * * * * * * * * //

dimensions      [0 3 -1 0 0 0 0];

internalField   nonuniform List<scalar> 
5988
(
0.00358547
-0.00317137
0.00670312
-0.00311765
0.00972167
-0.00301855
0.012599
-0.0028773
0.0152971
-0.00269809
0.017783
-0.0024859
0.0200291
-0.00224617
0.0220132
-0.00198405
0.0237162
-0.00170305
0.0251193
-0.00140303
0.0261977
-0.00107843
0.0269155
-0.000717811
0.0272212
-0.000305708
0.0270488
0.000172412
0.0263281
0.000720718
0.0250087
0.00131938
0.0230886
0.00192011
0.0206289
0.00245963
0.017766
0.00286292
0.0146962
0.0030698
0.0116178
0.00307843
0.00869905
0.00291875
0.00603594
0.00266311
0.00363446
0.00240148
0.00142722
0.00220723
-0.000695232
0.00212245
-0.00285729
0.00216206
-0.00517603
0.00231874
-0.00773664
0.00256061
-0.0105612
0.00282454
-0.0135834
0.00302225
-0.0166542
0.0030708
-0.0195801
0.00292584
-0.0221555
0.00257543
-0.0242177
0.00206217
-0.0256785
0.0014608
-0.0265183
0.000839787
-0.0267756
0.000257382
-0.0265193
-0.000256314
-0.0258196
-0.000699713
-0.0247341
-0.00108549
-0.023305
-0.00142916
-0.0215621
-0.00174289
-0.019529
-0.0020331
-0.0172283
-0.00230064
-0.0146859
-0.00254248
-0.0119321
-0.00275377
-0.00900277
-0.00292932
-0.00593842
-0.00306435
-0.00278357
-0.00315485
0.000414223
-0.00319779
0.00360559
-0.00319137
0.0067415
-0.00313591
0.00977507
-0.00303357
0.0126627
-0.00288765
0.0153651
-0.00270238
0.0178478
-0.00248269
0.0200816
-0.00223377
0.0220417
-0.00196019
0.0237059
-0.00166416
0.0250494
-0.00134352
0.0260397
-0.000990283
0.0266308
-0.000591067
0.0267611
-0.000130289
0.0263588
0.000402298
0.0253599
0.000998836
0.0237389
0.00162109
0.0215321
0.00220673
0.0188474
0.00268474
0.015864
0.00298334
0.0127879
0.00307612
0.00980554
0.00298238
0.00704689
0.00275866
0.0045542
0.00249268
0.00228602
0.00226818
0.00014605
0.00213997
-0.00198679
0.00213284
-0.00423516
0.00224837
-0.00670056
0.00246539
-0.00943417
0.00273362
-0.012407
0.00297283
-0.0155014
0.00309435
-0.0185375
0.00303616
-0.0213131
0.00277564
-0.0236428
0.00232961
-0.0254102
0.00176739
-0.0265715
0.0011613
-0.0271437
0.000572191
-0.027185
4.13371e-05
-0.0267663
-0.000418687
-0.0259504
-0.000815887
-0.0247846
-0.00116579
-0.0233015
-0.00148315
-0.0215235
-0.00177794
-0.0194693
-0.00205421
-0.0171584
-0.00231094
-0.0146143
-0.00254403
-0.0118662
-0.00274815
-0.00894825
-0.00291793
-0.00589967
-0.00304858
-0.00276354
-0.00313613
-0.00317764
0.00541112
-0.00795861
0.0101603
-0.00786688
0.0148395
-0.00769768
0.0194192
-0.00745702
0.023873
-0.00715188
0.0281751
-0.00678803
0.0322966
-0.00636765
0.0361999
-0.00588735
0.039834
-0.00533712
0.0431313
-0.00470038
0.046007
-0.00395415
0.0483583
-0.00306904
0.0500623
-0.00200973
0.0509735
-0.000738813
0.0509263
0.000767932
0.0497577
0.00248802
0.0473486
0.00432916
0.0436685
0.00613975
0.0388385
0.00769287
0.0331638
0.00874454
0.0270293
0.00921287
0.0208124
0.00913572
0.0147886
0.0086869
0.00907053
0.00811954
0.00361681
0.00766096
-0.00171273
0.00745199
-0.00709596
0.00754529
-0.0126922
0.007915
-0.0185837
0.00845207
-0.0247143
0.00895519
-0.0308588
0.00916669
-0.0366617
0.00887375
-0.041729
0.00799312
-0.0457114
0.00655782
-0.0484246
0.00477541
-0.0498587
0.00289491
-0.050112
0.00109309
-0.0493416
-0.00051307
-0.0477194
-0.00187846
-0.0454016
-0.00301751
-0.0425211
-0.00396602
-0.03919
-0.00476025
-0.0355015
-0.00543142
-0.0315302
-0.0060044
-0.0273332
-0.00649764
-0.0229528
-0.00692282
-0.0184218
-0.00728479
-0.0137687
-0.00758248
-0.00902202
-0.00781101
-0.00421272
-0.00796416
0.000626192
-0.0080367
0.0054607
-0.00802588
0.0102569
-0.00793213
0.0149823
-0.00775892
0.0196066
-0.00751194
0.0241014
-0.00719727
0.0284378
-0.00681907
0.0325811
-0.00637701
0.0364854
-0.00586453
0.0400894
-0.00526815
0.0433136
-0.00456773
0.0460601
-0.00373674
0.0482115
-0.00274247
0.0496291
-0.00154796
0.0501513
-0.000119869
0.0496055
0.0015446
0.0478461
0.00338054
0.044797
0.00525579
0.0405074
0.00697432
0.0352123
0.00827852
0.0292824
0.00900602
0.0231114
0.00915338
0.0170279
0.00884208
0.0112141
0.00830649
0.00568514
0.00779717
0.000332676
0.00749243
-0.00501276
0.00747828
-0.0105246
0.00776024
-0.0163236
0.00826435
-0.0224153
0.00882538
-0.0286428
0.00920029
-0.0346961
0.00914768
-0.0401879
0.00852791
-0.0447421
0.00732984
-0.0480966
0.0056841
-0.0501762
0.00384698
-0.0510396
0.00202471
-0.0508212
0.000353813
-0.0496886
-0.00109127
-0.0478034
-0.00230388
-0.0453049
-0.0033144
-0.0423104
-0.00416031
-0.038918
-0.00487557
-0.035208
-0.0054879
-0.0312436
-0.00601862
-0.0270719
-0.00648265
-0.0227277
-0.00688823
-0.0182386
-0.0072372
-0.0136304
-0.0075262
-0.00893005
-0.00774891
-0.00416775
-0.00789843
-0.00796927
0.00606747
-0.0133263
0.0113862
-0.0131857
0.0166131
-0.0129245
0.0217054
-0.0125493
0.0266203
-0.0120668
0.0313139
-0.0114816
0.0357402
-0.0107939
0.0398505
-0.00999772
0.0435939
-0.00908047
0.0469178
-0.00802432
0.0497709
-0.00680723
0.052106
-0.00540414
0.0538844
-0.00378811
0.0550771
-0.0019315
0.0556485
0.000196535
0.0554979
0.00263862
0.0543939
0.0054331
0.0520185
0.00851521
0.048106
0.0116054
0.042602
0.0142485
0.0357955
0.0160194
0.0282406
0.0166907
0.0204456
0.0164819
0.0127128
0.0158524
0.00512738
0.0152464
-0.00237131
0.0149507
-0.00990021
0.0150742
-0.0175489
0.0155637
-0.0252928
0.016196
-0.0329088
0.0165711
-0.0399492
0.0162071
-0.0458449
0.0147695
-0.0501901
0.0123382
-0.0529364
0.00930412
-0.0543008
0.00613987
-0.054606
0.00320013
-0.0541242
0.000611221
-0.0529908
-0.00164644
-0.0512518
-0.00361749
-0.0489358
-0.0053335
-0.046081
-0.00682084
-0.0427354
-0.00810579
-0.0389531
-0.00921375
-0.0347897
-0.0101678
-0.0303003
-0.0109871
-0.0255373
-0.0116858
-0.0205506
-0.0122715
-0.0153877
-0.0127454
-0.0100945
-0.0131042
-0.00471645
-0.0133422
0.000701167
-0.0134543
0.00611291
-0.0134376
0.0114734
-0.0132926
0.0167373
-0.0130228
0.0218591
-0.0126337
0.0267925
-0.0121307
0.0314896
-0.0115162
0.0358999
-0.0107873
0.03997
-0.00993466
0.0436447
-0.00894279
0.0468682
-0.00779128
0.0495878
-0.00645635
0.0517576
-0.0049122
0.0533422
-0.00313259
0.054313
-0.00109065
0.0546094
0.00124817
0.0540605
0.00392944
0.0523678
0.00694854
0.0492201
0.0101219
0.0444546
0.0130441
0.0382099
0.0152506
0.0309674
0.0163959
0.023284
0.0165255
0.0155525
0.016038
0.00793862
0.015411
0.000428549
0.0150025
-0.00708243
0.0149893
-0.0147047
0.0153825
-0.0224698
0.0160295
-0.030241
0.0165965
-0.0376564
0.0166157
-0.0441728
0.0156641
-0.0492761
0.0136312
-0.0527729
0.0108267
-0.0547877
0.0076989
-0.0556148
0.00467404
-0.0555615
0.00197142
-0.0548234
-0.000384245
-0.0534763
-0.00243843
-0.0515502
-0.00422998
-0.0490763
-0.00578821
-0.0460961
-0.00714055
-0.0426581
-0.0083136
-0.0388142
-0.00933173
-0.0346168
-0.010216
-0.0301164
-0.0109831
-0.0253609
-0.0116438
-0.0203957
-0.0122024
-0.0152642
-0.0126576
-0.0100093
-0.0130038
-0.00467364
-0.0132341
-0.0133427
0.00635288
-0.0189463
0.0119102
-0.0187429
0.0173498
-0.0183642
0.0226173
-0.0178168
0.0276586
-0.017108
0.0324201
-0.0162432
0.0368498
-0.0152236
0.040897
-0.014045
0.0445146
-0.012698
0.0476588
-0.0111685
0.050291
-0.00943945
0.0523784
-0.00749161
0.0538945
-0.00530418
0.0548163
-0.00285333
0.0551196
-0.000106758
0.0547762
0.00298207
0.0537571
0.00645217
0.0519998
0.0102725
0.0492833
0.0143218
0.0451707
0.0183611
0.0393415
0.0218485
0.0319524
0.0240798
0.0236084
0.0248258
0.0148808
0.02458
0.00606677
0.0240605
-0.00274407
0.0237615
-0.0115409
0.023871
-0.0202758
0.0242987
-0.0287401
0.0246602
-0.036455
0.0242861
-0.0427746
0.0225267
-0.047359
0.0193538
-0.0503959
0.0153752
-0.0523367
0.0112449
-0.0534808
0.00728397
-0.0539246
0.00364398
-0.0537006
0.000387153
-0.0528373
-0.00250972
-0.0513608
-0.00509394
-0.0492949
-0.00739942
-0.0466664
-0.0094494
-0.0435085
-0.0112636
-0.0398615
-0.0128608
-0.0357712
-0.0142581
-0.0312881
-0.0154702
-0.0264661
-0.0165078
-0.0213614
-0.0173762
-0.0160311
-0.0180756
-0.0105333
-0.018602
-0.00492595
-0.0189496
0.000732458
-0.0191127
0.00638328
-0.0190884
0.0119679
-0.0188772
0.017428
-0.0184829
0.0227054
-0.0179112
0.0277425
-0.0171678
0.0324821
-0.0162558
0.0368687
-0.0151738
0.0408489
-0.0139149
0.0443736
-0.0124674
0.047398
-0.0108157
0.0498838
-0.00894212
0.0517993
-0.00682778
0.0531192
-0.00445242
0.0538195
-0.00179094
0.0538731
0.0011945
0.0532516
0.00455101
0.0519159
0.00828418
0.0497307
0.0123072
0.0463334
0.0164414
0.0412981
0.0202859
0.0345626
0.0231315
0.0265926
0.0244955
0.018024
0.0246066
0.00926179
0.0241732
0.000460162
0.0238041
-0.00835376
0.0238032
-0.0171601
0.0241888
-0.025828
0.0246974
-0.0339883
0.0247568
-0.0410192
0.0236466
-0.046395
0.0210399
-0.0501012
0.0173373
-0.052533
0.0132585
-0.0540867
0.00925252
-0.0549271
0.00551452
-0.0551
0.0021443
-0.0546336
-0.000850673
-0.0535553
-0.0035167
-0.0518886
-0.00589672
-0.0496568
-0.00802001
-0.0468881
-0.00990924
-0.0436169
-0.0115848
-0.0398833
-0.0130654
-0.0357318
-0.0143674
-0.0312109
-0.015504
-0.0263715
-0.0164832
-0.0212662
-0.0173077
-0.0159486
-0.0179752
-0.0104731
-0.0184794
-0.00489418
-0.018813
-0.0189698
0.00641521
-0.024621
0.0120171
-0.0243448
0.0174824
-0.0238294
0.0227484
-0.0230829
0.0277545
-0.0221141
0.0324423
-0.020931
0.0367568
-0.0195381
0.0406475
-0.0179356
0.0440686
-0.0161192
0.0469803
-0.0140802
0.0493477
-0.0118069
0.0511412
-0.00928515
0.0523357
-0.00649865
0.0529101
-0.00342772
0.0528507
-4.73233e-05
0.0521605
0.00367221
0.0508639
0.00774876
0.048977
0.0121594
0.0464607
0.0168382
0.0431608
0.021661
0.0386797
0.0263296
0.0325106
0.0302489
0.0246869
0.0326495
0.0158337
0.0334333
0.00653189
0.0333622
-0.00289728
0.0331907
-0.0122489
0.0332226
-0.0212647
0.0333145
-0.0294655
0.032861
-0.0361787
0.0309993
-0.0411249
0.0274729
-0.044689
0.022918
-0.0473588
0.018045
-0.049354
0.0132401
-0.0507414
0.00867131
-0.0515169
0.00441947
-0.0516537
0.000524042
-0.0511423
-0.00302121
-0.0499932
-0.006243
-0.0482272
-0.00916538
-0.04587
-0.0118066
-0.0429521
-0.0141815
-0.0395097
-0.0163032
-0.0355851
-0.0181827
-0.0312267
-0.0198286
-0.0264885
-0.021246
-0.0214292
-0.0224355
-0.0161113
-0.0233936
-0.0105996
-0.0241138
-0.00496065
-0.0245885
0.00073771
-0.0248111
0.00642723
-0.024778
0.0120397
-0.0244897
0.0175076
-0.0239508
0.0227648
-0.0231684
0.0277469
-0.0221499
0.0323923
-0.0209013
0.0366435
-0.019425
0.0404477
-0.0177192
0.0437581
-0.0157779
0.0465341
-0.0135917
0.048741
-0.011149
0.0503495
-0.00843626
0.0513351
-0.00543806
0.051679
-0.00213485
0.0513746
0.00149887
0.050438
0.0054877
0.0488947
0.00982739
0.046735
0.0144669
0.0438641
0.0193124
0.0399986
0.0241514
0.0346089
0.0285212
0.0274543
0.0316501
0.01898
0.0330809
0.00984274
0.0333105
0.000451365
0.0331955
-0.008966
0.0332205
-0.018191
0.0334138
-0.0268439
0.0333503
-0.0342836
0.0321965
-0.039988
0.029351
-0.0441075
0.0251593
-0.0471781
0.0204079
-0.0495226
0.0156031
-0.0512555
0.0109854
-0.0523974
0.00665649
-0.0529255
0.00267241
-0.0528198
-0.000956395
-0.0520826
-0.00425388
-0.0507303
-0.00724904
-0.0487851
-0.00996527
-0.0462732
-0.0124211
-0.0432255
-0.0146324
-0.0396782
-0.0166127
-0.0356727
-0.0183729
-0.031256
-0.0199207
-0.02648
-0.0212592
-0.0214005
-0.0223872
-0.0160767
-0.023299
-0.0105698
-0.0239862
-0.00494276
-0.0244401
-0.024653
0.00630173
-0.0301952
0.0117958
-0.0298389
0.0171402
-0.0291738
0.0222673
-0.0282099
0.0271123
-0.0269591
0.0316145
-0.0254332
0.0357181
-0.0236417
0.0393731
-0.0215906
0.0425358
-0.0192819
0.0451691
-0.0167134
0.0472417
-0.0138795
0.0487279
-0.0107714
0.0496072
-0.00737791
0.0498646
-0.00368514
0.0494946
0.0003227
0.0485071
0.0046597
0.0469299
0.00932591
0.0447977
0.0142916
0.0421399
0.019496
0.0389536
0.0248474
0.0350962
0.030187
0.0301625
0.0351826
0.0236296
0.0391824
0.0155383
0.0415245
0.00651119
0.0423893
-0.00283967
0.0425416
-0.0120212
0.0424042
-0.0204818
0.0417751
-0.0275541
0.0399333
-0.0329435
0.0363887
-0.0370498
0.0315792
-0.0403678
0.026236
-0.0431195
0.0207966
-0.0453384
0.015459
-0.0469995
0.0103325
-0.0480684
0.00548839
-0.0485134
0.000969007
-0.048319
-0.00321564
-0.0474876
-0.00707441
-0.046033
-0.01062
-0.0439759
-0.0138636
-0.041343
-0.0168145
-0.0381668
-0.0194794
-0.0344867
-0.0218628
-0.0303489
-0.0239664
-0.0258069
-0.0257881
-0.0209201
-0.0273223
-0.0157534
-0.0285602
-0.0103757
-0.0294914
-0.0048591
-0.0301051
0.000722666
-0.0303929
0.00629474
-0.03035
0.0117824
-0.0299774
0.0171123
-0.0292807
0.0222131
-0.0282691
0.0270167
-0.0269535
0.0314597
-0.0253442
0.0354839
-0.0234492
0.0390378
-0.0212731
0.0420769
-0.0188169
0.0445636
-0.0160784
0.046467
-0.0130523
0.047762
-0.00973125
0.0484294
-0.00610548
0.0484578
-0.00216326
0.0478488
0.00210783
0.046623
0.00671355
0.0448141
0.0116363
0.0424554
0.0168255
0.0395652
0.0222026
0.0360751
0.0276415
0.0316936
0.0329027
0.0258822
0.0374615
0.0183938
0.0405693
0.00968383
0.0420204
0.000411281
0.0424681
-0.00890469
0.0425365
-0.017755
0.0422641
-0.0254885
0.0410839
-0.0315783
0.0382863
-0.0361778
0.0339506
-0.0398339
0.0288155
-0.0428776
0.0234516
-0.0454011
0.0181266
-0.0473924
0.0129767
-0.0488199
0.00808394
-0.0496491
0.00350167
-0.0498564
-0.000749105
-0.0494364
-0.00467386
-0.0483977
-0.00828773
-0.0467569
-0.0116061
-0.0445359
-0.0146422
-0.0417618
-0.0174066
-0.0384672
-0.0199072
-0.0346911
-0.022149
-0.0304788
-0.024133
-0.0258818
-0.0258562
-0.0209574
-0.0273116
-0.0157674
-0.0284889
-0.0103775
-0.0293762
-0.00485578
-0.0299617
-0.0302364
0.00604362
-0.0355407
0.0113049
-0.0351002
0.0164089
-0.0342778
0.0212853
-0.0330863
0.0258677
-0.0315416
0.030095
-0.0296605
0.0339119
-0.0274586
0.0372701
-0.0249488
0.0401283
-0.0221402
0.0424527
-0.0190377
0.0442156
-0.0156424
0.0453958
-0.0119516
0.0459781
-0.00796023
0.0459542
-0.00366127
0.0453255
0.000951427
0.0441064
0.0058788
0.0423252
0.0111071
0.0400177
0.0165991
0.0372216
0.022292
0.0339707
0.0280983
0.0302627
0.033895
0.025954
0.0394914
0.0206375
0.0444989
0.0139012
0.0482608
0.00594001
0.0503505
-0.0025454
0.051027
-0.010766
0.0506248
-0.0179624
0.0489714
-0.0237141
0.045685
-0.0282696
0.0409442
-0.0321005
0.0354101
-0.0354378
0.0295733
-0.0383135
0.0236724
-0.0407002
0.0178457
-0.0425597
0.0121919
-0.0438547
0.00678345
-0.0445538
0.00166806
-0.0446381
-0.00313129
-0.0441035
-0.00760899
-0.042957
-0.0117666
-0.0412134
-0.0156072
-0.0388947
-0.0191331
-0.0360297
-0.0223443
-0.0326545
-0.0252381
-0.0288127
-0.0278081
-0.024556
-0.0300448
-0.0199432
-0.031935
-0.0150397
-0.0334638
-0.00991595
-0.0346151
-0.0046466
-0.0353744
0.000691095
-0.0357305
0.00601861
-0.0356776
0.0112576
-0.0352164
0.0163314
-0.0343545
0.0211663
-0.033104
0.025693
-0.0314802
0.0298477
-0.0294989
0.0335734
-0.0271749
0.0368205
-0.0245202
0.0395473
-0.0215437
0.0417196
-0.0182507
0.0433104
-0.0146432
0.0442997
-0.0107205
0.0446743
-0.00648007
0.0444298
-0.00191876
0.0435739
0.00296371
0.0421292
0.00815829
0.0401294
0.0136361
0.0376123
0.0193426
0.0346155
0.0251995
0.0311579
0.031099
0.0271729
0.0368876
0.0223576
0.0422768
0.0162284
0.0466985
0.00870296
0.0495459
0.000338244
0.0508328
-0.00808668
0.0509614
-0.0157858
0.0499632
-0.0221426
0.0474407
-0.0271468
0.0432905
-0.0312711
0.0380749
-0.0348556
0.0324
-0.0379907
0.0265866
-0.0406636
0.0207995
-0.0428382
0.0151513
-0.0444768
0.00972253
-0.0455448
0.00456969
-0.0460172
-0.000276714
-0.0458832
-0.00480784
-0.0451444
-0.00902653
-0.043811
-0.0129395
-0.0418999
-0.0165533
-0.0394339
-0.0198726
-0.0364421
-0.022899
-0.0329604
-0.0256307
-0.0290318
-0.0280616
-0.0247066
-0.0301814
-0.0200416
-0.0319767
-0.0150994
-0.0334311
-0.00994762
-0.034528
-0.00465728
-0.0352521
-0.0355917
0.00566791
-0.0405538
0.010595
-0.0400273
0.0153618
-0.0390447
0.0198976
-0.0376221
0.0241362
-0.0357802
0.0280175
-0.0335417
0.031488
-0.0309291
0.0345022
-0.0279629
0.0370221
-0.02466
0.0390173
-0.021033
0.040465
-0.0170901
0.0413489
-0.0128355
0.0416595
-0.00827082
0.0413947
-0.0033965
0.0405614
0.0017847
0.0391774
0.00726287
0.0372709
0.0130136
0.034878
0.0189921
0.0320385
0.0251315
0.0287939
0.031343
0.0251766
0.0375122
0.0211789
0.0434891
0.0166517
0.0490261
0.0112632
0.0536494
0.00487995
0.0567337
-0.00203821
0.0579451
-0.0086808
0.0572674
-0.0144126
0.0547032
-0.0191712
0.0504437
-0.023285
0.045058
-0.0269776
0.0391027
-0.030291
0.0328866
-0.0331995
0.0265809
-0.0356628
0.020309
-0.0376397
0.0141688
-0.0390924
0.00823609
-0.0399895
0.00256515
-0.0403101
-0.00281067
-0.0400449
-0.00787417
-0.0391946
-0.0126169
-0.0377683
-0.0170335
-0.0357826
-0.0211188
-0.0332616
-0.0248653
-0.0302375
-0.0282622
-0.0267506
-0.031295
-0.0228497
-0.0339457
-0.0185916
-0.0361931
-0.0140404
-0.0380149
-0.00926653
-0.0393891
-0.00434488
-0.0402961
0.000646234
-0.0407217
0.005627
-0.0406583
0.0105178
-0.0401072
0.0152412
-0.0390778
0.019723
-0.0375859
0.0238946
-0.0356518
0.0276935
-0.0332979
0.031065
-0.0305464
0.0339625
-0.0274176
0.0363476
-0.0239289
0.0381906
-0.0200936
0.0394691
-0.0159217
0.0401685
-0.0114199
0.0402817
-0.00659328
0.0398104
-0.00144752
0.038767
0.00400718
0.0371751
0.00975011
0.0350684
0.0157428
0.0324856
0.0219254
0.0294685
0.0282165
0.0260555
0.0345121
0.0222627
0.0406804
0.0180126
0.0465269
0.0130278
0.0516833
0.00702777
0.0555459
0.00023643
0.0576241
-0.00661511
0.057813
-0.01276
0.0561081
-0.0178932
0.0525738
-0.022256
0.0476532
-0.0261488
0.0419677
-0.0296715
0.0359227
-0.0328148
0.0297299
-0.0355424
0.0235271
-0.0378128
0.0174217
-0.0395868
0.0114966
-0.0408301
0.00581302
-0.0415169
0.000410051
-0.0416324
-0.00469232
-0.0411723
-0.00948663
-0.0401407
-0.0139711
-0.0385489
-0.0181451
-0.0364147
-0.0220067
-0.0337632
-0.0255506
-0.0306264
-0.0287675
-0.0270443
-0.0316436
-0.0230647
-0.034161
-0.0187427
-0.0362986
-0.0141402
-0.0380336
-0.00932474
-0.0393435
-0.00436808
-0.0402087
-0.0406147
0.00519661
-0.0451497
0.00970717
-0.0445378
0.0140589
-0.0433964
0.0181821
-0.0417453
0.0220125
-0.0396106
0.0254922
-0.0370214
0.0285711
-0.034008
0.0312069
-0.0305987
0.0333657
-0.0268189
0.0350218
-0.0226891
0.036157
-0.0182253
0.0367607
-0.0134391
0.036829
-0.00833917
0.0363659
-0.00293341
0.0353834
0.00276721
0.0339026
0.00874368
0.0319533
0.0149629
0.0295721
0.0213732
0.0268009
0.0279028
0.0236854
0.0344584
0.0202733
0.0409244
0.0166061
0.0471562
0.0126844
0.0529478
0.00840084
0.0579329
0.00362955
0.061505
-0.00145107
0.0630257
-0.00636687
0.0621832
-0.0108014
0.0591377
-0.0148064
0.0544487
-0.0185227
0.0487743
-0.0219811
0.0425611
-0.0251472
0.0360527
-0.0279735
0.0294072
-0.0304128
0.0227484
-0.0324216
0.0161776
-0.0339609
0.00977546
-0.0349986
0.00360285
-0.0355109
-0.00229835
-0.0354837
-0.00790138
-0.0349118
-0.0131888
-0.0337984
-0.018147
-0.0321543
-0.0227629
-0.0299987
-0.0270209
-0.0273589
-0.030902
-0.0242711
-0.0343828
-0.0207804
-0.0374364
-0.0169404
-0.0400332
-0.0128124
-0.0421429
-0.00846494
-0.0437366
-0.00397148
-0.0447896
0.0005907
-0.0452838
0.00514264
-0.0452103
0.00960563
-0.0445702
0.0139032
-0.0433754
0.017963
-0.0416456
0.0217183
-0.0394071
0.0251095
-0.0366891
0.0280853
-0.0335222
0.0306029
-0.0299352
0.0326285
-0.0259544
0.0341367
-0.0216019
0.0351107
-0.0168958
0.0355416
-0.0118508
0.0354283
-0.00647997
0.0347782
-0.000797446
0.033608
0.00517745
0.0319436
0.0114145
0.0298194
0.0178671
0.0272753
0.0244694
0.0243563
0.0311355
0.0211099
0.0377585
0.0175827
0.0442076
0.013799
0.0503106
0.00969904
0.0557832
0.00513223
0.0601127
0.000128753
0.0626276
-0.00491128
0.062853
-0.009556
0.0607528
-0.0137292
0.0567471
-0.0175798
0.0515038
-0.0211835
0.0455715
-0.0245233
0.0392625
-0.027554
0.0327606
-0.0302283
0.0262014
-0.0325012
0.0196945
-0.0343321
0.0133275
-0.035686
0.0071669
-0.0365351
0.00125921
-0.0368609
-0.00436654
-0.0366535
-0.00969404
-0.0359111
-0.0147135
-0.0346391
-0.0194171
-0.0328503
-0.0237955
-0.0305647
-0.0278363
-0.0278101
-0.0315221
-0.0246226
-0.0348311
-0.0210465
-0.0377371
-0.0171341
-0.040211
-0.012945
-0.0422227
-0.00854511
-0.0437434
-0.00400516
-0.0447487
-0.0452205
0.00464787
-0.0492601
0.00867552
-0.0485655
0.0125495
-0.0472704
0.0162029
-0.0453988
0.0195747
-0.0429823
0.0226106
-0.0400573
0.0252644
-0.0366618
0.0274983
-0.0328327
0.0292831
-0.0286037
0.030598
-0.024004
0.0314302
-0.0190575
0.0317745
-0.0137834
0.0316331
-0.00819777
0.0310155
-0.00231581
0.0299389
0.00384386
0.0284283
0.0102543
0.0265163
0.0168749
0.024242
0.0236475
0.0216506
0.0304942
0.0187933
0.0373157
0.0157286
0.0439891
0.0125227
0.0503621
0.00924177
0.0562287
0.00591587
0.0612588
0.00251801
0.0649028
-0.000940702
0.0664844
-0.00436215
0.0656046
-0.00769684
0.0624724
-0.0109729
0.0577247
-0.0141813
0.0519827
-0.0172625
0.0456423
-0.0201477
0.0389379
-0.0227753
0.0320348
-0.0250914
0.0250645
-0.0270485
0.0181346
-0.028605
0.011332
-0.0297262
0.00472403
-0.0303846
-0.00163993
-0.0305612
-0.00772477
-0.0302452
-0.0135048
-0.0294337
-0.0189585
-0.0281319
-0.0240647
-0.0263533
-0.0287995
-0.0241201
-0.0331351
-0.0214636
-0.0370393
-0.0184242
-0.0404758
-0.0150511
-0.0434063
-0.011402
-0.0457919
-0.00754175
-0.0475968
-0.00354073
-0.0487906
0.000526629
-0.0493512
0.0045841
-0.0492677
0.00855573
-0.0485418
0.0123679
-0.0471876
0.0159516
-0.0452293
0.0192435
-0.042699
0.0221883
-0.0396339
0.0247388
-0.0360727
0.026857
-0.0320534
0.0285139
-0.0276114
0.0296898
-0.0227777
0.0303732
-0.0175792
0.0305612
-0.0120387
0.0302585
-0.00617727
0.0294781
-1.70812e-05
0.0282413
0.00641429
0.0265773
0.0130784
0.0245231
0.0199214
0.0221214
0.0268711
0.0194215
0.0338354
0.0164792
0.0407008
0.0133583
0.0473286
0.0101279
0.053541
0.00683872
0.0590724
0.00348319
0.0634683
4.2888e-05
0.0660679
-0.00340742
0.0663033
-0.00678349
0.0641289
-0.0100968
0.0600604
-0.0133634
0.0547704
-0.0165394
0.0487474
-0.0195563
0.0422795
-0.0223499
0.0355542
-0.0248637
0.0287152
-0.027048
0.0218788
-0.0288592
0.0151387
-0.0302599
0.00856759
-0.0312193
0.00221864
-0.0317145
-0.00387138
-0.0317303
-0.00967827
-0.031259
-0.0151847
-0.0303006
-0.0203755
-0.028862
-0.0252341
-0.0269581
-0.0297402
-0.0246118
-0.0338684
-0.0218547
-0.0375883
-0.0187266
-0.0408651
-0.0152761
-0.0436615
-0.0115592
-0.0459396
-0.00763862
-0.047664
-0.0035825
-0.0488048
-0.0493405
0.00403636
-0.0528295
0.00752751
-0.0520566
0.0108736
-0.0506165
0.0140121
-0.0485373
0.0168863
-0.0458566
0.0194468
-0.0426178
0.0216523
-0.0388672
0.0234699
-0.0346503
0.0248757
-0.0300095
0.0258541
-0.0249824
0.0263978
-0.0196012
0.0265073
-0.0138929
0.0261903
-0.00788078
0.0254619
-0.00158737
0.0243442
0.00496157
0.0228666
0.0117319
0.0210652
0.0186762
0.0189827
0.02573
0.0166681
0.0328088
0.014178
0.0398058
0.0115785
0.0465886
0.00894801
0.0529926
0.00637546
0.0588013
0.00393794
0.0636964
0.00165017
0.0671906
-0.000558797
0.0686934
-0.00280347
0.0678493
-0.00517599
0.0648449
-0.00769135
0.0602401
-0.0102869
0.0545782
-0.0128724
0.0482278
-0.0153648
0.0414303
-0.0176935
0.0343635
-0.0197985
0.0271694
-0.0216279
0.019964
-0.0231368
0.0128409
-0.0242868
0.00587395
-0.0250462
-0.000880503
-0.0253911
-0.00737984
-0.0253052
-0.0135907
-0.0247798
-0.0194839
-0.0238143
-0.0250302
-0.0224166
-0.0301972
-0.0206032
-0.0349485
-0.0184
-0.0392425
-0.015842
-0.0430338
-0.0129733
-0.046275
-0.0098465
-0.0489188
-0.00652148
-0.0509219
-0.00306411
-0.0522479
0.00045573
-0.052871
0.00396626
-0.0527783
0.00739597
-0.0519716
0.0106758
-0.0504674
0.0137414
-0.0482948
0.0165344
-0.0454921
0.0190045
-0.042104
0.0211099
-0.038178
0.0228178
-0.0337613
0.0241049
-0.0288985
0.0249568
-0.0236297
0.0253681
-0.0179905
0.0253414
-0.012012
0.0248874
-0.00572319
0.0240242
0.000846026
0.0227781
0.00766044
0.0211822
0.0146742
0.0192768
0.0218268
0.0171086
0.0290393
0.0147314
0.0362126
0.0122076
0.0432246
0.00961091
0.0499253
0.00702779
0.0561241
0.00454589
0.0615543
0.00221181
0.0658024
-1.26555e-05
0.0682924
-0.00223172
0.0685224
-0.0045546
0.0664518
-0.00703197
0.0625378
-0.00962812
0.0573665
-0.0122588
0.0513781
-0.0148369
0.0448575
-0.0172873
0.0380046
-0.0195468
0.0309746
-0.0215607
0.0238927
-0.0232817
0.0168598
-0.024669
0.00995486
-0.0256881
0.00323771
-0.0263114
-0.00324805
-0.0265187
-0.00947099
-0.0262968
-0.0154066
-0.0256398
-0.0210326
-0.0245492
-0.0263247
-0.0230345
-0.0312549
-0.0211134
-0.0357895
-0.0188122
-0.0398895
-0.0161658
-0.0435115
-0.0132177
-0.0466095
-0.0100195
-0.0491378
-0.00662946
-0.0510541
-0.00311141
-0.0523229
-0.0529189
0.00337391
-0.0558128
0.0062853
-0.054968
0.00906354
-0.0533947
0.0116517
-0.0511254
0.0139988
-0.0482037
0.0160611
-0.0446802
0.017803
-0.0406091
0.0191972
-0.0360445
0.0202252
-0.0310375
0.020877
-0.0256342
0.0211507
-0.0198749
0.021052
-0.0137942
0.020594
-0.0074228
0.0197968
-0.000790185
0.0186873
0.00607109
0.0172989
0.0131203
0.0156713
0.0203038
0.0138501
0.0275512
0.0118876
0.0347713
0.00984335
0.04185
0.00778601
0.0486459
0.00579477
0.0549839
0.00395668
0.0606394
0.00234605
0.065307
0.000970993
0.0685657
-0.000277083
0.0699415
-0.00158647
0.0691587
-0.0031031
0.0663616
-0.00485543
0.0619924
-0.00678343
0.0565062
-0.00879968
0.0502441
-0.0108209
0.0434516
-0.0127746
0.0363171
-0.0145976
0.0289925
-0.0162352
0.0216016
-0.0176391
0.0142449
-0.0187675
0.00700235
-0.0195849
-6.31306e-05
-0.0200626
-0.00690217
-0.0201791
-0.0134742
-0.0199204
-0.0197426
-0.0192804
-0.0256702
-0.0182612
-0.0312164
-0.0168737
-0.036336
-0.0151378
-0.0409784
-0.0130827
-0.045089
-0.0107464
-0.0486113
-0.00817544
-0.0514898
-0.00542362
-0.0536737
-0.00255074
-0.0551208
0.000379365
-0.0558011
0.00330094
-0.0556998
0.0061485
-0.0548191
0.00885907
-0.053178
0.0113743
-0.05081
0.013642
-0.0477598
0.0156178
-0.0440798
0.017266
-0.0398262
0.0185597
-0.0350551
0.0194815
-0.0298203
0.0200227
-0.0241709
0.0201834
-0.0181512
0.0199718
-0.0118004
0.0194039
-0.00515526
0.018503
0.00174692
0.0172996
0.00886381
0.0158309
0.0161429
0.0141405
0.0235172
0.012278
0.0309017
0.0103005
0.0381902
0.00827316
0.0452519
0.00627141
0.051927
0.00438086
0.0580147
0.00268631
0.0632489
0.00123113
0.0672575
-4.4431e-05
0.0695679
-0.0013088
0.0697868
-0.00273954
0.0678825
-0.00441381
0.064212
-0.0062999
0.0592526
-0.00831644
0.0533947
-0.0103775
0.0469186
-0.0124067
0.0400338
-0.0143379
0.0329058
-0.0161135
0.0256683
-0.0176831
0.0184294
-0.0190026
0.0112743
-0.0200338
0.004269
-0.0207451
-0.00253674
-0.0211114
-0.00910477
-0.0211142
-0.0154038
-0.0207425
-0.0214043
-0.0199923
-0.0270748
-0.0188678
-0.0323794
-0.0173811
-0.0372762
-0.0155529
-0.0417176
-0.0134128
-0.0456517
-0.0109985
-0.0490239
-0.00835569
-0.0517806
-0.00553713
-0.0538726
-0.00260102
-0.055259
-0.0559105
0.00267006
-0.0581734
0.00496676
-0.0572647
0.00714528
-0.0555732
0.00915559
-0.0531358
0.0109535
-0.0500016
0.0125018
-0.0462285
0.0137712
-0.0418784
0.0147405
-0.0370138
0.0153969
-0.0316939
0.0157358
-0.0259731
0.0157603
-0.0198994
0.0154811
-0.013515
0.014916
-0.00685772
0.0140895
3.63329e-05
0.0130324
0.00712822
0.0117814
0.0143713
0.0103787
0.0217065
0.00887206
0.0290578
0.0073145
0.0363289
0.00576517
0.0433993
0.00428961
0.0501215
0.00295909
0.0563144
0.00184498
0.0617535
0.000998533
0.0661534
0.000405498
0.0691587
-5.62617e-05
0.0704032
-0.000582197
0.0696846
-0.00132878
0.0671082
-0.00234423
0.0630078
-0.00359265
0.0577547
-0.00500532
0.0516568
-0.0065093
0.0449555
-0.00803644
0.0378443
-0.00952502
0.0304811
-0.0109195
0.0229961
-0.0121701
0.0154955
-0.0132325
0.00806473
-0.014068
0.000772355
-0.014644
-0.00632614
-0.0149346
-0.0131836
-0.0149211
-0.0197561
-0.0145922
-0.0259991
-0.0139446
-0.031864
-0.0129834
-0.0372971
-0.0117226
-0.0422391
-0.010185
-0.0466266
-0.00840173
-0.0503945
-0.00641243
-0.0534791
-0.00426368
-0.0558224
-0.00200788
-0.0573766
0.000298617
-0.0581076
0.00259755
-0.0579988
0.00483095
-0.0570525
0.00694329
-0.0552903
0.0088835
-0.0527502
0.0106067
-0.049483
0.0120754
-0.0455486
0.0132605
-0.0410113
0.0141416
-0.0359361
0.0147069
-0.0303856
0.0149536
-0.0244177
0.0148871
-0.0180846
0.0145205
-0.0114338
0.0138746
-0.00450935
0.012977
0.00264448
0.011862
0.00997881
0.0105697
0.0174352
0.00914593
0.024941
0.00764183
0.0324058
0.00611455
0.0397174
0.00462746
0.046739
0.0032503
0.0533042
0.00205632
0.0592087
0.00110957
0.0641956
0.000429385
0.0679377
-6.13053e-05
0.0700586
-0.000539686
0.0702651
-0.00119136
0.0685342
-0.00210951
0.0651302
-0.00328606
0.0604292
-0.00466122
0.0547698
-0.00616253
0.0484199
-0.00771998
0.0415913
-0.0092697
0.0344555
-0.0107542
0.0271528
-0.0121217
0.0197969
-0.0133262
0.0124788
-0.0143266
0.00526946
-0.0150879
-0.00177551
-0.0155807
-0.00861195
-0.0157823
-0.0152021
-0.0156768
-0.0215098
-0.0152554
-0.0274963
-0.0145168
-0.033118
-0.0134679
-0.0383251
-0.0121236
-0.043062
-0.0105072
-0.0472681
-0.0086502
-0.0508809
-0.00659162
-0.0538392
-0.00437735
-0.0560869
-0.00205867
-0.0575777
-0.0582786
0.00193267
-0.0598818
0.00358662
-0.0589187
0.0051402
-0.0571268
0.00655152
-0.0545471
0.00778416
-0.0512342
0.00880831
-0.0472526
0.00960146
-0.0426716
0.0101488
-0.0375611
0.0104432
-0.0319883
0.0104851
-0.026015
0.0102826
-0.0196969
0.0098506
-0.013083
0.0092107
-0.00621782
0.00839081
0.000856229
0.00742459
0.00809444
0.00635087
0.015445
0.00521305
0.0228443
0.00405877
0.0302121
0.00293962
0.037448
0.0019108
0.0444282
0.00103015
0.0510021
0.000355499
0.056989
-6.29357e-05
0.0621719
-0.000201201
0.0662917
-9.55742e-05
0.0690531
0.000130465
0.0701772
0.000297168
0.0695179
0.000254613
0.0671507
-6.16033e-05
0.0633241
-0.000643014
0.0583361
-0.00144483
0.0524586
-0.00241008
0.0459208
-0.00348002
0.0389142
-0.00459799
0.0315991
-0.0057107
0.0241088
-0.00676874
0.0165535
-0.00772693
0.00902292
-0.0085447
0.00159013
-0.00918673
-0.00568411
-0.00962368
-0.0127466
-0.00983278
-0.019547