/*--------------------------------*- C++ -*----------------------------------*\
| =========                 |                                                 |
| \\      /  F ield         | OpenFOAM: The Open Source CFD Toolbox           |
|  \\    /   O peration     | Version:  2.3.0                                 |
|   \\  /    A nd           | Web:      www.OpenFOAM.org                      |
|    \\/     M anipulation  |                                                 |
\*---------------------------------------------------------------------------*/
FoamFile
{
    version     2.0;
    format      ascii;
    class       volVectorField;
    location    "8000";
    object      U;
}
// * * * * * * * * * * * * * * * * * * * * * * * * * * * * * * * * * * * * * //

dimensions      [0 1 -1 0 0 0 0];

internalField   nonuniform List<vector> 
3060
(
(1.71902 0 -2.37501)
(4.36026 0 -2.28637)
(6.87909 0 -2.1198)
(9.20198 0 -1.87471)
(11.2573 0 -1.55154)
(12.9782 0 -1.1551)
(14.3085 0 -0.700545)
(15.2125 0 -0.221298)
(15.6892 0 0.227082)
(15.7872 0 0.580069)
(15.5989 0 0.794023)
(15.232 0 0.874202)
(14.7416 0 0.863064)
(14.1401 0 0.803944)
(13.4036 0 0.724705)
(12.4971 0 0.640715)
(11.401 0 0.577292)
(10.1177 0 0.5615)
(8.66635 0 0.575577)
(7.10568 0 0.567273)
(5.54692 0 0.51436)
(4.09925 0 0.427961)
(2.83972 0 0.327861)
(1.79993 0 0.235877)
(0.955691 0 0.168915)
(0.239747 0 0.135996)
(-0.43749 0 0.140279)
(-1.17115 0 0.18135)
(-2.04706 0 0.254889)
(-3.12377 0 0.349906)
(-4.41159 0 0.447489)
(-5.86404 0 0.525409)
(-7.39387 0 0.566158)
(-8.88518 0 0.564358)
(-10.2362 0 0.555062)
(-11.4011 0 0.584145)
(-12.3618 0 0.651351)
(-13.1214 0 0.724264)
(-13.7048 0 0.778679)
(-14.141 0 0.791075)
(-14.4319 0 0.726731)
(-14.5467 0 0.548189)
(-14.4058 0 0.241818)
(-13.9267 0 -0.166286)
(-13.0507 0 -0.620735)
(-11.7686 0 -1.06317)
(-10.1094 0 -1.45373)
(-8.12582 0 -1.77205)
(-5.88466 0 -2.01001)
(-3.45949 0 -2.16528)
(-0.927188 0 -2.23735)
(1.63374 0 -2.22576)
(4.14422 0 -2.13066)
(6.5261 0 -1.95245)
(8.7032 0 -1.69189)
(10.6033 0 -1.35239)
(12.1628 0 -0.94471)
(13.3341 0 -0.493977)
(14.0973 0 -0.0459429)
(14.4751 0 0.338812)
(14.5363 0 0.610404)
(14.3669 0 0.754357)
(14.0346 0 0.793781)
(13.5587 0 0.766636)
(12.9307 0 0.704917)
(12.1171 0 0.630673)
(11.0992 0 0.571268)
(9.88031 0 0.555205)
(8.48351 0 0.567911)
(6.96963 0 0.559376)
(5.45021 0 0.507147)
(4.03564 0 0.42154)
(2.80395 0 0.322415)
(1.78625 0 0.231748)
(0.957172 0 0.166425)
(0.248462 0 0.135323)
(-0.429977 0 0.141484)
(-1.17321 0 0.18435)
(-2.06641 0 0.259466)
(-3.16704 0 0.355714)
(-4.4843 0 0.454214)
(-5.97154 0 0.532887)
(-7.54272 0 0.574156)
(-9.08291 0 0.57173)
(-10.4907 0 0.56104)
(-11.7234 0 0.590782)
(-12.7661 0 0.66343)
(-13.6227 0 0.747751)
(-14.3177 0 0.823221)
(-14.8875 0 0.872584)
(-15.3463 0 0.863037)
(-15.6713 0 0.74926)
(-15.792 0 0.49482)
(-15.5959 0 0.109074)
(-15.0029 0 -0.354398)
(-13.9782 0 -0.831434)
(-12.5345 0 -1.27223)
(-10.7143 0 -1.64922)
(-8.57742 0 -1.95087)
(-6.19266 0 -2.17406)
(-3.6323 0 -2.31888)
(-0.970176 0 -2.38587)
(1.41536 0 -3.70177)
(3.60336 0 -3.59696)
(5.72691 0 -3.40246)
(7.7518 0 -3.12307)
(9.652 0 -2.76772)
(11.4136 0 -2.35208)
(13.0383 0 -1.90152)
(14.5435 0 -1.45195)
(15.9547 0 -1.04356)
(17.2882 0 -0.70396)
(18.5298 0 -0.429083)
(19.6253 0 -0.180464)
(20.5022 0 0.0935721)
(21.0909 0 0.438286)
(21.3234 0 0.879197)
(21.1258 0 1.40237)
(20.4045 0 1.92585)
(19.1111 0 2.34471)
(17.2794 0 2.6166)
(14.9836 0 2.71721)
(12.3843 0 2.6486)
(9.69013 0 2.42725)
(7.09571 0 2.10062)
(4.73214 0 1.75645)
(2.62583 0 1.48365)
(0.707588 0 1.34142)
(-1.1484 0 1.35564)
(-3.08321 0 1.52277)
(-5.21314 0 1.80912)
(-7.58753 0 2.14659)
(-10.1529 0 2.44119)
(-12.7548 0 2.61095)
(-15.1903 0 2.62041)
(-17.2559 0 2.45237)
(-18.8168 0 2.11448)
(-19.8177 0 1.63229)
(-20.2451 0 1.07282)
(-20.1753 0 0.549688)
(-19.6964 0 0.119682)
(-18.8829 0 -0.221305)
(-17.8106 0 -0.50845)
(-16.5564 0 -0.788812)
(-15.1864 0 -1.10519)
(-13.7342 0 -1.47599)
(-12.2002 0 -1.88835)
(-10.5657 0 -2.30885)
(-8.81392 0 -2.7014)
(-6.94104 0 -3.03758)
(-4.95867 0 -3.29851)
(-2.89126 0 -3.47297)
(-0.772051 0 -3.55487)
(1.36122 0 -3.54168)
(3.46978 0 -3.43381)
(5.51671 0 -3.23466)
(7.47077 0 -2.95151)
(9.31069 0 -2.59746)
(11.029 0 -2.1939)
(12.6336 0 -1.77185)
(14.1436 0 -1.36816)
(15.5744 0 -1.01246)
(16.9176 0 -0.709334)
(18.129 0 -0.431928)
(19.1374 0 -0.134351)
(19.8662 0 0.228545)
(20.2394 0 0.685908)
(20.1815 0 1.22828)
(19.5996 0 1.77798)
(18.4398 0 2.22372)
(16.7314 0 2.517)
(14.5461 0 2.6349)
(12.0427 0 2.58007)
(9.43109 0 2.36947)
(6.90688 0 2.05328)
(4.59956 0 1.72117)
(2.53225 0 1.46246)
(0.632762 0 1.3357)
(-1.22633 0 1.36584)
(-3.18586 0 1.54819)
(-5.36006 0 1.84814)
(-7.79499 0 2.19715)
(-10.4342 0 2.50201)
(-13.1221 0 2.68299)
(-15.6573 0 2.70715)
(-17.8369 0 2.55725)
(-19.5239 0 2.24213)
(-20.6601 0 1.78754)
(-21.2269 0 1.25228)
(-21.2965 0 0.746877)
(-20.9583 0 0.333402)
(-20.2825 0 0.0119526)
(-19.3378 0 -0.250011)
(-18.1944 0 -0.500854)
(-16.9233 0 -0.791058)
(-15.5684 0 -1.15111)
(-14.1335 0 -1.57469)
(-12.5975 0 -2.02861)
(-10.9358 0 -2.47263)
(-9.13499 0 -2.87356)
(-7.19808 0 -3.20899)
(-5.14268 0 -3.46542)
(-2.99748 0 -3.63529)
(-0.798334 0 -3.71464)
(1.34191 0 -5.88537)
(3.42215 0 -5.73739)
(5.45668 0 -5.46477)
(7.422 0 -5.07794)
(9.30035 0 -4.59412)
(11.0807 0 -4.03943)
(12.7573 0 -3.44984)
(14.3258 0 -2.86794)
(15.7753 0 -2.3313)
(17.0824 0 -1.85437)
(18.2145 0 -1.41823)
(19.1403 0 -0.980587)
(19.8405 0 -0.498144)
(20.3102 0 0.0622125)
(20.5567 0 0.721123)
(20.594 0 1.48795)
(20.418 0 2.36938)
(19.9602 0 3.3734)
(19.077 0 4.41872)
(17.6099 0 5.22274)
(15.4564 0 5.5688)
(12.732 0 5.49001)
(9.72137 0 5.0897)
(6.70191 0 4.54059)
(3.81895 0 4.05238)
(1.0741 0 3.78164)
(-1.61629 0 3.80124)
(-4.35855 0 4.10141)
(-7.2235 0 4.58915)
(-10.1817 0 5.08881)
(-13.0532 0 5.38732)
(-15.5457 0 5.32932)
(-17.4102 0 4.8275)
(-18.6016 0 3.89919)
(-19.2544 0 2.82982)
(-19.5294 0 1.84597)
(-19.5516 0 0.982782)
(-19.3607 0 0.228656)
(-18.9488 0 -0.422223)
(-18.3039 0 -0.981556)
(-17.4253 0 -1.47334)
(-16.3277 0 -1.93284)
(-15.0389 0 -2.3999)
(-13.5936 0 -2.90203)
(-12.0219 0 -3.43987)
(-10.3432 0 -3.98702)
(-8.56811 0 -4.50452)
(-6.70541 0 -4.95523)
(-4.76711 0 -5.31038)
(-2.7707 0 -5.55047)
(-0.738763 0 -5.66389)
(1.30286 0 -5.6456)
(3.32747 0 -5.4964)
(5.30988 0 -5.22302)
(7.22879 0 -4.83912)
(9.06826 0 -4.36665)
(10.8175 0 -3.83695)
(12.468 0 -3.28868)
(14.0073 0 -2.75905)
(15.4128 0 -2.26809)
(16.6521 0 -1.80685)
(17.6915 0 -1.3424)
(18.5063 0 -0.835018)
(19.0861 0 -0.252227)
(19.4353 0 0.426576)
(19.5675 0 1.21028)
(19.4826 0 2.1056)
(19.1188 0 3.12245)
(18.3329 0 4.18527)
(16.965 0 5.01413)
(14.9111 0 5.38816)
(12.2829 0 5.33574)
(9.36124 0 4.96183)
(6.41749 0 4.44413)
(3.58904 0 3.9939)
(0.870897 0 3.76578)
(-1.8239 0 3.82943)
(-4.60116 0 4.17129)
(-7.52737 0 4.6953)
(-10.5658 0 5.2246)
(-13.5286 0 5.54891)
(-16.1183 0 5.51748)
(-18.0823 0 5.04308)
(-19.3719 0 4.13753)
(-20.1211 0 3.0837)
(-20.4885 0 2.11251)
(-20.602 0 1.26397)
(-20.5077 0 0.527538)
(-20.2006 0 -0.102744)
(-19.667 0 -0.63892)
(-18.903 0 -1.10517)
(-17.9173 0 -1.5378)
(-16.733 0 -1.98158)
(-15.3832 0 -2.47473)
(-13.8989 0 -3.02679)
(-12.2996 0 -3.61513)
(-10.5937 0 -4.19912)
(-8.78537 0 -4.73728)
(-6.8814 0 -5.19629)
(-4.89475 0 -5.55272)
(-2.84492 0 -5.79143)
(-0.756713 0 -5.90359)
(1.2814 0 -7.98602)
(3.27114 0 -7.8094)
(5.22565 0 -7.4854)
(7.12627 0 -7.02828)
(8.95739 0 -6.45958)
(10.706 0 -5.80829)
(12.3593 0 -5.10937)
(13.9011 0 -4.39918)
(15.3078 0 -3.70657)
(16.5496 0 -3.04222)
(17.5964 0 -2.39359)
(18.4269 0 -1.73146)
(19.0313 0 -1.02366)
(19.4091 0 -0.244119)
(19.5653 0 0.62482)
(19.5066 0 1.59496)
(19.2369 0 2.6767)
(18.7682 0 3.87031)
(18.1178 0 5.14714)
(17.2226 0 6.46019)
(15.8627 0 7.64951)
(13.7869 0 8.275)
(11.0214 0 8.20527)
(7.85549 0 7.71413)
(4.5862 0 7.15809)
(1.33522 0 6.81923)
(-1.89063 0 6.83135)
(-5.11241 0 7.17778)
(-8.30941 0 7.69018)
(-11.3267 0 8.05753)
(-13.8496 0 7.92506)
(-15.6492 0 7.08332)
(-16.7847 0 5.80776)
(-17.5331 0 4.47936)
(-18.0627 0 3.20346)
(-18.4003 0 2.02031)
(-18.5252 0 0.94862)
(-18.4305 0 -0.0179139)
(-18.1127 0 -0.888762)
(-17.5666 0 -1.67511)
(-16.791 0 -2.39517)
(-15.7926 0 -3.07464)
(-14.5888 0 -3.74098)
(-13.2071 0 -4.4121)
(-11.6794 0 -5.08705)
(-10.0343 0 -5.7455)
(-8.29379 0 -6.35561)
(-6.47503 0 -6.88355)
(-4.59351 0 -7.29979)
(-2.66573 0 -7.58198)
(-0.71025 0 -7.71563)
(1.25274 0 -7.69406)
(3.20253 0 -7.51835)
(5.11929 0 -7.19731)
(6.98504 0 -6.74762)
(8.78373 0 -6.19375)
(10.4997 0 -5.56682)
(12.1149 0 -4.90093)
(13.6054 0 -4.22576)
(14.9411 0 -3.55684)
(16.0905 0 -2.88935)
(17.0286 0 -2.20149)
(17.741 0 -1.46537)
(18.2235 0 -0.657057)
(18.479 0 0.239435)
(18.5128 0 1.23413)
(18.3277 0 2.33668)
(17.9349 0 3.54889)
(17.3522 0 4.84376)
(16.5211 0 6.17547)
(15.2263 0 7.38362)
(13.219 0 8.02939)
(10.5262 0 7.99158)
(7.43268 0 7.54762)
(4.22075 0 7.05513)
(0.998999 0 6.79103)
(-2.23169 0 6.88125)
(-5.49147 0 7.30014)
(-8.75154 0 7.87178)
(-11.8424 0 8.28159)
(-14.4367 0 8.17709)
(-16.3031 0 7.35357)
(-17.5028 0 6.0969)
(-18.3156 0 4.78684)
(-18.9148 0 3.52897)
(-19.3305 0 2.36477)
(-19.5421 0 1.31483)
(-19.5416 0 0.37378)
(-19.3245 0 -0.469104)
(-18.8841 0 -1.2267)
(-18.2165 0 -1.91893)
(-17.3243 0 -2.57403)
(-16.2206 0 -3.22459)
(-14.9298 0 -3.89657)
(-13.4827 0 -4.59614)
(-11.9079 0 -5.30662)
(-10.2266 0 -5.99601)
(-8.45384 0 -6.62762)
(-6.60198 0 -7.16784)
(-4.68465 0 -7.58974)
(-2.71833 0 -7.87384)
(-0.722466 0 -8.00781)
(1.21743 0 -9.92559)
(3.10923 0 -9.72768)
(4.971 0 -9.36498)
(6.7858 0 -8.85358)
(8.53794 0 -8.21658)
(10.212 0 -7.483)
(11.7912 0 -6.6853)
(13.2548 0 -5.85455)
(14.5773 0 -5.01354)
(15.7299 0 -4.17018)
(16.6868 0 -3.3157)
(17.4298 0 -2.43005)
(17.9506 0 -1.49113)
(18.2482 0 -0.480961)
(18.3264 0 0.612183)
(18.1914 0 1.79449)
(17.8523 0 3.06943)
(17.3226 0 4.44069)
(16.6148 0 5.90847)
(15.729 0 7.45318)
(14.6539 0 8.98858)
(13.2347 0 10.3208)
(11.1241 0 11.032)
(8.25569 0 10.9741)
(4.95306 0 10.5668)
(1.48571 0 10.252)
(-2.00651 0 10.2426)
(-5.41422 0 10.5151)
(-8.58505 0 10.8048)
(-11.2285 0 10.6403)
(-13.0793 0 9.69164)
(-14.3333 0 8.25097)
(-15.2994 0 6.67727)
(-16.0798 0 5.12465)
(-16.6738 0 3.65531)
(-17.0787 0 2.28086)
(-17.2799 0 0.999604)
(-17.2665 0 -0.191296)
(-17.0322 0 -1.29426)
(-16.5731 0 -2.3148)
(-15.889 0 -3.26402)
(-14.9859 0 -4.1583)
(-13.8785 0 -5.01543)
(-12.5902 0 -5.84699)
(-11.15 0 -6.65161)
(-9.58638 0 -7.41322)
(-7.92435 0 -8.10544)
(-6.18462 0 -8.69816)
(-4.38534 0 -9.16324)
(-2.54382 0 -9.478)
(-0.677605 0 -9.62702)
(1.19522 0 -9.60297)
(3.0564 0 -9.40705)
(4.88798 0 -9.04886)
(6.67254 0 -8.54595)
(8.3927 0 -7.92274)
(10.0298 0 -7.20837)
(11.562 0 -6.43256)
(12.9632 0 -5.61951)
(14.2042 0 -4.78142)
(15.2572 0 -3.91562)
(16.1008 0 -3.00796)
(16.7229 0 -2.04043)
(17.1196 0 -0.997878)
(17.2923 0 0.12916)
(17.2455 0 1.34495)
(16.9865 0 2.65171)
(16.5281 0 4.05259)
(15.8826 0 5.54726)
(15.0514 0 7.11574)
(14.0239 0 8.67324)
(12.6452 0 10.0266)
(10.5701 0 10.759)
(7.74527 0 10.7481)
(4.48647 0 10.4219)
(1.04363 0 10.2118)
(-2.45269 0 10.3136)
(-5.89176 0 10.6858)
(-9.10825 0 11.0474)
(-11.7924 0 10.9206)
(-13.6783 0 9.99068)
(-14.9747 0 8.57157)
(-15.9903 0 7.02001)
(-16.8272 0 5.49194)
(-17.4858 0 4.05025)
(-17.9642 0 2.70598)
(-18.2477 0 1.45702)
(-18.3242 0 0.299776)
(-18.1856 0 -0.769622)
(-17.8262 0 -1.75866)
(-17.2433 0 -2.68082)
(-16.4396 0 -3.5556)
(-15.426 0 -4.40533)
(-14.2233 0 -5.24788)
(-12.8588 0 -6.0876)
(-11.3607 0 -6.91196)
(-9.7532 0 -7.69512)
(-8.05579 0 -8.40499)
(-6.28468 0 -9.00972)
(-4.45518 0 -9.48175)
(-2.5833 0 -9.79987)
(-0.686309 0 -9.95002)
(1.14687 0 -11.7734)
(2.92916 0 -11.5554)
(4.68336 0 -11.1556)
(6.39286 0 -10.5906)
(8.04125 0 -9.88361)
(9.6115 0 -9.06246)
(11.0848 0 -8.15694)
(12.4394 0 -7.19456)
(13.6508 0 -6.19563)
(14.6937 0 -5.16913)
(15.5462 0 -4.11193)
(16.1929 0 -3.01222)
(16.6262 0 -1.85537)
(16.8448 0 -0.628385)
(16.8513 0 0.677843)
(16.651 0 2.06811)
(16.2516 0 3.54322)
(15.664 0 5.09976)
(14.903 0 6.72862)
(13.9848 0 8.41535)
(12.9191 0 10.1354)
(11.6807 0 11.8058)
(10.1116 0 13.186)
(7.86208 0 13.8872)
(4.87779 0 13.9349)
(1.50653 0 13.7866)
(-1.95641 0 13.7393)
(-5.23677 0 13.7627)
(-8.03573 0 13.5049)
(-10.0518 0 12.5535)
(-11.4772 0 11.0275)
(-12.6247 0 9.29714)
(-13.6057 0 7.54954)
(-14.4297 0 5.84283)
(-15.0832 0 4.19622)
(-15.5509 0 2.62344)
(-15.819 0 1.13241)
(-15.8788 0 -0.273785)
(-15.7249 0 -1.59529)
(-15.3543 0 -2.8357)
(-14.7677 0 -4.00231)
(-13.9705 0 -5.1052)
(-12.9754 0 -6.15417)
(-11.8024 0 -7.15387)
(-10.4763 0 -8.09943)
(-9.02353 0 -8.97538)
(-7.46869 0 -9.75816)
(-5.83378 0 -10.4207)
(-4.13849 0 -10.9369)
(-2.40117 0 -11.2848)
(-0.639658 0 -11.4492)
(1.12829 0 -11.4227)
(2.8849 0 -11.2065)
(4.6124 0 -10.8102)
(6.29288 0 -10.2511)
(7.90772 0 -9.55264)
(9.43669 0 -8.74146)
(10.857 0 -7.8442)
(12.1435 0 -6.88257)
(13.2696 0 -5.86924)
(14.2117 0 -4.80614)
(14.9515 0 -3.68668)
(15.4787 0 -2.50054)
(15.7892 0 -1.23819)
(15.8836 0 0.106635)
(15.7655 0 1.53651)
(15.441 0 3.05073)
(14.9204 0 4.6451)
(14.218 0 6.30999)
(13.3496 0 8.0307)
(12.3254 0 9.78268)
(11.12 0 11.4834)
(9.5719 0 12.8924)
(7.33076 0 13.6334)
(4.3629 0 13.764)
(1.00454 0 13.738)
(-2.46064 0 13.8246)
(-5.75667 0 13.9617)
(-8.56921 0 13.7732)
(-10.595 0 12.8544)
(-12.045 0 11.3574)
(-13.228 0 9.65756)
(-14.2526 0 7.94234)
(-15.1288 0 6.27006)
(-15.8432 0 4.65992)
(-16.3799 0 3.12526)
(-16.7249 0 1.67346)
(-16.8684 0 0.306673)
(-16.8033 0 -0.976998)
(-16.5252 0 -2.18351)
(-16.0322 0 -3.32316)
(-15.3273 0 -4.40969)
(-14.42 0 -5.4575)
(-13.3278 0 -6.47656)
(-12.074 0 -7.4668)
(-10.684 0 -8.41583)
(-9.18169 0 -9.30083)
(-7.58791 0 -10.0932)
(-5.92085 0 -10.7633)
(-4.19726 0 -11.2844)
(-2.43356 0 -11.6349)
(-0.646463 0 -11.8003)
(1.06758 0 -13.5028)
(2.72599 0 -13.2656)
(4.35659 0 -12.8298)
(5.94251 0 -12.2122)
(7.46669 0 -11.4353)
(8.91135 0 -10.5259)
(10.2573 0 -9.51172)
(11.4837 0 -8.41809)
(12.5682 0 -7.26439)
(13.4895 0 -6.06125)
(14.2289 0 -4.81018)
(14.7737 0 -3.50586)
(15.117 0 -2.13987)
(15.2571 0 -0.7041)
(15.1961 0 0.807168)
(14.9386 0 2.39613)
(14.4919 0 4.06114)
(13.8657 0 5.79654)
(13.0728 0 7.59157)
(12.1283 0 9.42903)
(11.0469 0 11.2843)
(9.83865 0 13.1214)
(8.46159 0 14.8495)
(6.72908 0 16.2036)
(4.33167 0 16.9112)
(1.38036 0 17.0933)
(-1.71895 0 16.9905)
(-4.5593 0 16.5795)
(-6.76596 0 15.6186)
(-8.36296 0 14.0781)
(-9.66082 0 12.2596)
(-10.803 0 10.3711)
(-11.8086 0 8.47682)
(-12.665 0 6.60661)
(-13.3574 0 4.78226)
(-13.8717 0 3.01966)
(-14.1963 0 1.32899)
(-14.3232 0 -0.283739)
(-14.2473 0 -1.81586)
(-13.9661 0 -3.26788)
(-13.4803 0 -4.64294)
(-12.7953 0 -5.94555)
(-11.9218 0 -7.17913)
(-10.8767 0 -8.34269)
(-9.68125 0 -9.42812)
(-8.35852 0 -10.4195)
(-6.93159 0 -11.2946)
(-5.42216 0 -12.0284)
(-3.85042 0 -12.5963)
(-2.23543 0 -12.9776)
(-0.595666 0 -13.1574)
(1.05067 0 -13.1284)
(2.68542 0 -12.8918)
(4.29032 0 -12.4572)
(5.8468 0 -11.8411)
(7.33551 0 -11.0657)
(8.73588 0 -10.156)
(10.0258 0 -9.1367)
(11.182 0 -8.0284)
(12.1816 0 -6.84502)
(13.0044 0 -5.59249)
(13.6351 0 -4.27025)
(14.0646 0 -2.87427)
(14.2889 0 -1.40023)
(14.3084 0 0.154355)
(14.1261 0 1.78916)
(13.748 0 3.50059)
(13.1832 0 5.28163)
(12.4438 0 7.12063)
(11.5447 0 9.00011)
(10.5002 0 10.8962)
(9.32044 0 12.7749)
(7.96143 0 14.547)
(6.23034 0 15.9503)
(3.8227 0 16.7376)
(0.869819 0 17.0429)
(-2.22942 0 17.0786)
(-5.06594 0 16.7798)
(-7.26213 0 15.8866)
(-8.86596 0 14.3923)
(-10.1851 0 12.6169)
(-11.358 0 10.7694)
(-12.4029 0 8.91607)
(-13.3069 0 7.08824)
(-14.0549 0 5.30823)
(-14.6324 0 3.59144)
(-15.0274 0 1.94705)
(-15.2309 0 0.379543)
(-15.2364 0 -1.11049)
(-15.0399 0 -2.52629)
(-14.6403 0 -3.87437)
(-14.0404 0 -5.1632)
(-13.2488 0 -6.40071)
(-12.2802 0 -7.59069)
(-11.1539 0 -8.7292)
(-9.89211 0 -9.80302)
(-8.51667 0 -10.7908)
(-7.04803 0 -11.6661)
(-5.50493 0 -12.4012)
(-3.90488 0 -12.9703)
(-2.26485 0 -13.3522)
(-0.601705 0 -13.5321)
(0.979269 0 -15.1011)
(2.49941 0 -14.8444)
(3.9914 0 -14.3722)
(5.43806 0 -13.7009)
(6.82205 0 -12.8528)
(8.12554 0 -11.8536)
(9.33 0 -10.73)
(10.4161 0 -9.50642)
(11.3646 0 -8.2025)
(12.1573 0 -6.83091)
(12.7793 0 -5.3972)
(13.2198 0 -3.90115)
(13.473 0 -2.33939)
(13.5377 0 -0.707908)
(13.4156 0 0.995892)
(13.1112 0 2.77168)
(12.6314 0 4.61533)
(11.9853 0 6.5185)
(11.1845 0 8.46812)
(10.2423 0 10.4462)
(9.17266 0 12.4302)
(7.98916 0 14.3944)
(6.70047 0 16.2951)
(5.2425 0 18.0123)
(3.42217 0 19.2663)
(1.1295 0 19.832)
(-1.32473 0 19.6683)
(-3.51781 0 18.7941)
(-5.22219 0 17.3041)
(-6.61262 0 15.4509)
(-7.85266 0 13.4719)
(-8.98001 0 11.4494)
(-9.98134 0 9.41539)
(-10.8436 0 7.39277)
(-11.5531 0 5.40241)
(-12.0974 0 3.46165)
(-12.466 0 1.58344)
(-12.6514 0 -0.223268)
(-12.6485 0 -1.95305)
(-12.4546 0 -3.60352)
(-12.0705 0 -5.17416)
(-11.5005 0 -6.66485)
(-10.7537 0 -8.07386)
(-9.844 0 -9.39552)
(-8.7891 0 -10.6186)
(-7.60905 0 -11.7257)
(-6.32464 0 -12.695)
(-4.95647 0 -13.5022)
(-3.52445 0 -14.1238)
(-2.04795 0 -14.5397)
(-0.545916 0 -14.7354)
(0.962892 0 -14.7039)
(2.45975 0 -14.4462)
(3.92587 0 -13.9718)
(5.3422 0 -13.2967)
(6.68926 0 -12.4422)
(7.9469 0 -11.4325)
(9.09444 0 -10.2913)
(10.1111 0 -9.03948)
(10.9774 0 -7.69278)
(11.6765 0 -6.26081)
(12.1958 0 -4.74789)
(12.5275 0 -3.15511)
(12.6685 0 -1.48251)
(12.6189 0 0.268986)
(12.3822 0 2.09627)
(11.9641 0 3.99296)
(11.3729 0 5.94905)
(10.6198 0 7.95035)
(9.71774 0 9.97844)
(8.68021 0 12.0116)
(7.52063 0 14.0263)
(6.24735 0 15.9832)
(4.7927 0 17.7664)
(2.95873 0 19.1052)
(0.654071 0 19.7857)
(-1.79815 0 19.749)
(-3.97575 0 18.9814)
(-5.67062 0 17.5688)
(-7.06819 0 15.7784)
(-8.32619 0 13.8535)
(-9.47965 0 11.8806)
(-10.5153 0 9.8956)
(-11.4197 0 7.92329)
(-12.1789 0 5.98485)
(-12.7798 0 4.09699)
(-13.2117 0 2.2714)
(-13.466 0 0.51523)
(-13.5366 0 -1.16849)
(-13.4196 0 -2.78037)
(-13.1139 0 -4.32356)
(-12.6222 0 -5.80213)
(-11.9515 0 -7.21884)
(-11.1138 0 -8.57252)
(-10.1252 0 -9.85574)
(-9.00414 0 -11.0537)
(-7.77023 0 -12.1454)
(-6.44252 0 -13.1052)
(-5.03933 0 -13.9066)
(-3.57833 0 -14.5245)
(-2.07679 0 -14.9381)
(-0.55186 0 -15.1327)
(0.882364 0 -16.5541)
(2.2508 0 -16.2777)
(3.5908 0 -15.7685)
(4.88513 0 -15.0428)
(6.11655 0 -14.1228)
(7.2678 0 -13.0339)
(8.32154 0 -11.8024)
(9.26053 0 -10.4528)
(10.0683 0 -9.00563)
(10.7299 0 -7.47589)
(11.2334 0 -5.87254)
(11.5705 0 -4.19958)
(11.7368 0 -2.45774)
(11.7317 0 -0.646568)
(11.5573 0 1.23368)
(11.2186 0 3.1803)
(10.7223 0 5.18699)
(10.0775 0 7.24326)
(9.29497 0 9.33398)
(8.38768 0 11.4395)
(7.36973 0 13.537)
(6.25615 0 15.6023)
(5.06785 0 17.6063)
(3.81208 0 19.4784)
(2.42618 0 21.0062)
(0.824301 0 21.8175)
(-0.87525 0 21.6142)
(-2.42862 0 20.4606)
(-3.77151 0 18.7156)
(-4.99955 0 16.7205)
(-6.15553 0 14.6327)
(-7.22281 0 12.4983)
(-8.18246 0 10.3393)
(-9.02023 0 8.17785)
(-9.72259 0 6.03591)
(-10.2776 0 3.93256)
(-10.6753 0 1.88304)
(-10.9081 0 -0.101299)
(-10.9703 0 -2.01261)
(-10.8592 0 -3.84578)
(-10.5743 0 -5.59703)
(-10.119 0 -7.26231)
(-9.50028 0 -8.83562)
(-8.72931 0 -10.3073)
(-7.82063 0 -11.6631)
(-6.79124 0 -12.884)
(-5.65954 0 -13.9472)
(-4.44454 0 -14.8286)
(-3.16538 0 -15.5048)
(-1.84117 0 -15.9561)
(-0.491015 0 -16.1682)
(0.866039 0 -16.1341)
(2.21093 0 -15.8548)
(3.5246 0 -15.3396)
(4.78795 0 -14.6045)
(5.98184 0 -13.6705)
(7.08715 0 -12.5613)
(8.08498 0 -11.301)
(8.9572 0 -9.91142)
(9.68739 0 -8.41038)
(10.2618 0 -6.81082)
(10.6706 0 -5.12123)
(10.9075 0 -3.34688)
(10.9706 0 -1.4916)
(10.8607 0 0.440613)
(10.5817 0 2.44402)
(10.1395 0 4.50985)
(9.54267 0 6.62569)
(8.80155 0 8.77519)
(7.92866 0 10.9383)
(6.93777 0 13.0926)
(5.84358 0 15.2166)
(4.66728 0 17.2858)
(3.41532 0 19.2357)
(2.02268 0 20.8566)
(0.410295 0 21.7763)
(-1.28701 0 21.6861)
(-2.82863 0 20.6371)
(-4.16775 0 18.9806)
(-5.40204 0 17.0593)
(-6.57201 0 15.0341)
(-7.66074 0 12.9573)
(-8.64945 0 10.855)
(-9.52351 0 8.75129)
(-10.269 0 6.66822)
(-10.8736 0 4.62427)
(-11.3269 0 2.63325)
(-11.6206 0 0.704453)
(-11.7483 0 -1.15687)
(-11.7059 0 -2.94887)
(-11.4919 0 -4.67166)
(-11.1079 0 -6.32555)
(-10.5594 0 -7.90911)
(-9.85582 0 -9.41711)
(-9.01 0 -10.8389)
(-8.03739 0 -12.158)
(-6.95479 0 -13.3525)
(-5.7795 0 -14.397)
(-4.52884 0 -15.2654)
(-3.22008 0 -15.9328)
(-1.87043 0 -16.3786)
(-0.497168 0 -16.5881)
(0.777626 0 -17.849)
(1.98227 0 -17.5529)
(3.15868 0 -17.0065)
(4.2899 0 -16.2267)
(5.35927 0 -15.2355)
(6.35052 0 -14.0587)
(7.24785 0 -12.7228)
(8.03625 0 -11.2532)
(8.70194 0 -9.67195)
(9.23305 0 -7.99612)
(9.62038 0 -6.23784)
(9.85792 0 -4.40459)
(9.94301 0 -2.50059)
(9.87609 0 -0.528467)
(9.66034 0 1.50892)
(9.3012 0 3.60663)
(8.80616 0 5.75638)
(8.18459 0 7.94574)
(7.44776 0 10.1577)
(6.60897 0 12.3707)
(5.68382 0 14.5597)
(4.69083 0 16.6972)
(3.6561 0 18.7519)
(2.6159 0 20.6612)
(1.58688 0 22.242)
(0.551353 0 23.1116)
(-0.494549 0 22.9)
(-1.53039 0 21.6831)
(-2.56257 0 19.8864)
(-3.60008 0 17.8455)
(-4.61639 0 15.6941)
(-5.57577 0 13.4745)
(-6.455 0 11.2123)
(-7.2368 0 8.93269)
(-7.90653 0 6.65966)
(-8.45179 0 4.41429)
(-8.8622 0 2.21382)
(-9.12942 0 0.0717032)
(-9.24715 0 -2.00197)
(-9.21141 0 -3.99958)
(-9.02079 0 -5.91438)
(-8.67691 0 -7.73894)
(-8.18481 0 -9.4636)
(-7.55295 0 -11.0753)
(-6.79295 0 -12.5567)
(-5.91896 0 -13.8869)
(-4.94693 0 -15.0418)
(-3.89403 0 -15.9964)
(-2.77818 0 -16.7272)
(-1.61781 0 -17.2141)
(-0.431661 0 -17.4426)
(0.761352 0 -17.4058)
(1.94226 0 -17.1048)
(3.09219 0 -16.5488)
(4.19247 0 -15.754)
(5.22479 0 -14.7415)
(6.1714 0 -13.5357)
(7.01541 0 -12.1614)
(7.74131 0 -10.642)
(8.33556 0 -8.99751)
(8.78737 0 -7.24403)
(9.08921 0 -5.39361)
(9.23701 0 -3.45514)
(9.23004 0 -1.43571)
(9.07043 0 0.657842)
(8.76287 0 2.81736)
(8.31421 0 5.03187)
(7.73339 0 7.2869)
(7.03131 0 9.5641)
(6.22098 0 11.8415)
(5.31771 0 14.0944)
(4.33976 0 16.2978)
(3.31358 0 18.4248)
(2.27636 0 20.4184)
(1.24539 0 22.0974)
(0.205782 0 23.0728)
(-0.839093 0 22.9677)
(-1.87053 0 21.8553)
(-2.90195 0 20.1532)
(-3.94386 0 18.1927)
(-4.97038 0 16.1111)
(-5.94665 0 13.9564)
(-6.84953 0 11.7579)
(-7.66147 0 9.54265)
(-8.36754 0 7.33485)
(-8.95501 0 5.15483)
(-9.41316 0 3.01832)
(-9.73312 0 0.936543)
(-9.90797 0 -1.08323)
(-9.93283 0 -3.0368)
(-9.80528 0 -4.92157)
(-9.52568 0 -6.73462)
(-9.09762 0 -8.471)
(-8.52804 0 -10.122)
(-7.82693 0 -11.6743)
(-7.00678 0 -13.109)
(-6.08178 0 -14.4033)
(-5.06719 0 -15.5312)
(-3.97896 0 -16.466)
(-2.83348 0 -17.1829)
(-1.6475 0 -17.661)
(-0.438054 0 -17.8855)
(0.6659 0 -18.9744)
(1.69609 0 -18.6588)
(2.69894 0 -18.0761)
(3.65823 0 -17.2434)
(4.55828 0 -16.1835)
(5.38417 0 -14.9225)
(6.12193 0 -13.4882)
(6.75878 0 -11.9069)
(7.28354 0 -10.2025)
(7.68709 0 -8.39438)
(7.96283 0 -6.49745)
(8.10696 0 -4.52223)
(8.11862 0 -2.47594)
(7.9997 0 -0.363929)
(7.75453 0 1.80854)
(7.38963 0 4.03442)
(6.91344 0 6.30352)
(6.33624 0 8.60152)
(5.67029 0 10.9094)
(4.93009 0 13.2031)
(4.13319 0 15.4542)
(3.30153 0 17.6294)
(2.46534 0 19.688)
(1.66897 0 21.5591)
(0.958897 0 23.0716)
(0.346779 0 23.8884)
(-0.228933 0 23.6872)
(-0.866255 0 22.5331)
(-1.60385 0 20.7975)
(-2.414 0 18.7786)
(-3.24586 0 16.6071)
(-4.05794 0 14.336)
(-4.82279 0 12)
(-5.52002 0 9.62917)
(-6.13323 0 7.25077)
(-6.64879 0 4.88815)
(-7.05526 0 2.56062)
(-7.34321 0 0.283616)
(-7.50517 0 -1.93064)
(-7.53583 0 -4.07217)
(-7.43234 0 -6.13156)
(-7.19456 0 -8.09833)
(-6.82539 0 -9.95963)
(-6.33079 0 -11.6992)
(-5.71968 0 -13.2972)
(-5.00349 0 -14.73)
(-4.19575 0 -15.9721)
(-3.31159 0 -16.9973)
(-2.36739 0 -17.7811)
(-1.3804 0 -18.3027)
(-0.368515 0 -18.5474)
(0.650004 0 -18.508)
(1.65682 0 -18.1857)
(2.63376 0 -17.5899)
(3.56306 0 -16.7371)
(4.42769 0 -15.6494)
(5.21158 0 -14.352)
(5.89999 0 -12.871)
(6.47994 0 -11.2316)
(6.94062 0 -9.4565)
(7.27392 0 -7.56451)
(7.47472 0 -5.5709)
(7.54097 0 -3.48774)
(7.4736 0 -1.32505)
(7.27616 0 0.907744)
(6.95458 0 3.20018)
(6.51689 0 5.53924)
(5.97308 0 7.90845)
(5.33515 0 10.2874)
(4.61742 0 12.6515)
(3.83725 0 14.9728)
(3.0165 0 17.2201)
(2.18577 0 19.3563)
(1.39088 0 21.3156)
(0.680404 0 22.9278)
(0.0677367 0 23.8499)
(-0.507785 0 23.7542)
(-1.14436 0 22.7046)
(-1.88178 0 21.0659)
(-2.69425 0 19.1317)
(-3.53293 0 17.0357)
(-4.35746 0 14.8357)
(-5.14057 0 12.5696)
(-5.86175 0 10.2691)
(-6.5044 0 7.96164)
(-7.05468 0 5.6698)
(-7.5009 0 3.4113)
(-7.83329 0 1.19923)
(-8.04393 0 -0.95719)
(-8.12688 0 -3.05158)
(-8.07845 0 -5.07884)
(-7.89751 0 -7.03325)
(-7.58573 0 -8.90681)
(-7.14769 0 -10.6879)
(-6.59073 0 -12.3602)
(-5.92462 0 -13.9032)
(-5.161 0 -15.2921)
(-4.31303 0 -16.4999)
(-3.39497 0 -17.4991)
(-2.42195 0 -18.2643)
(-1.40984 0 -18.7741)
(-0.374996 0 -19.0133)
(0.547993 0 -19.9201)
(1.39437 0 -19.586)
(2.21512 0 -18.9687)
(2.9952 0 -18.086)
(3.72034 0 -16.9615)
(4.37729 0 -15.6223)
(4.95406 0 -14.0974)
(5.44013 0 -12.4149)
(5.82681 0 -10.6003)
(6.10746 0 -8.67544)
(6.27785 0 -6.65773)
(6.33631 0 -4.56041)
(6.28377 0 -2.39335)
(6.12362 0 -0.164402)
(5.86154 0 2.11896)
(5.50525 0 4.44768)
(5.06431 0 6.80971)
(4.5501 0 9.1888)
(3.976 0 11.5637)
(3.35779 0 13.9076)
(2.71449 0 16.1879)
(2.06987 0 18.3651)
(1.45522 0 20.388)
(0.913138 0 22.1759)
(0.489727 0 23.5693)
(0.195036 0 24.2954)
(-0.05175 0 24.111)
(-0.378691 0 23.0649)
(-0.839497 0 21.4418)
(-1.40621 0 19.4897)
(-2.02917 0 17.3377)
(-2.66793 0 15.0511)
(-3.29337 0 12.6742)
(-3.88324 0 10.243)
(-4.41958 0 7.78835)
(-4.88747 0 5.33627)
(-5.27422 0 2.90821)
(-5.56914 0 0.521584)
(-5.76345 0 -1.80937)
(-5.85041 0 -4.07243)
(-5.82557 0 -6.25568)
(-5.68703 0 -8.34592)
(-5.43559 0 -10.3274)
(-5.07489 0 -12.181)
(-4.61129 0 -13.8841)
(-4.05368 0 -15.4109)
(-3.41317 0 -16.7337)
(-2.70271 0 -17.8248)
(-1.93679 0 -18.6584)
(-1.13109 0 -19.213)
(-0.302148 0 -19.4731)
(0.533004 0 -19.4312)
(1.35721 0 -19.0886)
(2.15354 0 -18.4551)
(2.90565 0 -17.548)
(3.59817 0 -16.3901)
(4.21699 0 -15.0081)
(4.74963 0 -13.4298)
(5.18557 0 -11.6827)
(5.51659 0 -9.79153)
(5.73705 0 -7.77816)
(5.84411 0 -5.66068)
(5.83772 0 -3.45404)
(5.72053 0 -1.17092)
(5.49763 0 1.17684)
(5.17634 0 3.57658)
(4.76599 0 6.0133)
(4.27781 0 8.46855)
(3.72505 0 10.9196)
(3.1234 0 13.3392)
(2.49183 0 15.695)
(1.85415 0 17.9493)
(1.24215 0 20.0541)
(0.699858 0 21.9323)
(0.275698 0 23.4255)
(-0.0189717 0 24.2567)
(-0.265762 0 24.178)
(-0.592484 0 23.2362)
(-1.05241 0 21.7105)
(-1.61944 0 19.8461)
(-2.24609 0 17.7741)
(-2.89303 0 15.5637)
(-3.53148 0 13.262)
(-4.13916 0 10.9064)
(-4.69808 0 8.52769)
(-5.19317 0 6.15127)
(-5.61164 0 3.79689)
(-5.94263 0 1.47955)
(-6.17705 0 -0.789664)
(-6.30775 0 -3.0023)
(-6.32966 0 -5.15095)
(-6.24004 0 -7.22737)
(-6.03871 0 -9.22087)
(-5.72803 0 -11.1171)
(-5.31295 0 -12.8974)
(-4.80068 0 -14.5388)
(-4.20048 0 -16.0149)
(-3.5233 0 -17.2973)
(-2.78149 0 -18.3571)
(-1.98863 0 -19.1681)
(-1.1592 0 -19.708)
(-0.308448 0 -19.9613)
(0.424628 0 -20.6773)
(1.07899 0 -20.326)
(1.71028 0 -19.677)
(2.30511 0 -18.7487)
(2.851 0 -17.5656)
(3.33668 0 -16.1563)
(3.75227 0 -14.551)
(4.08953 0 -12.7797)
(4.34208 0 -10.8698)
(4.50558 0 -8.84545)
(4.57796 0 -6.72633)
(4.55945 0 -4.52817)
(4.45266 0 -2.26327)
(4.26244 0 0.0582815)
(3.99575 0 2.42689)
(3.66147 0 4.83162)
(3.27021 0 7.25864)
(2.8343 0 9.68979)
(2.36797 0 12.1016)
(1.88769 0 14.4646)
(1.4129 0 16.7421)
(0.967014 0 18.8891)
(0.578976 0 20.8469)
(0.284152 0 22.5292)
(0.116194 0 23.7926)
(0.0730566 0 24.4266)
(0.0740347 0 24.2591)
(-0.000242207 0 23.325)
(-0.207681 0 21.8292)
(-0.533726 0 19.9698)
(-0.940325 0 17.869)
(-1.39271 0 15.6002)
(-1.86322 0 13.2152)
(-2.32956 0 10.7553)
(-2.77318 0 8.25496)
(-3.17826 0 5.74275)
(-3.53113 0 3.24227)
(-3.82001 0 0.772834)
(-4.03485 0 -1.6494)
(-4.16757 0 -4.01007)
(-4.21222 0 -6.29495)
(-4.16517 0 -8.48833)
(-4.02532 0 -10.5718)
(-3.79413 0 -12.5236)
(-3.47563 0 -14.3184)
(-3.07628 0 -15.9282)
(-2.60475 0 -17.3232)
(-2.07169 0 -18.4738)
(-1.48943 0 -19.3527)
(-0.871652 0 -19.9373)
(-0.233027 0 -20.2115)
(0.411179 0 -20.1674)
(1.04555 0 -19.8063)
(1.65495 0 -19.1384)
(2.22492 0 -18.1818)
(2.74214 0 -16.9608)
(3.1947 0 -15.5034)
(3.57248 0 -13.8396)
(3.86739 0 -11.9986)
(4.07362 0 -10.008)
(4.18785 0 -7.89206)
(4.20932 0 -5.67159)
(4.13986 0 -3.36418)
(3.98374 0 -0.984976)
(3.74754 0 1.45192)
(3.43989 0 3.93179)
(3.07131 0 6.43774)
(2.65413 0 8.94934)
(2.20255 0 11.4417)
(1.73307 0 13.8846)
(1.26517 0 16.242)
(0.822438 0 18.4701)
(0.434366 0 20.5128)
(0.137613 0 22.2868)
(-0.032171 0 23.6496)
(-0.075887 0 24.3879)
(-0.0748366 0 24.326)
(-0.148193 0 23.4953)
(-0.353552 0 22.0969)
(-0.67797 0 20.3269)
(-1.08528 0 18.3095)
(-1.54177 0 16.1211)
(-2.0202 0 13.8156)
(-2.49837 0 11.4357)
(-2.95777 0 9.01561)
(-3.3826 0 6.58334)
(-3.75917 0 4.16073)
(-4.07564 0 1.76462)
(-4.32187 0 -0.592089)
(-4.48949 0 -2.899)
(-4.57211 0 -5.14656)
(-4.5655 0 -7.32422)
(-4.4677 0 -9.41885)
(-4.27911 0 -11.4137)
(-4.00246 0 -13.2876)
(-3.64268 0 -15.0157)
(-3.20668 0 -16.5695)
(-2.7032 0 -17.9189)
(-2.1425 0 -19.0338)
(-1.53622 0 -19.8866)
(-0.897134 0 -20.4543)
(-0.238821 0 -20.7205)
(0.296448 0 -21.238)
(0.751601 0 -20.8716)
(1.18707 0 -20.1948)
(1.59159 0 -19.2268)
(1.95486 0 -17.9931)
(2.26782 0 -16.5236)
(2.52287 0 -14.8503)
(2.71403 0 -13.0047)
(2.83711 0 -11.0164)
(2.88985 0 -8.91134)
(2.87207 0 -6.71161)
(2.7857 0 -4.43513)
(2.6348 0 -2.09636)
(2.42547 0 0.292501)
(2.16578 0 2.71991)
(1.86553 0 5.17321)
(1.53608 0 7.63687)
(1.19033 0 10.091)
(0.842811 0 12.5103)
(0.509882 0 14.8628)
(0.210088 0 17.1088)
(-0.0353498 0 19.1995)
(-0.202265 0 21.0722)
(-0.264809 0 22.6411)
(-0.204025 0 23.7814)
(-0.0336095 0 24.3346)
(0.173217 0 24.1823)
(0.316044 0 23.3485)
(0.338577 0 21.9775)
(0.241086 0 20.2234)
(0.0477029 0 18.197)
(-0.214884 0 15.9741)
(-0.522855 0 13.6111)
(-0.855562 0 11.1529)
(-1.19499 0 8.63703)
(-1.52522 0 6.09421)
(-1.83211 0 3.54995)
(-2.10311 0 1.02529)
(-2.32726 0 -1.46182)
(-2.49535 0 -3.89508)
(-2.60012 0 -6.25809)
(-2.63648 0 -8.53283)
(-2.6016 0 -10.6985)
(-2.49499 0 -12.7307)
(-2.31855 0 -14.602)
(-2.07639 0 -16.2818)
(-1.7748 0 -17.7383)
(-1.42196 0 -18.9402)
(-1.02777 0 -19.8585)
(-0.603515 0 -20.4694)
(-0.161535 0 -20.7559)
(0.285203 0 -20.7098)
(0.723562 0 -20.3324)
(1.1407 0 -19.6345)
(1.52454 0 -18.6352)
(1.86413 0 -17.3599)
(2.15004 0 -15.8384)
(2.37457 0 -14.1025)
(2.53203 0 -12.1838)
(2.61889 0 -10.112)
(2.63394 0 -7.91388)
(2.57828 0 -5.6127)