/*--------------------------------*- C++ -*----------------------------------*\
| =========                 |                                                 |
| \\      /  F ield         | OpenFOAM: The Open Source CFD Toolbox           |
|  \\    /   O peration     | Version:  2.3.0                                 |
|   \\  /    A nd           | Web:      www.OpenFOAM.org                      |
|    \\/     M anipulation  |                                                 |
\*---------------------------------------------------------------------------*/
FoamFile
{
    version     2.0;
    format      ascii;
    class       volVectorField;
    location    "8000";
    object      U;
}
// * * * * * * * * * * * * * * * * * * * * * * * * * * * * * * * * * * * * * //

dimensions      [0 1 -1 0 0 0 0];

internalField   nonuniform List<vector> 
3060
(
(0.611376 0 -0.449101)
(1.57203 0 -0.43337)
(2.50905 0 -0.404139)
(3.40873 0 -0.361915)
(4.25821 0 -0.307625)
(5.04581 0 -0.243164)
(5.76147 0 -0.171924)
(6.39716 0 -0.0988826)
(6.94707 0 -0.0298184)
(7.40686 0 0.030217)
(7.77204 0 0.0783184)
(8.03556 0 0.114115)
(8.18579 0 0.139052)
(8.20545 0 0.155383)
(8.0736 0 0.167459)
(7.76976 0 0.18476)
(7.28266 0 0.216818)
(6.61791 0 0.26018)
(5.79936 0 0.296474)
(4.87997 0 0.307561)
(3.92828 0 0.292331)
(3.00651 0 0.257914)
(2.15992 0 0.215995)
(1.40464 0 0.178027)
(0.727992 0 0.151786)
(0.0983854 0 0.140943)
(-0.524173 0 0.146531)
(-1.18067 0 0.168039)
(-1.90628 0 0.202832)
(-2.721 0 0.244532)
(-3.61832 0 0.282508)
(-4.56087 0 0.304616)
(-5.49033 0 0.302043)
(-6.33745 0 0.272111)
(-7.0413 0 0.228676)
(-7.56911 0 0.191961)
(-7.9094 0 0.170124)
(-8.06839 0 0.156053)
(-8.06563 0 0.139062)
(-7.92272 0 0.113627)
(-7.65871 0 0.0773142)
(-7.28705 0 0.0286503)
(-6.8164 0 -0.0320377)
(-6.25259 0 -0.101853)
(-5.60099 0 -0.17564)
(-4.86834 0 -0.247412)
(-4.06351 0 -0.31196)
(-3.19743 0 -0.365715)
(-2.28256 0 -0.406681)
(-1.33253 0 -0.433868)
(-0.361764 0 -0.446703)
(0.614673 0 -0.444774)
(1.58149 0 -0.428172)
(2.52376 0 -0.397353)
(3.42725 0 -0.352948)
(4.2786 0 -0.296148)
(5.06569 0 -0.229313)
(5.7781 0 -0.156463)
(6.40751 0 -0.0831312)
(6.94766 0 -0.0152594)
(7.39327 0 0.0424812)
(7.73799 0 0.0878851)
(7.97208 0 0.121195)
(8.08066 0 0.144209)
(8.04339 0 0.159689)
(7.83899 0 0.174536)
(7.4498 0 0.200051)
(6.87451 0 0.240013)
(6.12901 0 0.282042)
(5.25386 0 0.305425)
(4.31446 0 0.301032)
(3.37862 0 0.273667)
(2.50043 0 0.233551)
(1.70949 0 0.192786)
(1.00457 0 0.161015)
(0.360636 0 0.143513)
(-0.25979 0 0.142211)
(-0.898019 0 0.157231)
(-1.59267 0 0.18702)
(-2.37155 0 0.226942)
(-3.24051 0 0.268074)
(-4.17528 0 0.298541)
(-5.12518 0 0.307454)
(-6.02478 0 0.288946)
(-6.80719 0 0.248666)
(-7.42712 0 0.206925)
(-7.8664 0 0.179083)
(-8.12369 0 0.164354)
(-8.21411 0 0.151819)
(-8.15843 0 0.133453)
(-7.97723 0 0.105889)
(-7.68629 0 0.066972)
(-7.29588 0 0.015626)
(-6.81218 0 -0.0471498)
(-6.23942 0 -0.1178)
(-5.5822 0 -0.190922)
(-4.84689 0 -0.260815)
(-4.04208 0 -0.322882)
(-3.17831 0 -0.374157)
(-2.2676 0 -0.413053)
(-1.32305 0 -0.438804)
(-0.358561 0 -0.450941)
(0.911783 0 -1.67287)
(2.35147 0 -1.65203)
(3.77414 0 -1.61362)
(5.1702 0 -1.5591)
(6.53118 0 -1.49019)
(7.84948 0 -1.40847)
(9.11735 0 -1.31479)
(10.3252 0 -1.20872)
(11.46 0 -1.0882)
(12.5034 0 -0.949347)
(13.4322 0 -0.786268)
(14.2185 0 -0.590755)
(14.8292 0 -0.35231)
(15.2261 0 -0.0600859)
(15.3628 0 0.288049)
(15.1863 0 0.667173)
(14.6514 0 1.02408)
(13.738 0 1.31817)
(12.45 0 1.53306)
(10.848 0 1.65508)
(9.04206 0 1.67863)
(7.15531 0 1.6069)
(5.29706 0 1.47547)
(3.53039 0 1.33585)
(1.86332 0 1.2309)
(0.262149 0 1.1853)
(-1.32804 0 1.20775)
(-2.96484 0 1.29376)
(-4.69082 0 1.42422)
(-6.51336 0 1.56176)
(-8.38679 0 1.65499)
(-10.2128 0 1.6603)
(-11.8689 0 1.56482)
(-13.236 0 1.37235)
(-14.2346 0 1.09463)
(-14.8474 0 0.745622)
(-15.0887 0 0.358435)
(-14.9977 0 -0.0100042)
(-14.6288 0 -0.324212)
(-14.0315 0 -0.581136)
(-13.247 0 -0.790829)
(-12.3108 0 -0.964233)
(-11.2532 0 -1.11022)
(-10.0997 0 -1.23528)
(-8.87012 0 -1.3438)
(-7.57926 0 -1.43825)
(-6.23787 0 -1.51936)
(-4.85462 0 -1.58649)
(-3.43783 0 -1.63823)
(-1.99652 0 -1.67299)
(-0.54072 0 -1.68948)
(0.919035 0 -1.68701)
(2.37209 0 -1.6657)
(3.80796 0 -1.62639)
(5.2169 0 -1.5705)
(6.59009 0 -1.49964)
(7.91927 0 -1.41506)
(9.1954 0 -1.31709)
(10.4069 0 -1.20459)
(11.5377 0 -1.0746)
(12.5664 0 -0.922199)
(13.4663 0 -0.740312)
(14.2058 0 -0.519448)
(14.7481 0 -0.248452)
(15.0501 0 0.0811401)
(15.0599 0 0.459487)
(14.7246 0 0.841994)
(14.0122 0 1.17437)
(12.9139 0 1.43123)
(11.4618 0 1.59922)
(9.74926 0 1.6689)
(7.89942 0 1.63778)
(6.03174 0 1.52806)
(4.23223 0 1.38779)
(2.53192 0 1.26607)
(0.912235 0 1.19545)
(-0.675157 0 1.19081)
(-2.28877 0 1.25323)
(-3.97987 0 1.3703)
(-5.77332 0 1.51256)
(-7.64724 0 1.63314)
(-9.52454 0 1.68238)
(-11.2895 0 1.63278)
(-12.819 0 1.48563)
(-14.0125 0 1.24882)
(-14.8265 0 0.93624)
(-15.2652 0 0.568225)
(-15.3549 0 0.192663)
(-15.1454 0 -0.141876)
(-14.6887 0 -0.419228)
(-14.0288 0 -0.645413)
(-13.2024 0 -0.831562)
(-12.2412 0 -0.987646)
(-11.1719 0 -1.12125)
(-10.0165 0 -1.2377)
(-8.79188 0 -1.34041)
(-7.51002 0 -1.43099)
(-6.17986 0 -1.50949)
(-4.80895 0 -1.5748)
(-3.40508 0 -1.62528)
(-1.977 0 -1.65921)
(-0.534561 0 -1.6753)
(1.02271 0 -3.17214)
(2.63672 0 -3.13793)
(4.22936 0 -3.07457)
(5.78776 0 -2.98386)
(7.29918 0 -2.86779)
(8.75075 0 -2.72784)
(10.1291 0 -2.56422)
(11.4199 0 -2.37529)
(12.6078 0 -2.1574)
(13.6766 0 -1.90517)
(14.6099 0 -1.61181)
(15.3919 0 -1.2694)
(16.009 0 -0.869198)
(16.451 0 -0.402326)
(16.7109 0 0.140115)
(16.7755 0 0.76944)
(16.6001 0 1.4978)
(16.0909 0 2.30177)
(15.1497 0 3.05796)
(13.7236 0 3.5849)
(11.842 0 3.83753)
(9.63775 0 3.85648)
(7.29185 0 3.70651)
(4.93958 0 3.48946)
(2.63816 0 3.30666)
(0.382486 0 3.22284)
(-1.86374 0 3.26214)
(-4.14077 0 3.41208)
(-6.46698 0 3.62142)
(-8.80851 0 3.79816)
(-11.0538 0 3.83346)
(-13.0285 0 3.65075)
(-14.5745 0 3.20134)
(-15.6302 0 2.48848)
(-16.2279 0 1.67122)
(-16.4574 0 0.905534)
(-16.422 0 0.238853)
(-16.1806 0 -0.336348)
(-15.7514 0 -0.832162)
(-15.1414 0 -1.25737)
(-14.3605 0 -1.62047)
(-13.4223 0 -1.93014)
(-12.3431 0 -2.19451)
(-11.1402 0 -2.42073)
(-9.83111 0 -2.61463)
(-8.43225 0 -2.78031)
(-6.95909 0 -2.91985)
(-5.42611 0 -3.03341)
(-3.84716 0 -3.11981)
(-2.23583 0 -3.17734)
(-0.605726 0 -3.20447)
(1.02946 0 -3.20041)
(2.65601 0 -3.1653)
(4.26026 0 -3.10012)
(5.8286 0 -3.00653)
(7.34741 0 -2.88616)
(8.80273 0 -2.73993)
(10.1799 0 -2.56721)
(11.463 0 -2.36538)
(12.6355 0 -2.12987)
(13.6798 0 -1.85446)
(14.5787 0 -1.53172)
(15.3164 0 -1.1533)
(15.8801 0 -0.710517)
(16.2613 0 -0.194961)
(16.4518 0 0.402634)
(16.4264 0 1.09522)
(16.1119 0 1.88295)
(15.4021 0 2.69218)
(14.219 0 3.34594)
(12.5511 0 3.72252)
(10.4881 0 3.8428)
(8.203 0 3.76154)
(5.85802 0 3.56582)
(3.54399 0 3.36463)
(1.27809 0 3.24027)
(-0.966532 0 3.23328)
(-3.23141 0 3.34666)
(-5.54757 0 3.54632)
(-7.90697 0 3.75659)
(-10.2318 0 3.87084)
(-12.3693 0 3.79641)
(-14.1413 0 3.4755)
(-15.4399 0 2.87673)
(-16.2611 0 2.08997)
(-16.6729 0 1.29858)
(-16.7785 0 0.596347)
(-16.6607 0 -0.0089651)
(-16.3527 0 -0.53084)
(-15.8643 0 -0.979554)
(-15.2032 0 -1.36387)
(-14.3803 0 -1.69271)
(-13.4101 0 -1.97465)
(-12.3086 0 -2.21734)
(-11.0923 0 -2.42722)
(-9.77724 0 -2.60928)
(-8.37846 0 -2.76665)
(-6.91 0 -2.90045)
(-5.38509 0 -3.01008)
(-3.81652 0 -3.09385)
(-2.21704 0 -3.14974)
(-0.599597 0 -3.17612)
(1.07113 0 -4.85203)
(2.75969 0 -4.79992)
(4.42102 0 -4.703)
(6.0386 0 -4.56322)
(7.59612 0 -4.38269)
(9.07744 0 -4.16293)
(10.4667 0 -3.9042)
(11.7483 0 -3.60513)
(12.9075 0 -3.26268)
(13.9305 0 -2.87244)
(14.8047 0 -2.42904)
(15.5189 0 -1.92629)
(16.0638 0 -1.35717)
(16.4318 0 -0.713287)
(16.6156 0 0.0168958)
(16.6069 0 0.850001)
(16.3971 0 1.7997)
(15.9783 0 2.85146)
(15.325 0 3.9525)
(14.3381 0 5.01304)
(12.8456 0 5.84119)
(10.8162 0 6.21896)
(8.39085 0 6.21778)
(5.7785 0 6.0276)
(3.1205 0 5.82359)
(0.46474 0 5.72172)
(-2.1866 0 5.76609)
(-4.83665 0 5.93403)
(-7.45812 0 6.13318)
(-9.94443 0 6.20298)
(-12.0957 0 5.95072)
(-13.7387 0 5.24011)
(-14.8393 0 4.21208)
(-15.5529 0 3.09897)
(-16.0094 0 2.01319)
(-16.2495 0 1.01776)
(-16.2824 0 0.139158)
(-16.1168 0 -0.630949)
(-15.7612 0 -1.30962)
(-15.2232 0 -1.90907)
(-14.5107 0 -2.43766)
(-13.6332 0 -2.90229)
(-12.602 0 -3.30911)
(-11.4304 0 -3.66363)
(-10.1331 0 -3.9705)
(-8.72586 0 -4.23308)
(-7.22527 0 -4.45311)
(-5.64835 0 -4.6307)
(-4.01237 0 -4.76468)
(-2.33471 0 -4.8533)
(-0.63288 0 -4.89494)
(1.07549 0 -4.88872)
(2.77274 0 -4.83478)
(4.44127 0 -4.73424)
(6.0636 0 -4.5888)
(7.62238 0 -4.40013)
(9.10039 0 -4.16913)
(10.4807 0 -3.89529)
(11.7469 0 -3.57643)
(12.8834 0 -3.20881)
(13.8759 0 -2.78752)
(14.7116 0 -2.30687)
(15.3796 0 -1.76053)
(15.8709 0 -1.14138)
(16.1779 0 -0.440305)
(16.2928 0 0.356277)
(16.2068 0 1.26545)
(15.9117 0 2.28865)
(15.395 0 3.38882)
(14.5978 0 4.4943)
(13.3658 0 5.46721)
(11.5797 0 6.05743)
(9.32105 0 6.2078)
(6.78323 0 6.08646)
(4.14812 0 5.8824)
(1.49711 0 5.74077)
(-1.15479 0 5.73497)
(-3.81235 0 5.87037)
(-6.46613 0 6.08488)
(-9.04799 0 6.24411)
(-11.3896 0 6.16389)
(-13.2882 0 5.66434)
(-14.6363 0 4.74892)
(-15.5208 0 3.66522)
(-16.1075 0 2.57022)
(-16.471 0 1.54127)
(-16.6276 0 0.622121)
(-16.5854 0 -0.182406)
(-16.3529 0 -0.888758)
(-15.9381 0 -1.51228)
(-15.3483 0 -2.06343)
(-14.5915 0 -2.55012)
(-13.6774 0 -2.97913)
(-12.6176 0 -3.35645)
(-11.425 0 -3.68723)
(-10.1138 0 -3.97555)
(-8.69909 0 -4.22405)
(-7.19634 0 -4.43366)
(-5.62158 0 -4.60374)
(-3.99099 0 -4.73253)
(-2.32096 0 -4.81792)
(-0.628014 0 -4.85809)
(1.08204 0 -6.5806)
(2.78622 0 -6.50829)
(4.45874 0 -6.37343)
(6.08058 0 -6.17819)
(7.63314 0 -5.92492)
(9.09846 0 -5.61551)
(10.4594 0 -5.25076)
(11.7002 0 -4.83004)
(12.8061 0 -4.35133)
(13.7642 0 -3.81147)
(14.5633 0 -3.20651)
(15.1934 0 -2.53195)
(15.6461 0 -1.78262)
(15.914 0 -0.952156)
(15.9913 0 -0.0316498)
(15.8754 0 0.990925)
(15.5709 0 2.12563)
(15.0868 0 3.36876)
(14.4231 0 4.69887)
(13.5611 0 6.06571)
(12.4302 0 7.34352)
(10.8631 0 8.31535)
(8.71343 0 8.75234)
(6.1363 0 8.75778)
(3.35833 0 8.61535)
(0.512392 0 8.52436)
(-2.33804 0 8.55825)
(-5.13771 0 8.6801)
(-7.78522 0 8.73326)
(-10.0799 0 8.44603)
(-11.8096 0 7.61383)
(-13.0345 0 6.39016)
(-13.9459 0 5.01897)
(-14.6425 0 3.65462)
(-15.1526 0 2.36633)
(-15.4807 0 1.1818)
(-15.6187 0 0.110487)
(-15.5601 0 -0.854489)
(-15.306 0 -1.72495)
(-14.8618 0 -2.50994)
(-14.2351 0 -3.21564)
(-13.4345 0 -3.84686)
(-12.4703 0 -4.40785)
(-11.3545 0 -4.90244)
(-10.1007 0 -5.33385)
(-8.72441 0 -5.7043)
(-7.24263 0 -6.01469)
(-5.67362 0 -6.26456)
(-4.03653 0 -6.45239)
(-2.35113 0 -6.57624)
(-0.637641 0 -6.63432)
(1.08347 0 -6.62565)
(2.79163 0 -6.55039)
(4.46643 0 -6.40977)
(6.08774 0 -6.20566)
(7.63594 0 -5.93999)
(9.09206 0 -5.61403)
(10.4382 0 -5.2279)
(11.6576 0 -4.78034)
(12.7353 0 -4.26884)
(13.6581 0 -3.68997)
(14.4145 0 -3.03979)
(14.9946 0 -2.31394)
(15.39 0 -1.50737)
(15.5938 0 -0.613324)
(15.6011 0 0.378131)
(15.4128 0 1.47871)
(15.0369 0 2.6919)
(14.4794 0 4.00346)
(13.7313 0 5.37936)
(12.7521 0 6.73076)
(11.417 0 7.8794)
(9.53078 0 8.56953)
(7.12079 0 8.73996)
(4.41853 0 8.64643)
(1.59904 0 8.53776)
(-1.25504 0 8.53723)
(-4.09086 0 8.65331)
(-6.8338 0 8.78175)
(-9.32359 0 8.69094)
(-11.3252 0 8.10755)
(-12.7575 0 7.03003)
(-13.8063 0 5.7119)
(-14.6132 0 4.34615)
(-15.2293 0 3.0356)
(-15.6673 0 1.81927)
(-15.9235 0 0.714135)
(-15.9892 0 -0.280636)
(-15.8619 0 -1.1767)
(-15.5452 0 -1.98538)
(-15.0455 0 -2.71475)
(-14.3705 0 -3.37076)
(-13.529 0 -3.95838)
(-12.5311 0 -4.48198)
(-11.3887 0 -4.94532)
(-10.1152 0 -5.35131)
(-8.72538 0 -5.70163)
(-7.23561 0 -5.99652)
(-5.66321 0 -6.23485)
(-4.02633 0 -6.41456)
(-2.34369 0 -6.53328)
(-0.63443 0 -6.589)
(1.06339 0 -8.28276)
(2.73679 0 -8.18708)
(4.37547 0 -8.00847)
(5.9587 0 -7.74963)
(7.46651 0 -7.41367)
(8.87995 0 -7.00349)
(10.1814 0 -6.52125)
(11.355 0 -5.96796)
(12.3865 0 -5.34338)
(13.2638 0 -4.64618)
(13.9765 0 -3.87403)
(14.5159 0 -3.02378)
(14.8747 0 -2.09141)
(15.0471 0 -1.07177)
(15.0293 0 0.041574)
(14.8213 0 1.25536)
(14.4292 0 2.57207)
(13.864 0 3.9834)
(13.1359 0 5.47057)
(12.2519 0 7.00742)
(11.2027 0 8.54046)
(9.92132 0 9.93463)
(8.2319 0 10.9435)
(5.98571 0 11.3891)
(3.33958 0 11.454)
(0.521804 0 11.4234)
(-2.31484 0 11.4223)
(-5.02797 0 11.3883)
(-7.42052 0 11.0769)
(-9.26952 0 10.2248)
(-10.6426 0 8.90617)
(-11.7341 0 7.37864)
(-12.6462 0 5.8166)
(-13.3983 0 4.29165)
(-13.9866 0 2.83519)
(-14.401 0 1.46855)
(-14.6302 0 0.204087)
(-14.6665 0 -0.957626)
(-14.5083 0 -2.02208)
(-14.159 0 -2.99509)
(-13.6244 0 -3.88129)
(-12.9119 0 -4.68421)
(-12.0306 0 -5.40655)
(-10.9915 0 -6.05038)
(-9.80743 0 -6.61691)
(-8.49351 0 -7.10642)
(-7.06672 0 -7.51804)
(-5.5458 0 -7.84988)
(-3.95092 0 -8.09936)
(-2.30331 0 -8.26377)
(-0.624943 0 -8.34084)
(1.06177 0 -8.32933)
(2.7343 0 -8.22946)
(4.37032 0 -8.04275)
(5.94802 0 -7.77164)
(7.44641 0 -7.41888)
(8.84567 0 -6.98691)
(10.1274 0 -6.47737)
(11.2752 0 -5.89083)
(12.2746 0 -5.22675)
(13.113 0 -4.48367)
(13.7801 0 -3.65938)
(14.2673 0 -2.75094)
(14.5675 0 -1.7546)
(14.6753 0 -0.665422)
(14.5886 0 0.522601)
(14.3102 0 1.81411)
(13.8495 0 3.20578)
(13.2178 0 4.68234)
(12.4242 0 6.22085)
(11.4691 0 7.78359)
(10.3195 0 9.27909)
(8.84254 0 10.5011)
(6.84395 0 11.2025)
(4.34325 0 11.4111)
(1.58281 0 11.4201)
(-1.262 0 11.4304)
(-4.05153 0 11.4559)
(-6.61942 0 11.3227)
(-8.72218 0 10.733)
(-10.2853 0 9.59786)
(-11.4931 0 8.14713)
(-12.4966 0 6.60479)
(-13.3401 0 5.07744)
(-14.0267 0 3.60782)
(-14.548 0 2.21959)
(-14.893 0 0.929379)
(-15.0518 0 -0.257748)
(-15.0199 0 -1.34609)
(-14.7985 0 -2.34252)
(-14.392 0 -3.25312)
(-13.8067 0 -4.08273)
(-13.0501 0 -4.83512)
(-12.1316 0 -5.51324)
(-11.0617 0 -6.11916)
(-9.85338 0 -6.65397)
(-8.52108 0 -7.11757)
(-7.08127 0 -7.50863)
(-5.55191 0 -7.82477)
(-3.95225 0 -8.06296)
(-2.30249 0 -8.22015)
(-0.623506 0 -8.29386)
(1.02048 0 -9.93811)
(2.62507 0 -9.81749)
(4.19312 0 -9.5923)
(5.70296 0 -9.26597)
(7.13394 0 -8.84266)
(8.4668 0 -8.32666)
(9.68394 0 -7.72179)
(10.7698 0 -7.03098)
(11.7108 0 -6.25602)
(12.4956 0 -5.39754)
(13.1149 0 -4.45507)
(13.5613 0 -3.42711)
(13.8288 0 -2.31128)
(13.9136 0 -1.10445)
(13.8141 0 0.196792)
(13.5321 0 1.59473)
(13.0744 0 3.08726)
(12.4511 0 4.66429)
(11.6736 0 6.30713)
(10.7536 0 7.98897)
(9.6997 0 9.67025)
(8.50516 0 11.285)
(7.0951 0 12.6879)
(5.29905 0 13.6448)
(3.03151 0 14.0807)
(0.486289 0 14.1876)
(-2.09303 0 14.1134)
(-4.4738 0 13.78)
(-6.41835 0 12.9739)
(-7.92106 0 11.6672)
(-9.15652 0 10.0767)
(-10.2353 0 8.38529)
(-11.1775 0 6.67661)
(-11.9767 0 4.9956)
(-12.6214 0 3.37264)
(-13.1001 0 1.82922)
(-13.4019 0 0.378687)
(-13.5188 0 -0.974157)
(-13.4479 0 -2.22991)
(-13.1902 0 -3.39083)
(-12.7496 0 -4.45918)
(-12.1318 0 -5.4366)
(-11.3448 0 -6.32395)
(-10.3983 0 -7.12125)
(-9.30456 0 -7.82758)
(-8.07781 0 -8.44102)
(-6.73473 0 -8.95867)
(-5.29405 0 -9.37686)
(-3.77627 0 -9.69159)
(-2.2033 0 -9.89907)
(-0.598053 0 -9.99633)
(1.01597 0 -9.98181)
(2.61509 0 -9.85576)
(4.17591 0 -9.62014)
(5.67574 0 -9.2782)
(7.09301 0 -8.83383)
(8.40763 0 -8.291)
(9.6014 0 -7.65321)
(10.6582 0 -6.9231)
(11.5644 0 -6.10235)
(12.3083 0 -5.19161)
(12.8808 0 -4.19064)
(13.2745 0 -3.09837)
(13.484 0 -1.91297)
(13.506 0 -0.632113)
(13.3406 0 0.746247)
(12.9919 0 2.22171)
(12.469 0 3.78748)
(11.7829 0 5.42792)
(10.9456 0 7.11956)
(9.96764 0 8.82884)
(8.85232 0 10.5049)
(7.56295 0 12.0444)
(5.96078 0 13.2367)
(3.88809 0 13.9037)
(1.4313 0 14.1504)
(-1.1606 0 14.1797)
(-3.65869 0 14.0087)
(-5.81272 0 13.4488)
(-7.49115 0 12.3564)
(-8.83129 0 10.8772)
(-9.98625 0 9.23559)
(-11.0058 0 7.54943)
(-11.8897 0 5.8745)
(-12.6282 0 4.24653)
(-13.2095 0 2.68998)
(-13.6224 0 1.22144)
(-13.8572 0 -0.151319)
(-13.9087 0 -1.42776)
(-13.776 0 -2.61065)
(-13.4614 0 -3.70339)
(-12.9694 0 -4.70894)
(-12.3061 0 -5.62947)
(-11.4796 0 -6.46621)
(-10.4996 0 -7.21937)
(-9.37819 0 -7.88801)
(-8.12928 0 -8.47003)
(-6.76906 0 -8.96225)
(-5.31559 0 -9.36068)
(-3.78852 0 -9.661)
(-2.20882 0 -9.85918)
(-0.598343 0 -9.9521)
(0.957803 0 -11.507)
(2.46266 0 -11.3605)
(3.93024 0 -11.0872)
(5.3386 0 -10.6913)
(6.667 0 -10.1784)
(7.89635 0 -9.55441)
(9.00951 0 -8.82515)
(9.99154 0 -7.99571)
(10.8298 0 -7.07012)
(11.514 0 -6.0512)
(12.0361 0 -4.94049)
(12.39 0 -3.7384)
(12.5715 0 -2.44443)
(12.5786 0 -1.05764)
(12.4116 0 0.422485)
(12.0739 0 1.99457)
(11.5726 0 3.65274)
(10.9175 0 5.38459)
(10.1202 0 7.17052)
(9.19316 0 8.98406)
(8.14857 0 10.7901)
(6.99587 0 12.5396)
(5.72641 0 14.1468)
(4.25887 0 15.4481)
(2.47318 0 16.2576)
(0.409699 0 16.5479)
(-1.69555 0 16.3753)
(-3.58536 0 15.707)
(-5.13912 0 14.5206)
(-6.44921 0 12.963)
(-7.62305 0 11.2214)
(-8.68669 0 9.40173)
(-9.63263 0 7.56066)
(-10.4491 0 5.73649)
(-11.1235 0 3.95842)
(-11.6438 0 2.24858)
(-11.9993 0 0.622248)
(-12.1821 0 -0.912177)
(-12.188 0 -2.35132)
(-12.0161 0 -3.6942)
(-11.6683 0 -4.94055)
(-11.1488 0 -6.08988)
(-10.4638 0 -7.14095)
(-9.62197 0 -8.09155)
(-8.63428 0 -8.93842)
(-7.51418 0 -9.67722)
(-6.27758 0 -10.3027)
(-4.94276 0 -10.8092)
(-3.53001 0 -11.191)
(-2.06127 0 -11.4428)
(-0.559727 0 -11.561)
(0.950745 0 -11.5433)
(2.44606 0 -11.3903)
(3.90245 0 -11.1043)
(5.29704 0 -10.6897)
(6.60826 0 -10.1517)
(7.8163 0 -9.49627)
(8.90349 0 -8.72895)
(9.85452 0 -7.85476)
(10.6566 0 -6.87777)
(11.2994 0 -5.80098)
(11.7749 0 -4.62631)
(12.0773 0 -3.35479)
(12.2032 0 -1.98679)
(12.1511 0 -0.522654)
(11.9229 0 1.0362)
(11.5236 0 2.68534)
(10.9623 0 4.4147)
(10.2497 0 6.20718)
(9.39836 0 8.03891)
(8.42078 0 9.87855)
(7.3281 0 11.6847)
(6.1243 0 13.3917)
(4.76401 0 14.8734)
(3.12593 0 15.9323)
(1.15877 0 16.4648)
(-0.961126 0 16.5182)
(-2.97072 0 16.0991)
(-4.66704 0 15.1511)
(-6.07048 0 13.7497)
(-7.30555 0 12.0936)
(-8.43076 0 10.3231)
(-9.44584 0 8.51121)
(-10.3403 0 6.70181)
(-11.1018 0 4.92765)
(-11.7179 0 3.21332)
(-12.1775 0 1.5766)
(-12.4712 0 0.0280502)
(-12.593 0 -1.42789)
(-12.5404 0 -2.7905)
(-12.3137 0 -4.06053)
(-11.9155 0 -5.23886)
(-11.3505 0 -6.32579)
(-10.6252 0 -7.32062)
(-9.74839 0 -8.22149)
(-8.73086 0 -9.02527)
(-7.58587 0 -9.72761)
(-6.32894 0 -10.3232)
(-4.97777 0 -10.8062)
(-3.55191 0 -11.1705)
(-2.07245 0 -11.4111)
(-0.561586 0 -11.5239)
(0.879071 0 -12.9624)
(2.2591 0 -12.7899)
(3.60211 0 -12.4682)
(4.88641 0 -12.0027)
(6.09171 0 -11.4004)
(7.19953 0 -10.6691)
(8.19353 0 -9.81693)
(9.05976 0 -8.85123)
(9.78672 0 -7.77847)
(10.3654 0 -6.6038)
(10.7891 0 -5.33097)
(11.0533 0 -3.96249)
(11.1557 0 -2.49992)
(11.096 0 -0.944581)
(10.8764 0 0.701448)
(10.5016 0 2.43376)
(9.97935 0 4.24359)
(9.31973 0 6.11633)
(8.53461 0 8.03092)
(7.63738 0 9.95988)
(6.64234 0 11.8686)
(5.56434 0 13.713)
(4.41779 0 15.427)
(3.19177 0 16.8903)
(1.82855 0 17.9158)
(0.313054 0 18.3374)
(-1.23002 0 18.0922)
(-2.64464 0 17.2134)
(-3.90219 0 15.837)
(-5.06191 0 14.1571)
(-6.15148 0 12.3166)
(-7.15987 0 10.3943)
(-8.07172 0 8.43844)
(-8.87243 0 6.48607)
(-9.54814 0 4.56707)
(-10.0864 0 2.70498)
(-10.4764 0 0.91705)
(-10.7098 0 -0.785435)
(-10.7811 0 -2.39592)
(-10.6876 0 -3.91054)
(-10.4293 0 -5.32654)
(-10.0087 0 -6.6411)
(-9.43033 0 -7.85069)
(-8.70141 0 -8.9507)
(-7.83153 0 -9.93533)
(-6.83296 0 -10.7977)
(-5.7206 0 -11.5301)
(-4.51186 0 -12.1244)
(-3.22634 0 -12.5731)
(-1.88552 0 -12.8693)
(-0.512218 0 -13.0084)
(0.869928 0 -12.9876)
(2.23706 0 -12.8075)
(3.56568 0 -12.4711)
(4.83328 0 -11.984)
(6.01882 0 -11.3531)
(7.10323 0 -10.5862)
(8.06974 0 -9.69138)
(8.90412 0 -8.67615)
(9.5948 0 -7.54715)
(10.1328 0 -6.30986)
(10.5116 0 -4.9686)
(10.7273 0 -3.52665)
(10.7779 0 -1.98676)
(10.6642 0 -0.351839)
(10.3895 0 1.37371)
(9.96004 0 3.18228)
(9.38496 0 5.06113)
(8.6755 0 6.99135)
(7.84453 0 8.94781)
(6.90617 0 10.8988)
(5.87511 0 12.8053)
(4.76697 0 14.6137)
(3.58691 0 16.2316)
(2.29332 0 17.4971)
(0.8361 0 18.2198)
(-0.716996 0 18.291)
(-2.19929 0 17.7021)
(-3.52096 0 16.5434)
(-4.72211 0 14.999)
(-5.85163 0 13.2423)
(-6.90956 0 11.3761)
(-7.88056 0 9.45828)
(-8.74998 0 7.52998)
(-9.50366 0 5.62384)
(-10.1286 0 3.76564)
(-10.6133 0 1.97477)
(-10.9483 0 0.26419)
(-11.1266 0 -1.35861)
(-11.1441 0 -2.89003)
(-10.9994 0 -4.32829)
(-10.6933 0 -5.6721)
(-10.2287 0 -6.91969)
(-9.61065 0 -8.06826)
(-8.8464 0 -9.11369)
(-7.94565 0 -10.0505)
(-6.92052 0 -10.8719)
(-5.78561 0 -11.5703)
(-4.55785 0 -12.1377)
(-3.25621 0 -12.5663)
(-1.90141 0 -12.8495)
(-0.515411 0 -12.9824)
(0.787316 0 -14.2816)
(2.02221 0 -14.0836)
(3.22121 0 -13.7146)
(4.36341 0 -13.181)
(5.42941 0 -12.4916)
(6.40173 0 -11.6563)
(7.26519 0 -10.6854)
(8.00706 0 -9.58893)
(8.61722 0 -8.37579)
(9.08809 0 -7.05359)
(9.41453 0 -5.62844)
(9.59373 0 -4.10506)
(9.6251 0 -2.48719)
(9.5102 0 -0.778393)
(9.25287 0 1.01686)
(8.85935 0 2.8916)
(8.33833 0 4.83459)
(7.70065 0 6.8292)
(6.95906 0 8.85265)
(6.12816 0 10.8757)
(5.22462 0 12.8621)
(4.26752 0 14.7664)
(3.27988 0 16.5263)
(2.28174 0 18.037)
(1.26807 0 19.126)
(0.224417 0 19.5913)
(-0.8254 0 19.3205)
(-1.84601 0 18.3753)
(-2.84239 0 16.9437)
(-3.82741 0 15.2167)
(-4.7868 0 13.3187)
(-5.69655 0 11.3211)
(-6.53632 0 9.27291)
(-7.28862 0 7.21276)
(-7.93812 0 5.17233)
(-8.47142 0 3.17687)
(-8.87699 0 1.24566)
(-9.14548 0 -0.607598)
(-9.27003 0 -2.37363)
(-9.24637 0 -4.046)
(-9.07264 0 -5.61949)
(-8.74941 0 -7.08888)
(-8.27961 0 -8.44824)
(-7.66873 0 -9.6904)
(-6.92488 0 -10.8069)
(-6.05891 0 -11.7882)
(-5.08439 0 -12.6239)
(-4.01752 0 -13.3036)
(-2.87681 0 -13.8174)
(-1.68277 0 -14.157)
(-0.45735 0 -14.3165)
(0.776622 0 -14.2927)
(1.99607 0 -14.0861)
(3.17834 0 -13.7006)
(4.3018 0 -13.1429)
(5.34641 0 -12.4217)
(6.29422 0 -11.5472)
(7.1297 0 -10.5299)
(7.83999 0 -9.37985)
(8.41493 0 -8.10646)
(8.84712 0 -6.71785)
(9.13174 0 -5.22083)
(9.26647 0 -3.6211)
(9.25139 0 -1.92378)
(9.08896 0 -0.134298)
(8.78413 0 1.74035)
(8.3444 0 3.68986)
(7.77974 0 5.69915)
(7.10216 0 7.74744)
(6.32556 0 9.80784)
(5.46583 0 11.847)
(4.54105 0 13.824)
(3.57264 0 15.686)
(2.58436 0 17.351)
(1.58373 0 18.6765)
(0.554295 0 19.4612)
(-0.498177 0 19.5392)
(-1.53434 0 18.895)
(-2.54199 0 17.6763)
(-3.5382 0 16.087)
(-4.52027 0 14.2818)
(-5.46547 0 12.351)
(-6.35183 0 10.3511)
(-7.16101 0 8.32472)
(-7.87687 0 6.30616)
(-8.48531 0 4.32297)
(-8.97408 0 2.39629)
(-9.33284 0 0.54126)
(-9.55355 0 -1.23212)
(-9.6306 0 -2.91769)
(-9.56076 0 -4.51136)
(-9.34302 0 -6.00961)
(-8.97857 0 -7.40849)
(-8.47079 0 -8.70296)
(-7.82546 0 -9.88653)
(-7.0508 0 -10.9512)
(-6.15762 0 -11.8877)
(-5.15931 0 -12.6859)
(-4.07166 0 -13.3356)
(-2.91271 0 -13.8271)
(-1.70228 0 -14.152)
(-0.461598 0 -14.3045)
(0.68499 0 -15.4462)
(1.75829 0 -15.2239)
(2.79765 0 -14.8095)
(3.78339 0 -14.211)
(4.69742 0 -13.4388)
(5.52363 0 -12.505)
(6.24827 0 -11.4223)
(6.86011 0 -10.2033)
(7.35054 0 -8.85952)
(7.71358 0 -7.40113)
(7.94571 0 -5.83664)
(8.04582 0 -4.17308)
(8.01503 0 -2.41642)
(7.85667 0 -0.572393)
(7.57623 0 1.35227)
(7.1814 0 3.34827)
(6.68207 0 5.40223)
(6.09013 0 7.49549)
(5.41944 0 9.60328)
(4.68597 0 11.6941)
(3.90829 0 13.7288)
(3.10825 0 15.6585)
(2.3123 0 17.4179)
(1.54904 0 18.9079)
(0.833652 0 19.973)
(0.154124 0 20.427)
(-0.519365 0 20.1608)
(-1.21863 0 19.2345)
(-1.96294 0 17.8247)
(-2.74517 0 16.1034)
(-3.53838 0 14.1854)
(-4.31449 0 12.1435)
(-5.05019 0 10.0304)
(-5.72583 0 7.88776)
(-6.32456 0 5.7498)
(-6.8318 0 3.6438)
(-7.23498 0 1.59108)
(-7.52358 0 -0.392428)
(-7.68931 0 -2.29506)
(-7.72625 0 -4.10796)
(-7.63079 0 -5.82353)
(-7.40168 0 -7.43416)
(-7.04012 0 -8.93139)
(-6.54989 0 -10.3055)
(-5.93742 0 -11.5452)
(-5.21197 0 -12.6382)
(-4.38551 0 -13.5715)
(-3.47272 0 -14.3321)
(-2.49066 0 -14.9079)
(-1.45841 0 -15.2889)
(-0.396582 0 -15.4678)
(0.67331 0 -15.4411)
(1.72951 0 -15.2092)
(2.75067 0 -14.7769)
(3.71653 0 -14.1521)
(4.60847 0 -13.3455)
(5.41004 0 -12.3695)
(6.10722 0 -11.2372)
(6.68875 0 -9.96141)
(7.14611 0 -8.55431)
(7.47356 0 -7.0267)
(7.66801 0 -5.38798)
(7.72889 0 -3.64633)
(7.65809 0 -1.80928)
(7.4598 0 0.115385)
(7.14058 0 2.11825)
(6.70929 0 4.18663)
(6.177 0 6.30328)
(5.55681 0 8.4454)
(4.86384 0 10.584)
(4.11562 0 12.683)
(3.33264 0 14.6984)
(2.53942 0 16.5735)
(1.76491 0 18.2272)
(1.03282 0 19.5297)
(0.342949 0 20.2988)
(-0.328901 0 20.3762)
(-1.01528 0 19.7473)
(-1.74305 0 18.5537)
(-2.5172 0 16.9812)
(-3.31701 0 15.1698)
(-4.11356 0 13.2073)
(-4.88169 0 11.1536)
(-5.60049 0 9.05489)
(-6.25211 0 6.94805)
(-6.82117 0 4.86281)
(-7.29433 0 2.82227)
(-7.66021 0 0.843625)
(-7.90949 0 -1.0609)
(-8.03503 0 -2.88285)
(-8.03192 0 -4.61588)
(-7.89741 0 -6.25431)
(-7.63095 0 -7.79194)
(-7.23426 0 -9.2214)
(-6.71148 0 -10.5337)
(-6.0693 0 -11.7184)
(-5.31698 0 -12.7634)
(-4.46644 0 -13.6563)
(-3.53207 0 -14.3843)
(-2.53052 0 -14.9358)
(-1.48037 0 -15.3007)
(-0.401586 0 -15.472)
(0.57406 0 -16.4415)
(1.47242 0 -16.1963)
(2.33954 0 -15.7397)
(3.15743 0 -15.0808)
(3.90967 0 -14.2318)
(4.58186 0 -13.2072)
(5.16193 0 -12.0219)
(5.64036 0 -10.6912)
(6.01019 0 -9.22927)
(6.2671 0 -7.64877)
(6.40921 0 -5.96069)
(6.43705 0 -4.1744)
(6.35339 0 -2.29807)
(6.16316 0 -0.339612)
(5.87337 0 1.69212)
(5.49309 0 3.78574)
(5.03336 0 5.92583)
(4.50709 0 8.09178)
(3.92905 0 10.2568)
(3.31615 0 12.3868)
(2.68778 0 14.4398)
(2.06631 0 16.3632)
(1.47747 0 18.0884)
(0.947972 0 19.5202)
(0.493179 0 20.5231)
(0.0977184 0 20.9438)
(-0.287641 0 20.6943)
(-0.718205 0 19.8231)
(-1.22116 0 18.474)
(-1.78879 0 16.7935)
(-2.39575 0 14.8882)
(-3.01523 0 12.8329)
(-3.62365 0 10.6842)
(-4.20059 0 8.48708)
(-4.72831 0 6.27826)
(-5.19128 0 4.08727)
(-5.57592 0 1.93742)
(-5.87059 0 -0.153288)
(-6.06567 0 -2.17097)
(-6.15369 0 -4.10454)
(-6.1294 0 -5.94408)
(-5.98986 0 -7.67957)
(-5.73456 0 -9.30005)
(-5.36555 0 -10.7931)
(-4.88754 0 -12.1449)
(-4.308 0 -13.3401)
(-3.63712 0 -14.3632)
(-2.88777 0 -15.1985)
(-2.07521 0 -15.8318)
(-1.2167 0 -16.2512)
(-0.331073 0 -16.4483)
(0.561962 0 -16.4188)
(1.44243 0 -16.1635)
(2.29077 0 -15.6877)
(3.08853 0 -15.0007)
(3.8189 0 -14.1153)
(4.46722 0 -13.046)
(5.02131 0 -11.8086)
(5.47165 0 -10.4188)
(5.8115 0 -8.89129)
(6.03686 0 -7.23976)
(6.14634 0 -5.47617)
(6.14112 0 -3.6112)
(6.02473 0 -1.65471)
(5.803 0 0.38319)
(5.48397 0 2.49084)
(5.07781 0 4.6534)
(4.59666 0 6.85159)
(4.05458 0 9.06054)
(3.46767 0 11.249)
(2.8543 0 13.3782)
(2.23567 0 15.4005)
(1.63627 0 17.2556)
(1.08336 0 18.8619)
(0.599711 0 20.102)
(0.185062 0 20.8232)
(-0.19715 0 20.8973)
(-0.604422 0 20.3122)
(-1.07869 0 19.1827)
(-1.62589 0 17.6633)
(-2.22584 0 15.8786)
(-2.85144 0 13.9157)
(-3.47781 0 11.838)
(-4.08338 0 9.69509)
(-4.64946 0 7.52681)
(-5.15973 0 5.36517)
(-5.59992 0 3.23531)
(-5.95759 0 1.1564)
(-6.22222 0 -0.857327)
(-6.38526 0 -2.79528)
(-6.44023 0 -4.64899)
(-6.38277 0 -6.41059)
(-6.21068 0 -8.07166)
(-5.92405 0 -9.62244)
(-5.52537 0 -11.0515)
(-5.01967 0 -12.3457)
(-4.41455 0 -13.4906)
(-3.72022 0 -14.4709)
(-2.94938 0 -15.2716)
(-2.11699 0 -15.8788)
(-1.23994 0 -16.281)
(-0.33653 0 -16.4699)
(0.45611 0 -17.2552)
(1.16867 0 -16.9894)
(1.85342 0 -16.4945)
(2.49443 0 -15.7811)
(3.07735 0 -14.8632)
(3.58975 0 -13.7572)
(4.02153 0 -12.4808)
(4.36497 0 -11.0516)
(4.61491 0 -9.48628)
(4.76868 0 -7.80016)
(4.826 0 -6.00661)
(4.78892 0 -4.11728)
(4.66171 0 -2.14254)
(4.45067 0 -0.0923809)
(4.16414 0 2.02233)
(3.81232 0 4.18827)
(3.40714 0 6.38823)
(2.9622 0 8.59979)
(2.49273 0 10.7942)
(2.01572 0 12.9354)
(1.55002 0 14.9789)
(1.11642 0 16.8695)
(0.73695 0 18.538)
(0.431838 0 19.8945)
(0.209321 0 20.8239)
(0.0492788 0 21.2065)
(-0.100438 0 20.9765)
(-0.297842 0 20.1701)
(-0.574091 0 18.8974)
(-0.928017 0 17.2789)
(-1.34139 0 15.4122)
(-1.79201 0 13.3715)
(-2.25843 0 11.2157)
(-2.72105 0 8.99242)
(-3.16217 0 6.74047)
(-3.56591 0 4.49141)
(-3.91807 0 2.27039)
(-4.20613 0 0.0973141)
(-4.41936 0 -2.01197)
(-4.54899 0 -4.04425)
(-4.58834 0 -5.98737)
(-4.53297 0 -7.829)
(-4.38073 0 -9.55571)
(-4.13201 0 -11.1525)
(-3.78975 0 -12.6028)
(-3.35955 0 -13.8887)
(-2.84964 0 -14.9918)
(-2.27085 0 -15.894)
(-1.63628 0 -16.579)
(-0.961043 0 -17.0331)
(-0.26174 0 -17.2465)
(0.44414 0 -17.2146)
(1.13886 0 -16.9381)
(1.80509 0 -16.423)
(2.42658 0 -15.6803)
(2.98868 0 -14.7243)
(3.47885 0 -13.572)
(3.88694 0 -12.2416)
(4.20537 0 -10.7516)
(4.42924 0 -9.11953)
(4.55629 0 -7.36155)
(4.58679 0 -5.49225)
(4.5235 0 -3.52473)
(4.37146 0 -1.47117)
(4.13789 0 0.656135)
(3.8321 0 2.84343)
(3.46529 0 5.07394)
(3.05043 0 7.3265)
(2.60214 0 9.57439)
(2.13678 0 11.7843)
(1.67251 0 13.9151)
(1.22945 0 15.9168)
(0.82943 0 17.727)
(0.49434 0 19.266)
(0.239591 0 20.4296)
(0.0590356 0 21.0949)
(-0.0873504 0 21.1647)
(-0.259707 0 20.6301)
(-0.503185 0 19.5775)
(-0.829186 0 18.1298)
(-1.22485 0 16.3958)
(-1.66889 0 14.4594)
(-2.13944 0 12.3856)
(-2.61622 0 10.2265)
(-3.08084 0 8.0244)
(-3.51681 0 5.81326)
(-3.90932 0 3.62012)
(-4.24519 0 1.46592)
(-4.51294 0 -0.633249)
(-4.70284 0 -2.66485)
(-4.80707 0 -4.61838)
(-4.81985 0 -6.48387)
(-4.73749 0 -8.25067)
(-4.55852 0 -9.90672)
(-4.28383 0 -11.4381)
(-3.91675 0 -12.8292)
(-3.46311 0 -14.0629)
(-2.93124 0 -15.1215)
(-2.33189 0 -15.9876)
(-1.67801 0 -16.6452)
(-0.984425 0 -17.0812)
(-0.267359 0 -17.2861)
(0.332434 0 -17.8776)
(0.850386 0 -17.5937)
(1.34461 0 -17.0655)
(1.80166 0 -16.3047)
(2.20955 0 -15.3272)
(2.55814 0 -14.1514)
(2.83944 0 -12.7972)
(3.04773 0 -11.2846)
(3.17965 0 -9.63299)
(3.23415 0 -7.85986)
(3.21246 0 -5.98095)
(3.11802 0 -4.01011)
(2.95631 0 -1.95983)
(2.7348 0 0.157946)
(2.46278 0 2.33048)
(2.15123 0 4.54274)
(1.8126 0 6.77595)
(1.46069 0 9.00621)
(1.11051 0 11.2033)
(0.77826 0 13.3297)
(0.481083 0 15.3394)
(0.236618 0 17.1767)
(0.061662 0 18.7741)
(-0.0313004 0 20.049)
(-0.0421899 0 20.9056)
(0.00519592 0 21.2521)
(0.0618451 0 21.0408)
(0.0742359 0 20.2976)
(0.00982066 0 19.1054)
(-0.137545 0 17.5614)
(-0.357945 0 15.7525)
(-0.63525 0 13.7501)
(-0.951752 0 11.6133)
(-1.28995 0 9.39085)
(-1.6332 0 7.12314)
(-1.96597 0 4.84317)
(-2.27398 0 2.57764)
(-2.54426 0 0.348002)
(-2.76535 0 -1.82812)
(-2.9275 0 -3.93556)
(-3.02289 0 -5.96011)
(-3.04577 0 -7.88719)
(-2.99258 0 -9.70101)
(-2.86211 0 -11.3841)
(-2.65556 0 -12.9173)
(-2.37661 0 -14.2803)
(-2.03141 0 -15.4519)
(-1.62848 0 -16.4119)
(-1.17853 0 -17.1416)
(-0.694148 0 -17.6258)
(-0.189321 0 -17.8535)
(0.321098 0 -17.8195)
(0.822027 0 -17.5245)
(1.29878 0 -16.9754)
(1.73767 0 -16.1843)
(2.12658 0 -15.1676)
(2.45534 0 -13.9443)