/*--------------------------------*- C++ -*----------------------------------*\
| =========                 |                                                 |
| \\      /  F ield         | OpenFOAM: The Open Source CFD Toolbox           |
|  \\    /   O peration     | Version:  2.3.0                                 |
|   \\  /    A nd           | Web:      www.OpenFOAM.org                      |
|    \\/     M anipulation  |                                                 |
\*---------------------------------------------------------------------------*/
FoamFile
{
    version     2.0;
    format      ascii;
    class       volScalarField;
    location    "4000";
    object      p;
}
// * * * * * * * * * * * * * * * * * * * * * * * * * * * * * * * * * * * * * //

dimensions      [0 2 -2 0 0 0 0];

internalField   nonuniform List<scalar> 
191
(
-1321.66
-1388.07
-1446.6
-1491.27
-1524.69
-1550.59
-1571.44
-1588.93
-1604.1
-1617.57
-1629.71
-1640.77
-1282.37
-1316.75
-1347.22
-1371.82
-1391.88
-1408.85
-1423.43
-1436.26
-1447.84
-1458.44
-1468.29
-1477.51
-1240.31
-1262.47
-1274.63
-1289.6
-1297.11
-1303.77
-1310.54
-1317.28
-1323.97
-1330.58
-1337.1
-1343.58
-1139.3
-1152.99
-1177.27
-1195.4
-1200.87
-1204.3
-1207.56
-1210.8
-1214.17
-1217.71
-1221.49
-1225.52
-1024.07
-1029.74
-1053.06
-1076.72
-1089.51
-1094.17
-1097.91
-1100.78
-1103.06
-1105.03
-1106.94
-1108.96
-1111.19
-932.304
-935.265
-955.36
-969.72
-978.074
-982.361
-985.87
-988.361
-990.078
-991.29
-992.241
-993.118
-994.035
-846.308
-846.488
-854.261
-859.716
-864.094
-866.728
-868.91
-870.406
-871.31
-871.772
-871.94
-871.939
-871.839
-764.604
-762.117
-749.426
-745.695
-746.642
-746.971
-747.319
-747.459
-747.316
-746.898
-746.239
-745.386
-744.376
-683.114
-678.595
-643.123
-629.784
-627.17
-624.691
-622.709
-621.047
-619.467
-617.862
-616.158
-614.339
-612.421
-598.351
-593.005
-540.095
-515.719
-507.948
-502.008
-497.123
-493.13
-489.607
-486.373
-483.281
-480.262
-477.315
-504.555
-493.773
-435.841
-406.775
-393.414
-383.012
-374.102
-366.888
-360.684
-355.221
-350.241
-345.607
-341.3
-401.613
-385.653
-328.431
-289.917
-273.727
-266.412
-256.67
-247.054
-237.914
-229.652
-222.141
-215.233
-208.917
-314.225
-281.003
-219.555
-164.888
-146.213
-147.03
-141.853
-135.661
-126.44
-116.294
-105.935
-95.7757
-86.6131
-206.243
-176.338
-129.841
-78.1929
-45.9625
-29.846
-22.7101
-22.4969
-22.0791
-19.5004
-14.2602
-6.93075
1.62923
-365.257
-298.917
-215.466
-128.961
-55.3152
-1.23937
33.6674
54.2569
66.6046
73.3667
75.687
74.0407
70.5904
)
;

boundaryField
{
    top
    {
        type            calculated;
        value           nonuniform List<scalar> 
13
(
-9.81
-9.81
-9.81
-9.81
-9.81
-9.81
-9.81
-9.81
-9.81
-9.81
-9.81
-9.81
-9.81
)
;
    }
    bottom
    {
        type            calculated;
        value           nonuniform List<scalar> 
12
(
-1391.23
-1460.67
-1522.95
-1570.63
-1606.58
-1634.57
-1657.11
-1675.95
-1692.19
-1706.53
-1719.4
-1731.04
)
;
    }
    frontAndBack
    {
        type            empty;
    }
    left_cyc
    {
        type            cyclic;
    }
    right_cyc
    {
        type            cyclic;
    }
    procBoundary3to0throughright_cyc
    {
        type            processorCyclic;
        value           nonuniform List<scalar> 
15
(
-1650.88
-1486.26
-1350.11
-1229.88
-1113.66
-995.032
-871.666
-743.226
-610.414
-474.418
-337.246
-203.109
-78.4272
10.84
67.6034
)
;
    }
    procBoundary3to2
    {
        type            processor;
        value           nonuniform List<scalar> 
16
(
-1243.86
-1262.79
-1209.51
-1130.4
-1130.4
-1023.16
-933.399
-846.282
-761.95
-677.807
-591.434
-501.363
-410.35
-335.048
-225.656
-410.656
)
;
    }
}


// ************************************************************************* //
