/*--------------------------------*- C++ -*----------------------------------*\
| =========                 |                                                 |
| \\      /  F ield         | OpenFOAM: The Open Source CFD Toolbox           |
|  \\    /   O peration     | Version:  2.3.0                                 |
|   \\  /    A nd           | Web:      www.OpenFOAM.org                      |
|    \\/     M anipulation  |                                                 |
\*---------------------------------------------------------------------------*/
FoamFile
{
    version     2.0;
    format      ascii;
    class       volScalarField;
    location    "4000";
    object      T;
}
// * * * * * * * * * * * * * * * * * * * * * * * * * * * * * * * * * * * * * //

dimensions      [0 0 0 1 0 0 0];

internalField   nonuniform List<scalar> 
191
(
30.613
31.9424
33.583
34.9026
36.011
36.9261
37.6653
38.2557
38.7282
39.1104
39.4237
39.6822
18.8142
20.2822
22.0472
24.1902
26.0352
27.4757
28.6318
29.5952
30.4231
31.1472
31.783
32.3346
15.1555
16.7391
18.3151
19.7942
21.1085
22.299
23.3577
24.3107
25.1768
25.9566
26.6532
27.2619
14.5639
16.4518
18.1893
19.6413
20.7764
21.6628
22.3812
22.9977
23.5573
24.0902
24.5971
25.0684
12.6403
14.9053
17.2054
19.2669
20.9085
22.0973
22.9221
23.494
23.9107
24.2458
24.5488
24.8474
25.1543
12.7196
15.4245
18.1415
20.5219
22.3635
23.6643
24.5252
25.0677
25.4064
25.6339
25.8166
25.9972
26.2
12.7661
15.8616
18.937
21.5756
23.5838
24.9949
25.9192
26.4818
26.8064
26.9997
27.141
27.2808
27.446
12.7104
16.1171
19.4625
22.2774
24.4069
25.9094
26.9077
27.5257
27.8878
28.1077
28.2703
28.4261
28.5961
12.4803
16.0869
19.6242
22.5511
24.7333
26.2921
27.3736
28.0931
28.5592
28.8728
29.1095
29.3128
29.5005
11.9648
15.6252
19.234
22.2159
24.4335
26.054
27.246
28.1085
28.7215
29.1655
29.5054
29.7833
30.0215
11.0826
14.6078
18.0913
21.0457
23.2821
24.9484
26.2473
27.2618
28.0405
28.6426
29.1227
29.5222
29.8655
9.74002
12.9083
16.0221
18.7602
20.9155
22.5663
23.9108
25.0215
25.9319
26.6879
27.3315
27.8959
28.4201
7.82678
10.4095
12.9312
15.1625
16.9896
18.4636
19.6845
20.7256
21.6423
22.4697
23.228
23.9632
24.6903
5.25595
6.98289
8.66298
10.1629
11.4195
12.4531
13.3274
14.1048
14.8292
15.5217
16.2423
16.9849
17.7311
2.05402
2.67241
3.24658
3.74685
4.16999
4.5307
4.85175
5.15703
5.46991
5.81582
6.17501
6.54342
6.92133
)
;

boundaryField
{
    top
    {
        type            fixedValue;
        value           uniform 0;
    }
    bottom
    {
        type            fixedValue;
        value           uniform 43.8;
    }
    frontAndBack
    {
        type            empty;
    }
    left_cyc
    {
        type            cyclic;
    }
    right_cyc
    {
        type            cyclic;
    }
    procBoundary3to0throughright_cyc
    {
        type            processorCyclic;
        value           nonuniform List<scalar> 
15
(
39.8922
32.7923
27.7576
25.5088
25.4753
26.4364
27.6457
28.7817
29.6746
30.2299
30.1737
28.9136
25.3934
18.4679
7.30687
)
;
    }
    procBoundary3to2
    {
        type            processor;
        value           nonuniform List<scalar> 
16
(
29.5928
17.5872
13.6966
12.7382
12.7382
10.8305
10.5421
10.2491
9.90365
9.47244
8.87534
8.06241
6.97412
5.53975
3.70551
1.46995
)
;
    }
}


// ************************************************************************* //
