/*--------------------------------*- C++ -*----------------------------------*\
| =========                 |                                                 |
| \\      /  F ield         | OpenFOAM: The Open Source CFD Toolbox           |
|  \\    /   O peration     | Version:  2.3.0                                 |
|   \\  /    A nd           | Web:      www.OpenFOAM.org                      |
|    \\/     M anipulation  |                                                 |
\*---------------------------------------------------------------------------*/
FoamFile
{
    version     2.0;
    format      ascii;
    class       surfaceScalarField;
    location    "14000";
    object      phi;
}
// * * * * * * * * * * * * * * * * * * * * * * * * * * * * * * * * * * * * * //

dimensions      [0 3 -1 0 0 0 0];

internalField   nonuniform List<scalar> 
353
(
-0.406394
0.0264347
-0.395999
-0.0103954
-0.369538
-0.0264613
-0.342172
-0.0273662
-0.321788
-0.0203832
-0.310804
-0.0109844
-0.308512
-0.00229209
-0.312927
0.00441533
-0.321954
0.00902667
-0.334208
0.0122541
-0.349058
0.0148498
-0.366517
0.0174592
0.0206766
-0.640492
0.0861517
-0.648267
-0.00262065
-0.629738
-0.0449902
-0.602406
-0.0546986
-0.576495
-0.0462941
-0.556672
-0.030807
-0.544029
-0.0149352
-0.537729
-0.00188483
-0.536034
0.00733193
-0.536819
0.0130388
-0.537981
0.0160122
-0.537442
0.0169206
0.0161905
-0.624331
0.15592
-0.647613
0.0206611
-0.64463
-0.0479733
-0.629007
-0.0703216
-0.609237
-0.066064
-0.58998
-0.0500637
-0.573296
-0.0316195
-0.559592
-0.0155889
-0.548272
-0.0039874
-0.537877
0.00264384
-0.526304
0.0044387
-0.510893
0.00150973
-0.00624069
-0.500222
0.224636
-0.534736
0.0551752
-0.547117
-0.0355923
-0.5462
-0.0712385
-0.537933
-0.0743317
-0.526121
-0.0618759
-0.513048
-0.0446919
-0.499899
-0.0287382
-0.486988
-0.016898
-0.473856
-0.0104884
-0.459191
-0.0102263
-0.440844
-0.0168371
-0.0311673
-0.332897
0.284583
-0.37268
0.0949586
-0.396836
-0.0114369
-0.409453
-0.058621
-0.413856
-0.0699292
-0.412569
-0.0631629
-0.407501
-0.0497597
-0.400037
-0.0362021
-0.39104
-0.0258951
-0.380788
-0.0207406
-0.368833
-0.0221812
-0.353886
-0.0317843
-0.0512603
-0.151234
0.328816
-0.188986
0.132711
-0.218789
0.0183661
-0.240633
-0.0367767
-0.255385
-0.0551776
-0.264125
-0.0544223
-0.267977
-0.0459085
-0.268027
-0.0361518
-0.265246
-0.0286759
-0.260356
-0.0256312
-0.253629
-0.0289076
-0.244678
-0.040735
-0.0636368
0.0276256
0.352199
-0.00184472
0.162181
-0.0309959
0.0475172
-0.0566265
-0.0111461
-0.0774639
-0.0343402
-0.0933056
-0.0385806
-0.104423
-0.0347913
-0.111365
-0.0292094
-0.114885
-0.0251565
-0.115824
-0.0246914
-0.114904
-0.0298279
-0.112443
-0.0431963
-0.0679441
0.191416
0.351493
0.174326
0.179271
0.150088
0.0717553
0.124824
0.014118
0.101791
-0.0113075
0.0823789
-0.0191683
0.0670001
-0.0194125
0.0555485
-0.0177579
0.0475298
-0.0171378
0.0421305
-0.0192921
0.0384051
-0.0261025
0.0355584
-0.0403496
0.329283
0.325834
0.326867
0.181687
0.309938
0.0886844
0.287474
0.0365826
0.264765
0.0114014
0.244512
0.00108433
0.227809
-0.00270914
0.214839
-0.00478781
0.205192
-0.00749165
0.197964
-0.0120632
0.191932
-0.0200706
-0.0342845
0.429601
0.278029
0.441848
0.16944
0.433409
0.0971235
0.415404
0.0545875
0.39492
0.0318847
0.375875
0.0201301
0.360052
0.0131132
0.347925
0.00733967
0.339103
0.00133053
0.332435
-0.00539597
0.326221
-0.0138563
-0.0267304
0.478235
0.215402
0.502238
0.145437
0.50227
0.0970911
0.490213
0.0666445
0.474029
0.0480684
0.458258
0.0359013
0.445034
0.0263371
0.435023
0.017351
0.427934
0.00841995
0.4225
3.77818e-05
0.416573
-0.00792897
-0.0180324
0.456554
0.149768
0.486898
0.115093
0.494731
0.0892586
0.490661
0.0707139
0.481803
0.056927
0.472109
0.0455948
0.463337
0.0351088
0.456008
0.024681
0.44998
0.0144479
0.444367
0.00565066
0.43742
-0.000982315
-0.00758398
0.292612
0.10503
0.348535
0.0938442
0.38092
0.0827075
0.397956
0.0722227
0.406161
0.0625086
0.409638
0.0534507
0.410401
0.0448311
0.409109
0.0364017
0.405849
0.0279402
0.400844
0.0194536
0.394759
0.011735
0.388226
0.0055509
5.25524e-05
0.154814
0.0518107
0.200659
0.047999
0.239803
0.0435638
0.273092
0.0389327
0.30124
0.0343616
0.324733
0.0299569
0.343842
0.0257225
0.358642
0.0216015
0.369057
0.0175256
0.374964
0.0135468
0.376682
0.0100163
0.375134
0.00709897
0.0043312
0.136343
0.18122
0.221066
0.255762
0.285451
0.310373
0.330761
0.346787
0.358565
0.366264
0.370378
0.371564
)
;

boundaryField
{
    top
    {
        type            calculated;
        value           nonuniform List<scalar> 
13
(
0.00249085
0.00312187
0.00371784
0.00423628
0.00467245
0.00503521
0.00533476
0.00557469
0.00574799
0.00584764
0.00590199
0.00591336
0.00578975
)
;
    }
    bottom
    {
        type            calculated;
        value           uniform 0;
    }
    frontAndBack
    {
        type            empty;
        value           nonuniform 0();
    }
    left_cyc
    {
        type            cyclic;
        value           nonuniform 0();
    }
    right_cyc
    {
        type            cyclic;
        value           nonuniform 0();
    }
    procBoundary1to0
    {
        type            processor;
        value           nonuniform List<scalar> 
16
(
0.37996
0.580775
0.554563
0.431506
0.27295
0.107
-0.0510083
-0.19071
-0.303624
-0.381796
-0.415609
-0.390919
-0.191644
-0.205998
-0.101594
-0.0870227
)
;
    }
    procBoundary1to2
    {
        type            processor;
        value           nonuniform List<scalar> 
16
(
-0.387194
-0.532956
-0.488462
-0.415918
-0.333793
-0.232302
-0.108135
0.0331178
-0.0655035
0.185866
0.318667
0.407875
0.426972
0.380589
0.370856
0.370105
)
;
    }
}


// ************************************************************************* //
