/*--------------------------------*- C++ -*----------------------------------*\
| =========                 |                                                 |
| \\      /  F ield         | OpenFOAM: The Open Source CFD Toolbox           |
|  \\    /   O peration     | Version:  2.3.0                                 |
|   \\  /    A nd           | Web:      www.OpenFOAM.org                      |
|    \\/     M anipulation  |                                                 |
\*---------------------------------------------------------------------------*/
FoamFile
{
    version     2.0;
    format      ascii;
    class       volScalarField;
    location    "6000";
    object      p;
}
// * * * * * * * * * * * * * * * * * * * * * * * * * * * * * * * * * * * * * //

dimensions      [0 2 -2 0 0 0 0];

internalField   nonuniform List<scalar> 
765
(
-1665.68
-1674.44
-1683.34
-1693.22
-1705.05
-1719.67
-1737.01
-1755.77
-1772.83
-1783.6
-1780.81
-1767.26
-1749.3
-1731.02
-1714.81
-1701.47
-1690.62
-1681.35
-1672.71
-1663.99
-1654.72
-1644.62
-1633.55
-1621.34
-1607.75
-1592.39
-1574.63
-1553.4
-1526.96
-1492.73
-1446.68
-1385.96
-1317.12
-1234.17
-1145.68
-1106.61
-1149.06
-1238.97
-1321.85
-1390.69
-1450.96
-1496.39
-1530.14
-1556.25
-1577.25
-1594.83
-1610.05
-1623.5
-1635.58
-1646.51
-1656.49
-1500.56
-1509.23
-1518.33
-1528.19
-1539.12
-1551.17
-1564.07
-1576.78
-1587.21
-1593.57
-1591.88
-1583.93
-1572.52
-1559.7
-1547.19
-1535.67
-1525.28
-1515.85
-1507.06
-1498.58
-1490.09
-1481.34
-1472.12
-1462.26
-1451.63
-1440.01
-1427.1
-1412.44
-1395.39
-1375.32
-1350.8
-1320.5
-1286.54
-1272.25
-1281.83
-1282.14
-1283.09
-1274.13
-1289.81
-1323.84
-1353.93
-1378.16
-1398.01
-1414.89
-1429.41
-1442.21
-1453.74
-1464.29
-1474.07
-1483.25
-1491.99
-1362.56
-1369.86
-1377.63
-1385.88
-1394.62
-1403.7
-1412.73
-1420.67
-1426.17
-1429.23
-1428.39
-1424.53
-1418.05
-1409.64
-1400.56
-1391.63
-1383.11
-1375.09
-1367.56
-1360.45
-1353.68
-1347.13
-1340.67
-1334.18
-1327.61
-1320.96
-1314.27
-1307.54
-1300.97
-1293.52
-1277.32
-1262.58
-1235.97
-1207.23
-1203.76
-1203.01
-1204.13
-1208.17
-1238.33
-1264.57
-1279.81
-1295.72
-1302.88
-1309.44
-1316.13
-1322.8
-1329.42
-1335.98
-1342.48
-1348.99
-1355.63
-1239.33
-1244.48
-1249.89
-1255.48
-1261.17
-1266.84
-1272.01
-1275.77
-1277.43
-1277.93
-1277.77
-1277.01
-1274.54
-1270.18
-1264.74
-1259.04
-1253.38
-1247.84
-1242.5
-1237.45
-1232.73
-1228.38
-1224.36
-1220.62
-1217.1
-1213.75
-1210.5
-1207.16
-1203.58
-1197.99
-1178.13
-1149.86
-1136.19
-1127.71
-1120.68
-1117.21
-1121.06
-1128.08
-1136.93
-1152.42
-1180.74
-1199.97
-1205.11
-1208.68
-1211.99
-1215.25
-1218.6
-1222.14
-1225.94
-1230.05
-1234.51
-1119.48
-1122.34
-1125.27
-1128.19
-1131.1
-1133.89
-1136.15
-1137.17
-1136.61
-1135.53
-1135.82
-1136.86
-1136.83
-1135.27
-1132.73
-1129.87
-1126.93
-1123.97
-1121.02
-1118.16
-1115.48
-1113.03
-1110.84
-1108.86
-1106.98
-1105.01
-1102.71
-1099.76
-1095.89
-1091.18
-1077.09
-1049.02
-1026.69
-1022.41
-1022.27
-1021.28
-1022.36
-1022.28
-1027.19
-1052.2
-1079.12
-1092.62
-1097.21
-1101.05
-1103.95
-1106.21
-1108.15
-1110.04
-1112.05
-1114.29
-1116.77
-997.426
-998.376
-999.269
-1000.1
-1000.86
-1001.46
-1001.61
-1000.86
-999.027
-997.055
-997.59
-999.656
-1001.08
-1001.44
-1001.07
-1000.39
-999.578
-998.697
-997.743
-996.739
-995.734
-994.781
-993.899
-993.049
-992.117
-990.909
-989.182
-986.675
-983.161
-979.007
-970.011
-952.71
-933.682
-931.421
-932.805
-932.34
-932.824
-931.295
-933.785
-955.033
-971.511
-980.074
-984.206
-987.671
-990.103
-991.762
-992.919
-993.821
-994.655
-995.526
-996.46
-871.16
-870.686
-870.118
-869.475
-868.723
-867.733
-866.328
-864.265
-861.558
-859.105
-859.744
-862.445
-864.923
-866.714
-867.94
-868.831
-869.524
-870.124
-870.637
-871.045
-871.345
-871.552
-871.675
-871.692
-871.53
-871.069
-870.164
-868.681
-866.555
-864.072
-859.655
-853.362
-846.876
-846.125
-845.996
-845.51
-846.054
-846.189
-846.761
-854.393
-860.382
-864.672
-867.155
-869.254
-870.679
-871.519
-871.92
-872.029
-871.964
-871.792
-871.527
-740.465
-738.998
-737.429
-735.738
-733.844
-731.64
-728.965
-725.785
-722.397
-719.721
-720.392
-723.477
-726.838
-729.831
-732.329
-734.411
-736.216
-737.852
-739.376
-740.791
-742.08
-743.232
-744.244
-745.098
-745.755
-746.175
-746.334
-746.243
-746.025
-745.846
-745.468
-750.642
-764.914
-764.98
-761.738
-760.926
-761.925
-765.249
-764.519
-749.98
-745.261
-745.85
-746.058
-746.308
-746.384
-746.186
-745.716
-745.002
-744.093
-743.024
-741.812
-605.94
-603.72
-601.353
-598.776
-595.882
-592.569
-588.761
-584.604
-580.694
-577.926
-578.613
-581.924
-586.016
-590.068
-593.699
-596.844
-599.612
-602.103
-604.412
-606.589
-608.658
-610.631
-612.52
-614.32
-616.018
-617.634
-619.258
-621.02
-623.231
-625.89
-629.978
-647.634
-684.342
-684.245
-677.721
-676.643
-678.032
-684.676
-683.637
-644.848
-628.621
-625.187
-622.599
-620.5
-618.785
-617.169
-615.534
-613.803
-611.971
-610.052
-608.046
-468.398
-465.42
-462.241
-458.757
-454.849
-450.433
-445.547
-440.504
-436.125
-433.286
-434.008
-437.515
-442.262
-447.288
-452.011
-456.227
-459.961
-463.319
-466.416
-469.349
-472.197
-475.033
-477.927
-480.913
-484.001
-487.263
-490.865
-495.012
-500.217
-506.358
-516.879
-546.397
-598.166
-599.317
-591.632
-590.936
-592.097
-600.399
-598.754
-542.773
-514.284
-504.902
-498.864
-493.843
-489.801
-486.26
-483.027
-479.949
-476.977
-474.1
-471.267
-329.358
-325.371
-321.147
-316.542
-311.431
-305.77
-299.703
-293.693
-288.721
-285.726
-286.529
-290.361
-295.862
-301.948
-307.877
-313.318
-318.216
-322.657
-326.772
-330.705
-334.589
-338.565
-342.807
-347.414
-352.412
-357.941
-364.275
-371.703
-380.965
-391.495
-408.724
-448.29
-500.871
-505.652
-502.4
-503.114
-502.784
-507.1
-501.058
-442.212
-405.528
-389.249
-378.731
-369.719
-362.47
-356.267
-350.828
-345.891
-341.356
-337.192
-333.251
-192.56
-187.076
-181.376
-175.273
-168.624
-161.404
-153.832
-146.504
-140.562
-137.159
-138.136
-142.635
-149.26
-156.74
-164.188
-171.167
-177.572
-183.481
-189.056
-194.489
-199.972
-205.715
-211.989
-218.919
-226.507
-234.899
-244.23
-254.028
-263.909
-272.174
-292.641
-342.89
-393.998
-404.876
-412.532
-415.793
-412.443
-405.087
-393.571
-337.793
-289.975
-269.811
-261.513
-251.475
-241.65
-232.412
-224.139
-216.645
-209.832
-203.698
-198.032
-63.948
-55.9402
-47.618
-38.8314
-29.4861
-19.6281
-9.57984
-0.0797162
7.54531
11.7963
10.4945
4.73825
-3.78105
-13.5545
-23.5315
-33.1557
-42.2322
-50.7818
-58.9242
-66.8163
-74.6392
-82.7041
-91.7184
-101.911
-112.464
-122.769
-132.023
-138.046
-143.793
-143.864
-170.433
-232.763
-289.541
-319.584
-338.117
-344.278
-337.457
-318.314
-287.478
-228.059
-167.059
-143.609
-142.385
-136.229
-129.515
-119.811
-109.274
-98.5636
-88.5314
-79.8024
-71.8198
28.5688
38.2827
48.2074
58.594
69.7157
81.7381
94.4772
107.095
117.685
123.772
121.809
113.614
102.005
89.3072
76.9039
65.3318
54.6048
44.5013
34.752
25.1418
15.6381
6.45299
-2.04736
-9.22381
-14.2627
-16.4974
-16.5602
-16.9273
-26.081
-45.5189
-82.6625
-138.444
-182.686
-210.809
-228.297
-234.102
-227.531
-209.228
-180.112
-133.804
-77.5041
-41.6204
-23.1606
-15.2929
-15.4713
-15.2004
-12.4146
-6.79695
0.792458
9.58444
18.9475
71.4902
66.118
59.7921
52.4468
43.9111
34.0333
22.88
11.13
0.420023
-5.65168
-3.71066
4.85985
16.2121
27.8058
38.4222
47.6826
55.6344
62.4613
68.3158
73.2242
77.1467
80.4756
84.249
86.5197
84.6451
77.8507
64.7192
42.2152
3.50701
-56.3059
-135.721
-226.784
-309.92
-374.28
-415.943
-429.852
-413.642
-369.74
-303.279
-217.917
-125.967
-46.6886
10.9427
47.4917
68.3791
80.2552
85.8271
86.3445
83.099
79.3509
75.8477
)
;

boundaryField
{
    top
    {
        type            calculated;
        value           uniform -9.81;
    }
    bottom
    {
        type            calculated;
        value           nonuniform List<scalar> 
51
(
-1756.73
-1765.48
-1774.19
-1783.84
-1795.61
-1810.58
-1828.58
-1848.11
-1866.23
-1878.19
-1875.03
-1860.29
-1841.41
-1822.46
-1805.63
-1792.11
-1781.42
-1772.38
-1763.89
-1755.09
-1745.47
-1734.89
-1723.21
-1710.26
-1695.77
-1679.29
-1660.14
-1637.16
-1608.55
-1571.69
-1522.49
-1457.89
-1386.02
-1300.8
-1210.87
-1171.29
-1214.25
-1305.63
-1390.83
-1462.77
-1526.94
-1575.49
-1611.84
-1640.1
-1662.83
-1681.8
-1698.12
-1712.47
-1725.28
-1736.81
-1747.25
)
;
    }
    frontAndBack
    {
        type            empty;
    }
    left_cyc
    {
        type            cyclic;
    }
    right_cyc
    {
        type            cyclic;
    }
}


// ************************************************************************* //
