/*--------------------------------*- C++ -*----------------------------------*\
| =========                 |                                                 |
| \\      /  F ield         | OpenFOAM: The Open Source CFD Toolbox           |
|  \\    /   O peration     | Version:  2.3.0                                 |
|   \\  /    A nd           | Web:      www.OpenFOAM.org                      |
|    \\/     M anipulation  |                                                 |
\*---------------------------------------------------------------------------*/
FoamFile
{
    version     2.0;
    format      ascii;
    class       volScalarField;
    location    "6000";
    object      p;
}
// * * * * * * * * * * * * * * * * * * * * * * * * * * * * * * * * * * * * * //

dimensions      [0 2 -2 0 0 0 0];

internalField   nonuniform List<scalar> 
765
(
0
-13.6073
-38.5677
-73.7068
-117.382
-167.152
-219.237
-268.714
-311.721
-346.166
-367.555
-375.961
-378.045
-376.853
-370.541
-353.08
-321.053
-280.116
-231.922
-180.01
-129.242
-83.7806
-46.347
-18.7405
-2.2336
2.31364
-5.39093
-24.8769
-55.1669
-94.8743
-142.013
-193.538
-244.928
-291.597
-330.352
-359.343
-373.205
-377.733
-378.11
-374.948
-364.048
-338.643
-302.008
-257.052
-206.486
-154.527
-105.969
-64.2079
-31.4401
-9.17359
1.51195
43.6951
34.9386
19.1338
-2.73138
-29.5508
-60.0513
-93.0293
-128.198
-161.248
-184.208
-198.187
-204.608
-205.556
-205.073
-200.629
-188.332
-167.972
-137.021
-101.553
-68.007
-36.7979
-8.93955
14.2646
31.669
42.2549
45.1976
40.2135
27.7669
8.75599
-15.7723
-44.6312
-76.5097
-110.662
-145.985
-174.383
-192.316
-202.811
-205.6
-205.74
-204.075
-195.543
-179.705
-153.998
-119.457
-84.7562
-52.3056
-22.5814
3.13425
23.6106
37.7731
44.6719
134.001
127.02
114.447
97.1669
76.1637
52.414
26.8297
-0.0325164
-24.7958
-40.0829
-46.8919
-46.1512
-43.639
-45.2235
-47.3925
-42.3708
-29.5548
-6.59253
20.3161
46.2443
70.5256
92.2978
110.592
124.42
132.856
135.203
131.224
121.303
106.217
86.9181
64.395
39.6066
13.3051
-13.3405
-33.9527
-44.5546
-47.6415
-44.6253
-44.093
-47.1864
-46.0735
-37.4063
-19.41
6.5659
33.1967
58.4115
81.5842
101.772
117.993
129.275
134.779
221.635
215.758
205.207
190.852
173.744
155.033
135.987
117.97
103.426
94.3854
94.2984
103.73
110.406
106.149
96.0862
93.3227
100.753
113.957
131.421
150.33
169.242
186.852
201.989
213.571
220.67
222.642
219.29
210.942
198.331
182.433
164.355
145.295
126.576
109.864
98.0515
92.6628
98.1975
107.978
109.432
100.823
92.9711
95.897
106.368
122.118
140.551
159.655
178.096
194.641
208.164
217.648
222.287
295.345
290.683
282.397
271.336
258.516
245.01
231.918
220.377
212.102
208.886
214.196
228.674
237.59
232.065
217.261
209.151
210.821
217.964
228.899
241.711
255.215
268.302
279.895
288.955
294.577
296.143
293.475
286.875
277.051
264.955
251.641
238.19
225.716
215.523
209.613
209.852
220.675
234.597
236.448
224.573
211.523
208.956
213.578
222.892
234.948
248.262
261.714
274.213
284.695
292.173
295.861
366.513
362.895
356.554
348.306
339.119
329.987
321.879
315.699
312.446
312.978
318.638
330.663
338.879
333.66
321.118
313.797
312.226
314.589
320.146
327.86
336.827
346.091
354.663
361.558
365.911
367.131
365.05
359.952
352.518
343.657
334.364
325.619
318.361
313.5
312.079
314.839
323.945
336.057
337.833
327.2
316.431
312.32
312.786
316.885
323.635
332.096
341.345
350.408
358.288
364.04
366.914
435.664
433.091
428.685
423.171
417.395
412.209
408.396
406.62
407.332
410.734
416.811
425.326
430.99
427.357
418.749
411.977
407.933
406.55
407.749
411.113
416.028
421.734
427.392
432.146
435.228
436.101
434.608
431.016
425.935
420.169
414.58
409.987
407.125
406.539
408.607
413.312
420.785
429.012
430.255
423
414.909
409.531
406.792
406.745
409.08
413.31
418.728
424.533
429.865
433.895
435.949
503.526
502.095
499.776
497.134
494.808
493.425
493.538
495.535
499.471
505.091
511.744
518.483
522.3
519.883
513.455
506.664
500.721
496.325
493.847
493.291
494.349
496.497
499.119
501.575
503.271
503.768
502.919
500.964
498.393
495.821
493.89
493.197
494.23
497.203
502.045
508.272
515.144
521.006
521.825
516.826
509.954
503.489
498.239
494.781
493.269
493.578
495.258
497.734
500.367
502.529
503.687
569.606
569.503
569.573
570.137
571.531
574.072
578.02
583.47
590.212
597.712
605.049
611.089
614.007
612.192
606.707
599.575
592.016
585.018
579.218
574.895
572.025
570.375
569.636
569.475
569.563
569.62
569.524
569.462
569.733
570.669
572.599
575.822
580.536
586.679
593.897
601.45
608.3
613.08
613.688
609.758
603.263
595.782
588.395
581.938
576.848
573.272
571.051
569.901
569.499
569.51
569.623
632.715
634.172
637
641.196
646.709
653.466
661.374
670.24
679.665
688.969
697.167
703.157
705.754
704.16
698.887
691.128
681.992
672.517
663.464
655.292
648.24
642.413
637.885
634.717
632.925
632.458
633.256
635.399
638.92
643.788
649.936
657.287
665.718
674.934
684.41
693.302
700.538
704.993
705.523
701.954
695.302
686.719
677.299
667.961
659.301
651.669
645.216
640.025
636.166
633.682
632.559
691.083
694.306
700.216
708.435
718.473
729.82
741.982
754.462
766.702
777.95
787.25
793.619
796.224
794.636
789.121
780.452
769.586
757.506
745.022
732.733
721.14
710.732
702.018
695.497
691.584
690.518
692.335
696.959
704.096
713.3
724.064
735.884
748.272
760.718
772.576
782.981
790.935
795.519
796.045
792.424
785.232
775.346
763.765
751.403
738.957
726.949
715.876
706.235
698.539
693.258
690.731
742.496
747.585
756.733
769.171
783.976
800.191
816.908
833.308
848.668
862.165
872.894
879.992
882.822
881.101
875.002
865.089
852.183
837.196
820.977
804.268
787.848
772.609
759.498
749.457
743.307
741.603
744.502
751.737
762.669
776.432
792.073
808.656
825.305
841.283
855.824
868.054
877.068
882.1
882.669
878.72
870.638
859.129
845.084
829.395
812.856
796.174
780.211
765.89
754.169
745.946
741.932
784.497
791.361
803.581
820.036
839.421
860.4
881.697
902.185
920.931
937.011
949.521
957.666
960.884
958.928
951.951
940.445
925.158
906.978
886.829
865.638
844.465
824.565
807.262
793.881
785.606
783.291
787.224
796.938
811.472
829.589
849.955
871.258
892.27
912.002
929.53
943.935
954.352
960.092
960.74
956.243
946.938
933.452
916.621
897.356
876.584
855.241
834.52
815.718
800.174
789.162
783.731
814.37
822.681
837.392
857.106
880.247
905.224
930.524
954.781
976.814
995.545
1010
1019.37
1023.06
1020.82
1012.8
999.525
981.757
960.438
936.622
911.46
886.266
862.526
841.816
825.728
815.723
812.908
817.685
829.412
846.865
868.528
892.806
918.139
943.074
966.357
986.866
1003.57
1015.57
1022.17
1022.91
1017.75
1007.04
991.425
971.773
949.081
924.448
899.083
874.401
851.941
833.298
820.024
813.438
830.197
839.318
855.406
876.908
902.11
929.32
956.961
983.564
1007.73
1028.25
1044.07
1054.31
1058.36
1055.9
1047.13
1032.61
1013.16
989.777
963.651
936.128
908.668
882.816
860.239
842.658
831.688
828.589
833.844
846.69
865.747
889.351
915.786
943.411
970.724
996.271
1018.76
1037.04
1050.17
1057.38
1058.2
1052.54
1040.83
1023.75
1002.21
977.306
950.294
922.616
895.739
871.276
850.933
836.406
829.17
)
;

boundaryField
{
    top
    {
        type            calculated;
        value           nonuniform List<scalar> 
51
(
832.062
841.675
858.529
880.943
907.125
935.353
964.076
991.836
1017.09
1038.56
1055.14
1065.9
1070.16
1067.56
1058.35
1043.13
1022.76
998.326
971.055
942.418
913.932
887.089
863.577
845.184
833.641
830.359
835.915
849.411
869.321
893.878
921.311
949.971
978.43
1005.11
1028.62
1047.77
1061.53
1069.12
1069.98
1064.03
1051.74
1033.84
1011.31
985.296
957.121
928.391
900.51
875.08
853.851
838.612
830.973
)
;
    }
    bottom
    {
        type            calculated;
        value           nonuniform List<scalar> 
51
(
-71.5645
-85.4543
-110.91
-146.73
-191.251
-242.009
-295.178
-345.65
-389.626
-425.004
-447.229
-456.27
-458.643
-457.272
-450.398
-432.141
-399.198
-357.298
-308.115
-255.129
-203.344
-156.999
-118.841
-90.6908
-73.846
-69.1991
-77.0691
-96.9491
-127.832
-168.305
-216.364
-268.931
-321.369
-369.024
-408.735
-438.621
-453.233
-458.241
-458.678
-455.125
-443.528
-417.254
-379.673
-333.738
-282.149
-229.127
-179.615
-137.047
-103.642
-80.9295
-70.0186
)
;
    }
    frontAndBack
    {
        type            empty;
    }
    left_cyc
    {
        type            cyclic;
    }
    right_cyc
    {
        type            cyclic;
    }
}


// ************************************************************************* //
