/*--------------------------------*- C++ -*----------------------------------*\
| =========                 |                                                 |
| \\      /  F ield         | OpenFOAM: The Open Source CFD Toolbox           |
|  \\    /   O peration     | Version:  2.3.0                                 |
|   \\  /    A nd           | Web:      www.OpenFOAM.org                      |
|    \\/     M anipulation  |                                                 |
\*---------------------------------------------------------------------------*/
FoamFile
{
    version     2.0;
    format      ascii;
    class       volScalarField;
    location    "6000";
    object      p;
}
// * * * * * * * * * * * * * * * * * * * * * * * * * * * * * * * * * * * * * //

dimensions      [0 2 -2 0 0 0 0];

internalField   nonuniform List<scalar> 
3060
(
0
-3.02718
-8.70065
-16.974
-27.7988
-41.1363
-56.961
-75.2472
-95.9409
-118.927
-144.004
-170.865
-199.075
-228.049
-257.026
-285.067
-311.198
-334.513
-354.22
-369.857
-381.515
-389.614
-394.833
-397.938
-399.581
-400.186
-399.938
-398.784
-396.436
-392.362
-385.838
-376.1
-362.57
-344.938
-323.357
-298.482
-271.199
-242.514
-213.45
-184.904
-157.572
-131.981
-108.511
-87.4188
-68.8592
-52.9098
-39.6058
-28.971
-21.0349
-15.8343
-13.4044
-13.7666
-16.917
-22.8298
-31.4684
-42.7973
-56.789
-73.4193
-92.6453
-114.372
-138.422
-164.506
-192.211
-220.964
-250.025
-278.448
-305.198
-329.298
-349.902
-366.459
-378.966
-387.802
-393.615
-397.177
-399.174
-400.075
-400.106
-399.259
-397.288
-393.703
-387.809
-378.841
-366.181
-349.472
-328.763
-304.634
-277.917
-249.539
-220.478
-191.638
-163.728
-137.295
-112.735
-90.3292
-70.2533
-52.6038
-37.4241
-24.7375
-14.5725
-6.97106
-1.98242
0.349721
38.3921
35.8275
30.9973
23.9008
14.5327
2.8891
-11.0197
-27.1508
-45.4125
-65.6544
-87.6569
-111.108
-135.56
-160.4
-184.92
-208.592
-231.213
-252.24
-270.478
-284.939
-295.642
-303.086
-307.944
-310.902
-312.512
-313.123
-312.886
-311.757
-309.502
-305.681
-299.668
-290.755
-278.341
-262.047
-242.338
-220.434
-197.291
-173.218
-148.567
-124.03
-100.32
-77.9832
-57.4073
-38.8636
-22.5378
-8.54493
3.05995
12.2644
19.0774
23.5123
25.5757
25.2686
22.591
17.5412
10.11
0.283938
-11.9423
-26.5472
-43.4617
-62.5533
-83.6159
-106.352
-130.336
-154.979
-179.537
-203.383
-226.252
-247.707
-266.634
-281.918
-293.377
-301.47
-306.847
-310.207
-312.136
-313.02
-313.041
-312.192
-310.274
-306.883
-301.421
-293.189
-281.552
-266.067
-246.98
-225.442
-202.526
-178.611
-153.945
-129.135
-104.891
-81.7791
-60.2083
-40.463
-22.7433
-7.1835
6.13853
17.1902
25.9665
32.4727
36.7135
38.6877
68.5064
65.9863
61.2609
54.3737
45.396
34.4387
21.6593
7.2556
-8.556
-25.5689
-43.6048
-62.5162
-82.1829
-102.509
-123.343
-144.163
-163.793
-180.954
-195.046
-206.564
-215.682
-221.906
-225.707
-227.877
-229
-229.409
-229.239
-228.451
-226.834
-223.959
-219.133
-211.585
-201.324
-188.756
-173.368
-155.086
-134.935
-114.266
-93.9668
-74.3193
-55.4278
-37.4104
-20.4219
-4.65035
9.68648
22.3583
33.1517
41.8945
48.4642
52.7826
54.8026
54.5015
51.8829
46.9758
39.834
30.5463
19.2477
6.12262
-8.60818
-24.7152
-41.9871
-60.2447
-79.342
-99.1709
-119.608
-140.257
-160.055
-177.655
-192.251
-204.201
-213.825
-220.609
-224.852
-227.344
-228.714
-229.329
-229.354
-228.779
-227.425
-224.899
-220.546
-213.572
-203.781
-191.656
-176.781
-158.879
-138.805
-117.891
-97.163
-76.9982
-57.5185
-38.8223
-21.0371
-4.31808
11.1482
25.1501
37.4731
47.9286
56.3712
62.7013
66.856
68.7973
115.51
113.061
108.48
101.83
93.207
82.7495
70.6431
57.1173
42.4295
26.8375
10.573
-6.17816
-23.2867
-40.6776
-58.2443
-75.6163
-92.0739
-107.155
-120.495
-130.982
-138.024
-142.797
-145.509
-146.677
-147.108
-147.214
-147.14
-146.848
-146.106
-144.354
-140.734
-135.126
-126.776
-115.02
-101.019
-85.4857
-68.7458
-51.4705
-34.2723
-17.3579
-0.800408
15.2858
30.7198
45.2651
58.6506
70.5998
80.8618
89.2315
95.5561
99.7303
101.688
101.396
98.8596
94.1205
87.2543
78.3777
67.6568
55.3098
41.5969
26.7962
11.1724
-5.05067
-21.7087
-38.7034
-55.9534
-73.1675
-89.6435
-104.808
-118.334
-129.28
-136.776
-141.868
-144.945
-146.357
-146.944
-147.167
-147.2
-147.031
-146.462
-144.987
-141.736
-136.454
-128.602
-117.237
-103.379
-87.9185
-71.1564
-53.6674
-36.1264
-18.8041
-1.7802
14.8589
30.9684
46.349
60.76
73.9406
85.6386
95.6345
103.755
109.875
113.906
115.793
162.543
160.338
156.217
150.245
142.516
133.156
122.325
110.207
97.0065
82.9319
68.1872
52.9693
37.4761
21.9295
6.62932
-7.97174
-21.3729
-33.5785
-44.9708
-54.82
-61.6439
-65.1906
-66.4534
-66.5895
-66.3204
-66.1265
-66.1492
-66.3563
-66.5092
-66.013
-64.0298
-59.3057
-51.2551
-40.6888
-29.0814
-16.4902
-2.61644
12.2085
27.4378
42.6942
57.7201
72.2992
86.2223
99.2737
111.232
121.881
131.02
138.479
144.124
147.854
149.604
149.343
147.075
142.842
136.717
128.808
119.26
108.252
95.9889
82.6905
68.577
53.8621
38.755
23.4777
8.30981
-6.32556
-19.8735
-32.1636
-43.5665
-53.6381
-60.8451
-64.7515
-66.2324
-66.4948
-66.2823
-66.1125
-66.1522
-66.3876
-66.6145
-66.2602
-64.5364
-60.1948
-52.5068
-42.0904
-30.4943
-18.0172
-4.27347
10.5646
25.9657
41.523
56.9643
72.0779
86.6675
100.535
113.474
125.276
135.741
144.691
151.973
157.471
161.098
162.798
203.998
201.989
198.242
192.821
185.826
177.381
167.641
156.781
144.993
132.473
119.42
106.026
92.4894
79.0246
65.8889
53.4149
42.0043
31.9689
23.5257
16.8642
12.0347
10.0574
10.5939
12.2321
13.6042
14.1798
14.0426
13.1526
11.4947
10.0371
10.2155
13.3239
18.9371
26.3269
35.4393
46.0274
57.8407
70.4918
83.5901
96.8348
109.985
122.827
135.152
146.752
157.418
166.947
175.152
181.868
186.963
190.336
191.921
191.685
189.632
185.805
180.279
173.163
164.599
154.757
143.829
132.021
119.542
106.6
93.4044
80.1728
67.1579
54.6826
43.1547
32.9296
24.2379
17.3194
12.2248
9.92844
10.3268
11.9744
13.4749
14.1548
14.1071
13.3317
11.7852
10.3012
10.2872
13.059
18.436
25.5547
34.4351
44.8491
56.5729
69.2575
82.5083
96.0147
109.534
122.858
135.791
148.14
159.705
170.291
179.71
187.792
194.389
199.382
202.682
204.23
242.344
240.529
237.147
232.264
225.98
218.416
209.722
200.063
189.618
178.571
167.112
155.427
143.713
132.177
121.052
110.61
101.151
92.9433
86.2523
81.4689
79.0678
79.8289
83.5832
88.0446
91.4197
92.8599
92.4851
90.1589
86.0831
81.4266
78.6173
79.215
82.6934
88.3205
95.6598
104.371
114.194
124.828
135.971
147.363
158.774
169.994
180.821
191.054
200.499
208.965
216.277
222.28
226.845
229.873
231.296
231.084
229.24
225.807
220.859
214.504
206.877
198.14
188.472
178.066
167.118
155.829
144.402
133.052
122.015
111.56
101.998
93.6183
86.6832
81.5715
78.7481
79.0364
82.5865
87.2643
90.9764
92.7611
92.679
90.7133
86.9529
82.4334
79.3082
79.4233
82.5107
87.8291
94.946
103.502
113.245
123.894
135.15
146.754
158.48
170.124
181.495
192.402
202.661
212.086
220.501
227.744
233.675
238.175
241.155
242.554
278.176
276.539
273.491
269.102
263.47
256.717
248.987
240.441
231.251
221.591
211.642
201.584
191.599
181.88
172.634
164.09
156.499
150.109
145.176
142.043
141.158
143.401
149.695
157.894
164.184
167.065
166.257
161.791
154.224
146.19
141.514
140.721
142.628
146.561
152.123
159.005
166.955
175.713
185.026
194.669
204.433
214.121
223.541
232.502
240.818
248.309
254.807
260.16
264.242
266.955
268.232
268.041
266.388
263.313
258.891
253.229
246.459
238.738
230.237
221.139
211.632
201.906
192.154
182.576
173.384
164.811
157.113
150.548
145.375
141.926
140.632
142.31
148.083
156.406
163.298
166.833
166.672
162.86
155.828
147.725
142.452
141.138
142.668
146.305
151.645
158.372
166.235
174.986
184.376
194.183
204.204
214.251
224.142
233.696
242.736
251.085
258.575
265.05
270.369
274.417
277.103
278.366
312.36
310.888
308.152
304.221
299.194
293.191
286.355
278.842
270.817
262.447
253.904
245.357
236.976
228.937
221.421
214.626
208.759
204.037
200.695
199.032
199.435
202.531
209.309
219.25
228.171
232.502
231.268
224.668
214.605
205.567
200.417
198.559
199.093
201.508
205.453
210.656
216.886
223.924
231.557
239.588
247.829
256.1
264.218
272.004
279.281
285.874
291.621
296.376
300.013
302.436
303.578
303.408
301.93
299.185
295.247
290.223
284.242
277.456
270.031
262.142
253.967
245.687
237.483
229.537
222.039
215.19
209.205
204.305
200.727
198.763
198.79
201.394
207.578
217.331
226.853
232.137
231.901
226.21
216.566
207.162
201.422
199.109
199.289
201.421
205.148
210.189
216.318
223.321
230.99
239.135
247.575
256.137
264.651
272.947
280.855
288.208
294.841
300.602
305.355
308.983
311.395
312.531
345.484
344.165
341.718
338.213
333.748
328.442
322.435
315.879
308.933
301.759
294.517
287.368
280.467
273.97
268.036
262.833
258.53
255.305
253.352
252.907
254.267
257.839
264.204
273.356
282.543
287.489
286.051
278.793
268.989
260.816
255.69
253.123
252.583
253.709
256.228
259.919
264.592
270.067
276.165
282.719
289.561
296.525
303.443
310.146
316.464
322.229
327.286
331.489
334.717
336.872
337.889
337.738
336.421
333.981
330.49
326.053
320.799
314.875
308.442
301.667
294.721
287.773
280.99
274.539
268.586
263.302
258.866
255.459
253.278
252.556
253.582
256.753
262.652
271.523
281.109
287.059
286.783
280.414
270.807
262.257
256.674
253.725
252.868
253.73
256.035
259.558
264.112
269.522
275.617
282.234
289.214
296.402
303.641
310.771
317.631
324.059
329.897
334.997
339.223
342.461
344.619
345.636
377.996
376.823
374.651
371.549
367.613
362.962
357.733
352.073
346.134
340.07
334.035
328.174
322.63
317.542
313.045
309.275
306.368
304.458
303.688
304.222
306.248
309.988
315.671
323.166
330.777
335.129
333.837
327.605
319.62
312.777
307.942
304.976
303.632
303.695
304.984
307.341
310.622
314.688
319.395
324.601
330.159
335.921
341.73
347.429
352.855
357.85
362.26
365.947
368.79
370.694
371.594
371.46
370.296
368.141
365.07
361.184
356.608
351.487
345.975
340.232
334.42
328.697
323.216
318.126
313.571
309.696
306.641
304.547
303.56
303.843
305.585
309.012
314.371
321.67
329.548
334.74
334.492
328.971
321.102
314.005
308.844
305.572
303.953
303.775
304.857
307.039
310.184
314.155
318.819
324.038
329.677
335.597
341.654
347.7
353.581
359.143
364.235
368.712
372.442
375.31
377.227
378.132
410.179
409.148
407.243
404.531
401.107
397.086
392.6
387.79
382.802
377.782
372.871
368.203
363.909
360.106
356.91
354.428
352.757
351.992
352.223
353.54
356.032
359.77
364.754
370.704
376.457
379.744
378.76
374.063
367.959
362.337
357.89
354.718
352.772
351.964
352.201
353.389
355.432
358.231
361.676
365.649
370.025
374.672
379.447
384.202
388.787
393.049
396.844
400.036
402.509
404.171
404.958
404.841
403.823
401.944
399.275
395.915
391.986
387.626
382.983
378.208
373.453
368.864
364.579
360.732
357.443
354.83
352.999
352.049
352.074
353.169
355.425
358.926
363.7
369.555
375.524
379.446
379.262
375.1
369.111
363.35
358.681
355.272
353.093
352.067
352.104
353.114
355.004
357.682
361.046
364.988
369.391
374.134
379.086
384.112
389.067
393.806
398.184
402.061
405.311
407.82
409.503
410.299
442.19
441.301
439.663
437.339
434.422
431.022
427.263
423.28
419.208
415.182
411.334
407.784
404.647
402.025
400.011
398.684
398.109
398.341
399.42
401.375
404.208
407.884
412.273
417.029
421.312
423.678
422.972
419.561
414.912
410.258
406.179
402.895
400.483
398.953
398.289
398.452
399.394
401.051
403.344
406.182
409.458
413.056
416.849
420.702
424.474
428.024
431.216
433.92
436.028
437.449
438.124
438.023
437.152
435.546
433.274
430.432
427.135
423.514
419.708
415.858
412.103
408.577
405.404
402.698
400.561
399.083
398.337
398.384
399.27
401.028
403.669
407.17
411.429
416.16
420.633
423.464
423.334
420.322
415.796
411.081
406.857
403.393
400.786
399.061
398.205
398.188
398.964
400.477
402.657
405.422
408.676
412.314
416.221
420.271
424.333
428.27
431.948
435.234
438.006
440.159
441.607
442.293
474.08
473.338
471.974
470.05
467.649
464.877
461.849
458.687
455.517
452.461
449.635
447.148
445.099
443.573
442.641
442.359
442.761
443.867
445.675
448.163
451.271
454.89
458.825
462.731
465.995
467.716
467.212
464.701
461.069
457.121
453.333
449.968
447.174
445.034
443.588
442.847
442.8
443.417
444.648
446.424
448.659
451.253
454.095
457.063
460.031
462.87
465.454
467.665
469.4
470.576
471.136
471.052
470.329
469.002
467.135
464.817
462.156
459.271
456.291
453.344
450.555
448.044
445.92
444.277
443.2
442.751
442.976
443.899
445.528
447.842
450.794
454.287
458.148
462.072
465.502
467.565
467.469
465.258
461.749
457.791
453.912
450.412
447.458
445.143
443.516
442.593
442.372
442.827
443.92
445.589
447.76
450.345
453.241
456.339
459.518
462.657
465.63
468.316
470.601
472.387
473.594
474.167
505.825
505.237
504.162
502.656
500.796
498.676
496.399
494.074
491.813
489.721
487.9
486.445
485.436
484.943
485.017
485.691
486.975
488.859
491.308
494.256
497.603
501.198
504.82
508.154
510.754
512.062
511.69
509.764
506.805
503.34
499.75
496.3
493.177
490.505
488.368
486.814
485.867
485.522
485.757
486.522
487.751
489.362
491.26
493.34
495.492
497.602
499.559
501.257
502.603
503.522
503.961
503.895
503.328
502.293
500.848
499.074
497.068
494.936
492.792
490.749
488.916
487.395
486.279
485.646
485.558
486.057
487.162
488.87
491.152
493.951
497.173
500.679
504.266
507.643
510.389
511.953
511.877
510.181
507.34
503.894
500.254
496.706
493.45
490.624
488.317
486.587
485.461
484.945
485.022
485.655
486.787
488.345
490.246
492.392
494.68
497.002
499.249
501.311
503.087
504.487
505.439
505.893
537.336
536.915
536.15
535.091
533.806
532.375
530.886
529.432
528.104
526.993
526.183
525.748
525.755
526.256
527.282
528.848
530.942
533.531
536.553
539.914
543.487
547.098
550.526
553.497
555.683
556.741
556.451
554.886
552.35
549.191
545.712
542.16
538.733
535.582
532.819
530.522
528.737
527.487
526.766
526.548
526.784
527.411
528.351
529.52
530.826
532.173
533.469
534.622
535.553
536.197
536.507
536.461
536.061
535.338
534.342
533.145
531.827
530.482
529.203
528.085
527.218
526.686
526.562
526.906
527.762
529.152
531.072
533.496
536.368
539.603
543.078
546.632
550.054
553.082
555.401
556.658
556.592
555.211
552.788
549.669
546.169
542.549
539.017
535.733
532.816
530.351
528.392
526.967
526.078
525.711
525.824
526.363
527.259
528.435
529.804
531.276
532.758
534.159
535.392
536.38
537.059
537.385
568.48
568.239
567.811
567.236
566.57
565.877
565.226
564.689
564.337
564.24
564.462
565.058
566.077
567.552
569.499
571.914
574.769
578.012
581.562
585.308
589.106
592.776
596.107
598.866
600.81
601.723
601.481
600.125
597.836
594.849
591.403
587.721
583.999
580.402
577.056
574.06
571.479
569.354
567.697
566.502
565.738
565.359
565.311
565.53
565.944
566.482
567.07
567.638
568.121
568.467
568.638
568.612
568.394
568.008
567.497
566.918
566.336
565.824
565.453
565.298
565.426
565.899
566.771
568.084
569.862
572.108
574.801
577.895
581.317
584.96
588.689
592.329
595.679
598.507
600.575
601.656
601.595
600.396
598.218
595.288
591.847
588.125
584.325
580.618
577.138
573.989
571.245
568.95
567.125
565.772
564.867
564.373
564.24
564.409
564.815
565.389
566.058
566.75
567.398
567.939
568.322
568.508
599.082
599.039
598.977
598.928
598.932
599.032
599.277
599.714
600.392
601.355
602.646
604.299
606.344
608.795
611.653
614.898
618.488
622.356
626.411
630.53
634.563
638.332
641.643
644.297
646.113
646.948
646.73
645.484
643.32
640.403
636.924
633.079
629.058
625.024
621.116
617.442
614.082
611.09
608.496
606.31
604.519
603.1
602.019
601.235
600.703
600.375
600.203
600.138
600.135
600.157
600.175
600.172
600.151
600.133
600.147
600.236
600.445
600.821
601.414
602.271
603.436
604.948
606.84
609.132
611.83
614.921
618.369
622.112
626.064
630.109
634.101
637.869
641.222
643.961
645.9
646.887
646.83
645.73
643.681
640.838
637.389
633.533
629.462
625.347
621.33
617.526
614.021
610.874
608.12
605.775
603.835
602.279
601.077
600.191
599.58
599.198
598.995
598.924
598.938
598.994
599.053
599.088
628.933
629.104
629.441
629.96
630.685
631.638
632.841
634.316
636.084
638.165
640.574
643.326
646.427
649.876
653.655
657.731
662.051
666.539
671.094
675.589
679.875
683.782
687.133
689.76
691.522
692.319
692.109
690.907
688.783
685.858
682.288
678.246
673.907
669.431
664.96
660.607
656.463
652.592
649.039
645.829
642.971
640.462
638.291
636.445
634.905
633.65
632.66
631.912
631.384
631.054
630.905
630.927
631.122
631.501
632.085
632.893
633.95
635.276
636.895
638.824
641.081
643.68
646.63
649.93
653.568
657.514
661.719
666.112
670.597
675.051
679.33
683.266
686.685
689.415
691.31
692.259
692.207
691.152
689.155
686.325
682.813
678.79
674.435
669.91
665.362
660.909
656.646
652.643
648.948
645.588
642.578
639.916
637.594
635.596
633.906
632.503
631.367
630.476
629.807
629.337
629.045
628.913
657.79
658.193
658.957
660.087
661.584
663.446
665.669
668.247
671.17
674.43
678.017
681.919
686.122
690.605
695.333
700.261
705.327
710.446
715.513
720.402
724.967
729.048
732.489
735.145
736.902
737.688
737.474
736.269
734.124
731.132
727.42
723.142
718.456
713.517
708.463
703.411
698.458
693.678
689.127
684.848
680.869
677.21
673.887
670.913
668.3
666.058
664.194
662.715
661.622
660.913
660.585
660.634
661.06
661.868
663.061
664.641
666.603
668.942
671.65
674.716
678.128
681.872
685.931
690.283
694.898
699.728
704.715
709.777
714.813
719.701
724.296
728.442
731.981
734.765
736.673
737.624
737.577
736.535
734.535
731.663
728.042
723.819
719.156
714.207
709.115
704.001
698.964
694.083
689.415
685.003
680.876
677.054
673.551
670.377
667.543
665.057
662.927
661.159
659.758
658.724
658.054
657.744
685.387
686.036
687.253
689.029
691.342
694.165
697.465
701.205
705.345
709.847
714.673
719.784
725.142
730.706
736.425
742.242
748.085
753.863
759.471
764.782
769.657
773.952
777.525
780.252
782.04
782.831
782.604
781.365
779.152
776.041
772.14
767.582
762.513
757.075
751.403
745.615
739.813
734.078
728.479
723.075
717.915
713.043
708.504
704.34
700.593
697.307
694.519
692.266
690.574
689.463
688.944
689.021
689.694
690.957
692.796
695.191
698.111
701.521
705.38
709.646
714.276
719.227
724.455
729.915
735.554
741.313
747.12
752.888
758.511
763.867
768.817
773.218
776.926
779.813
781.779
782.758
782.72
781.667
779.628
776.671
772.898
768.438
763.436
758.035
752.372
746.567
740.724
734.926
729.242
723.728
718.43
713.389
708.644
704.232
700.191
696.562
693.383
690.69
688.514
686.882
685.812
685.312
711.434
712.339
714.029
716.477
719.639
723.462
727.883
732.833
738.243
744.042
750.162
756.539
763.107
769.805
776.565
783.317
789.98
796.46
802.646
808.419
813.647
818.196
821.942
824.777
826.622
827.43
827.181
825.882
823.564
820.289
816.151
811.266
805.765
799.782
793.446
786.874
780.17
773.426
766.723
760.136
753.735
747.593
741.78
736.371
731.442
727.066
723.316
720.255
717.939
716.408
715.69
715.797
716.727
718.464
720.978
724.223
728.142
732.668
737.729
743.249
749.155
755.371
761.827
768.452
775.172
781.913
788.592
795.114
801.37
807.241
812.595
817.298
821.223
824.257
826.315
827.343
827.317
826.238
824.13
821.049
817.083
812.345
806.963
801.071
794.797
788.26
781.565
774.804
768.053
761.383
754.858
748.542
742.499
736.795
731.498
726.678
722.407
718.75
715.769
713.515
712.027
711.33
735.628
736.794
738.966
742.099
746.127
750.97
756.536
762.725
769.437
776.57
784.026
791.712
799.538
807.419
815.27
823.008
830.541
837.77
844.585
850.868
856.495
861.345
865.306
868.285
870.212
871.045
870.769
869.387
866.927
863.444
859.018
853.753
847.767
841.184
834.128
826.716
819.056
811.248
803.388
795.566
787.877
780.418
773.293
766.605
760.462
754.972
750.237
746.351
743.397
741.438
740.517
740.655
741.847
744.068
747.27
751.384
756.324
761.993
768.287
775.099
782.321
789.848
797.581
805.423
813.278
821.057
828.662
835.993
842.938
849.378
855.189
860.247
864.437
867.662
869.846
870.942
870.93
869.81
867.606
864.364
860.162
855.099
849.289
842.857
835.923
828.605
821.009
813.234
805.367
797.492
789.694
782.059
774.677
767.644
761.059
755.022
749.636
744.996
741.194
738.306
736.392
735.493
757.656
759.081
761.732
765.546
770.435
776.293
783
790.427
798.444
806.919
815.726
824.744
833.855
842.953
851.935
860.702
869.153
877.182
884.677
891.523
897.602
902.803
907.024
910.182
912.214
913.082
912.772
911.286
908.65
904.913
900.147
894.446
887.917
880.677
872.845
864.54
855.874
846.958
837.901
828.811
819.808
811.015
802.564
794.59
787.232
780.628
774.912
770.206
766.617
764.232
763.109
763.276
764.73
767.433
771.32
776.299
782.257
789.069
796.599
804.709
813.262
822.121
831.158
840.251
849.282
858.144
866.727
874.922
882.611
889.678
896.004
901.472
905.98
909.437
911.778
912.96
912.964
911.791
909.462
906.021
901.537
896.098
889.808
882.783
875.138
866.989
858.445
849.612
840.591
831.479
822.381
813.408
804.675
796.306
788.43
781.178
774.68
769.064
764.445
760.927
758.59
757.491
777.204
778.879
781.991
786.46
792.178
799.014
806.824
815.451
824.737
834.524
844.658
854.991
865.383
875.703
885.832
895.653
905.056
913.925
922.146
929.603
936.184
941.784
946.308
949.679
951.839
952.752
952.402
950.793
947.949
943.915
938.76
932.569
925.444
917.496
908.843
899.605
889.903
879.857
869.592
859.235
848.927
838.82
829.071
819.844
811.306
803.625
796.96
791.462
787.262
784.466
783.148
783.344
785.05
788.217
792.765
798.578
805.52
813.439
822.171
831.549
841.405
851.579
861.913
872.26
882.481
892.45
902.044
911.142
919.624
927.37
934.263
940.195
945.066
948.797
951.324
952.608
952.63
951.391
948.912
945.235
940.423
934.559
927.739
920.073
911.672
902.653
893.131
883.218
873.029
862.678
852.288
841.993
831.935
822.263
813.134
804.704
797.134
790.575
785.17
781.046
778.302
777.01
793.967
795.873
799.411
804.485
810.97
818.714
827.547
837.29
847.762
858.779
870.165
881.749
893.37
904.874
916.124
926.991
937.347
947.071
956.042
964.142
971.262
977.297
982.157
985.769
988.075
989.039
988.645
986.898
983.821
979.459
973.878
967.16
959.404
950.72
941.226
931.047
920.311
909.154
897.713
886.136
874.585
863.233
852.264
841.864
832.226
823.542
815.998
809.765
804.999
801.822
800.324
800.547
802.486
806.084
811.243
817.83
825.687
834.635
844.488
855.053
866.139
877.559
889.133
900.69
912.072
923.133
933.738
943.752
953.048
961.503
969
975.432
980.704
984.738
987.473
988.871
988.911
987.596
984.947
981.005
975.832
969.506
962.121
953.783
944.605
934.705
924.204
913.225
901.896
890.347
878.721
867.173
855.866
844.974
834.675
825.151
816.585
809.153
803.022
798.336
795.216
793.746
807.657
809.766
813.678
819.285
826.444
834.985
844.717
855.444
866.963
879.073
891.577
904.286
917.021
929.612
941.905
953.753
965.018
975.566
985.271
994.011
1001.67
1008.15
1013.36
1017.23
1019.69
1020.7
1020.27
1018.38
1015.06
1010.36
1004.34
997.088
988.702
979.293
968.984
957.904
946.194
933.999
921.475
908.785
896.112
883.647
871.592
860.153
849.545
839.978
831.659
824.781
819.515
816.004
814.346
814.594
816.738
820.715
826.412
833.68
842.341
852.197
863.041
874.659
886.84
899.377
912.072
924.735
937.19
949.274
960.836
971.729
981.818
990.973
999.074
1006.01
1011.7
1016.05
1019
1020.51
1020.57
1019.18
1016.35
1012.13
1006.58
999.784
991.832
982.83
972.894
962.147
950.717
938.739
926.355
913.71
900.965
888.292
875.872
863.897
852.566
842.078
832.637
824.439
817.669
812.491
809.04
807.412
818.008
820.284
824.503
830.546
838.257
847.447
857.915
869.444
881.819
894.823
908.246
921.888
935.556
949.066
962.251
974.95
987.011
998.292
1008.66
1017.98
1026.14
1033.03
1038.57
1042.67
1045.28
1046.36
1045.88
1043.85
1040.3
1035.28
1028.86
1021.12
1012.16
1002.1
991.059
979.186
966.626
953.539
940.094
926.472
912.866
899.482
886.534
874.246
862.843
852.554
843.601
836.194
830.519
826.733
824.944
825.211
827.524
831.812
837.951
845.777
855.096
865.695
877.349
889.829
902.911
916.372
930.001
943.596
956.966
969.932
982.329
993.999
1004.8
1014.58
1023.24
1030.65
1036.72
1041.36
1044.52
1046.14
1046.22
1044.74
1041.74
1037.26
1031.36
1024.13
1015.66
1006.05
995.436
983.939
971.697
958.857
945.571
932.003
918.324
904.72
891.386
878.526
866.351
855.077
844.922
836.098
828.805
823.223
819.5
817.744
824.801
827.199
831.643
838.005
846.115
855.778
866.775
878.883
891.873
905.521
919.608
933.926
948.276
962.469
976.323
989.667
1002.34
1014.18
1025.06
1034.84
1043.4
1050.63
1056.43
1060.73
1063.46
1064.58
1064.06
1061.93
1058.2
1052.92
1046.17
1038.04
1028.63
1018.05
1006.45
993.97
980.764
967.005
952.875
938.566
924.282
910.233
896.642
883.74
871.763
860.952
851.539
843.746
837.773
833.784
831.9
832.181
834.619
839.134
845.596
853.828
863.624
874.76
886.998
900.101
913.833
927.964
942.274
956.556
970.608
984.241
997.275
1009.54
1020.89
1031.18
1040.27
1048.05
1054.43
1059.31
1062.63
1064.35
1064.43
1062.89
1059.75
1055.06
1048.88
1041.3
1032.41
1022.33
1011.19
999.11
986.249
972.757
958.798
944.546
930.186
915.908
901.915
888.417
875.635
863.794
853.123
843.845
836.171
830.295
826.373
824.522
827.757
830.235
834.821
841.382
849.738
859.684
870.994
883.435
896.773
910.778
925.229
939.914
954.634
969.202
983.427
997.131
1010.15
1022.32
1033.5
1043.55
1052.35
1059.78
1065.74
1070.16
1072.97
1074.12
1073.59
1071.39
1067.54
1062.11
1055.17
1046.8
1037.12
1026.24
1014.32
1001.49
987.916
973.78
959.267
944.581
929.923
915.505
901.551
888.298
875.987
864.864
855.171
847.138
840.976
836.858
834.911
835.202
837.719
842.381
849.045
857.528
867.614
879.068
891.647
905.104
919.2
933.702
948.388
963.048
977.482
991.489
1004.88
1017.49
1029.16
1039.74
1049.09
1057.1
1063.66
1068.69
1072.11
1073.88
1073.97
1072.39
1069.16
1064.33
1057.98
1050.18
1041.04
1030.69
1019.24
1006.83
993.621
979.765
965.433
950.808
936.078
921.434
907.079
893.225
880.098
867.929
856.952
847.399
839.492
833.43
829.382
827.469
)
;

boundaryField
{
    top
    {
        type            calculated;
        value           nonuniform List<scalar> 
102
(
828.025
830.536
835.18
841.821
850.274
860.33
871.759
884.327
897.796
911.934
926.519
941.338
956.194
970.902
985.267
999.107
1012.25
1024.54
1035.84
1045.99
1054.88
1062.39
1068.42
1072.88
1075.72
1076.88
1076.35
1074.12
1070.23
1064.74
1057.72
1049.26
1039.48
1028.5
1016.45
1003.49
989.776
975.497
960.84
946.015
931.218
916.663
902.574
889.188
876.748
865.505
855.702
847.575
841.336
837.164
835.191
835.486
838.037
842.758
849.505
858.087
868.286
879.862
892.571
906.162
920.394
935.033
949.858
964.659
979.237
993.385
1006.92
1019.66
1031.44
1042.13
1051.58
1059.68
1066.31
1071.39
1074.85
1076.64
1076.73
1075.13
1071.87
1066.99
1060.57
1052.69
1043.46
1033
1021.43
1008.9
995.562
981.569
967.097
952.333
937.468
922.689
908.2
894.214
880.957
868.663
857.568
847.908
839.908
833.772
829.672
827.734
)
;
    }
    bottom
    {
        type            calculated;
        value           nonuniform List<scalar> 
102
(
-38.8599
-41.8994
-47.5956
-55.9015
-66.7681
-80.1562
-96.0398
-114.393
-135.161
-158.23
-183.398
-210.357
-238.674
-267.762
-296.855
-325.016
-351.269
-374.709
-394.542
-410.302
-422.079
-430.286
-435.601
-438.782
-440.478
-441.108
-440.853
-439.663
-437.251
-433.092
-426.466
-416.614
-402.962
-385.204
-363.496
-338.495
-311.088
-282.283
-253.102
-224.444
-197.007
-171.321
-147.764
-126.595
-107.966
-91.9568
-78.6018
-67.9253
-59.9576
-54.736
-52.296
-52.6597
-55.8231
-61.7598
-70.4326
-81.8055
-95.8507
-112.543
-131.841
-153.648
-177.786
-203.968
-231.779
-260.646
-289.826
-318.37
-345.244
-369.47
-390.201
-406.883
-419.511
-428.458
-434.369
-438.011
-440.065
-440.995
-441.025
-440.145
-438.114
-434.447
-428.454
-419.374
-406.594
-389.761
-368.927
-344.673
-317.834
-289.337
-260.161
-231.209
-203.194
-176.664
-152.016
-129.529
-109.381
-91.6665
-76.43
-63.695
-53.4906
-45.8591
-40.8504
-38.5087
)
;
    }
    frontAndBack
    {
        type            empty;
    }
    left_cyc
    {
        type            cyclic;
    }
    right_cyc
    {
        type            cyclic;
    }
}


// ************************************************************************* //
