/*--------------------------------*- C++ -*----------------------------------*\
| =========                 |                                                 |
| \\      /  F ield         | OpenFOAM: The Open Source CFD Toolbox           |
|  \\    /   O peration     | Version:  2.3.0                                 |
|   \\  /    A nd           | Web:      www.OpenFOAM.org                      |
|    \\/     M anipulation  |                                                 |
\*---------------------------------------------------------------------------*/
FoamFile
{
    version     2.0;
    format      ascii;
    class       volScalarField;
    location    "6000";
    object      p_rgh;
}
// * * * * * * * * * * * * * * * * * * * * * * * * * * * * * * * * * * * * * //

dimensions      [0 2 -2 0 0 0 0];

internalField   nonuniform List<scalar> 
3060
(
-38.8599
-41.8994
-47.5956
-55.9015
-66.7681
-80.1562
-96.0398
-114.393
-135.161
-158.23
-183.398
-210.357
-238.674
-267.762
-296.855
-325.016
-351.269
-374.709
-394.542
-410.302
-422.079
-430.286
-435.601
-438.782
-440.478
-441.108
-440.853
-439.663
-437.251
-433.092
-426.466
-416.614
-402.962
-385.204
-363.496
-338.495
-311.088
-282.283
-253.102
-224.444
-197.007
-171.321
-147.764
-126.595
-107.966
-91.9568
-78.6018
-67.9253
-59.9576
-54.736
-52.296
-52.6597
-55.8231
-61.7598
-70.4326
-81.8055
-95.8507
-112.543
-131.841
-153.648
-177.786
-203.968
-231.779
-260.646
-289.826
-318.37
-345.244
-369.47
-390.201
-406.883
-419.511
-428.458
-434.369
-438.011
-440.065
-440.995
-441.025
-440.145
-438.114
-434.447
-428.454
-419.374
-406.594
-389.761
-368.927
-344.673
-317.834
-289.337
-260.161
-231.209
-203.194
-176.664
-152.016
-129.529
-109.381
-91.6665
-76.43
-63.695
-53.4906
-45.8591
-40.8504
-38.5087
-62.7834
-65.4516
-70.4723
-77.8417
-87.561
-99.6303
-114.036
-130.735
-149.633
-170.581
-193.361
-217.662
-243.04
-268.878
-294.451
-319.199
-342.923
-365.074
-384.44
-400.011
-411.775
-420.198
-425.914
-429.564
-431.656
-432.495
-432.198
-430.734
-427.904
-423.314
-416.382
-406.445
-392.936
-375.51
-354.657
-331.621
-307.368
-282.209
-256.509
-230.998
-206.393
-183.24
-161.926
-142.721
-125.81
-111.309
-99.2743
-89.7205
-82.6423
-78.0304
-75.8826
-76.2024
-78.9888
-84.2389
-91.9575
-102.154
-114.831
-129.964
-147.483
-167.256
-189.076
-212.649
-237.549
-263.186
-288.81
-313.745
-337.73
-360.322
-380.392
-396.801
-409.34
-418.434
-424.695
-428.779
-431.225
-432.375
-432.38
-431.234
-428.775
-424.644
-418.288
-409.052
-396.339
-379.736
-359.52
-336.862
-312.848
-287.866
-262.155
-236.367
-211.217
-187.274
-164.944
-144.511
-126.173
-110.064
-96.263
-84.8047
-75.6972
-68.9391
-64.53
-62.4756
-76.1947
-78.9854
-84.2085
-91.8093
-101.706
-113.779
-127.864
-143.759
-161.245
-180.118
-200.201
-221.352
-243.451
-266.403
-290.05
-313.785
-336.426
-356.663
-373.846
-388.402
-400.424
-409.332
-415.491
-419.574
-422.035
-423.079
-422.744
-421.021
-417.813
-412.82
-405.474
-395.119
-381.862
-366.192
-347.676
-326.298
-303.127
-279.529
-256.476
-234.271
-213.027
-192.863
-173.932
-156.421
-140.546
-126.54
-114.618
-104.96
-97.6955
-92.9138
-90.6728
-91.0074
-93.9108
-99.3421
-107.236
-117.496
-129.976
-144.489
-160.81
-178.709
-197.976
-218.433
-239.936
-262.374
-285.611
-309.218
-332.061
-352.771
-370.496
-385.528
-398.109
-407.636
-414.306
-418.792
-421.595
-422.955
-422.932
-421.528
-418.674
-414.108
-407.301
-397.576
-384.837
-369.653
-351.684
-330.717
-307.651
-283.84
-260.352
-237.614
-215.752
-194.868
-175.084
-156.554
-139.46
-124.015
-110.436
-98.9147
-89.6056
-82.6172
-78.0228
-75.8717
-57.2151
-60.1626
-65.6589
-73.6214
-83.9353
-96.4463
-110.956
-127.225
-144.994
-164.003
-184.025
-204.88
-226.442
-248.637
-271.344
-294.145
-316.262
-337.169
-356.393
-372.678
-385.27
-395.17
-402.392
-407.232
-410.243
-411.583
-411.19
-409.091
-405.289
-399.478
-391.044
-380.076
-366.003
-348.338
-328.396
-307.029
-284.655
-261.997
-239.756
-218.163
-197.298
-177.277
-158.278
-140.535
-124.32
-109.912
-97.5723
-87.5163
-79.9128
-74.8852
-72.5205
-72.8743
-75.9353
-81.6397
-89.892
-100.558
-113.456
-128.358
-144.996
-163.09
-182.374
-202.628
-223.69
-245.458
-267.838
-290.508
-312.68
-333.718
-353.192
-370.016
-383.157
-393.487
-401.204
-406.44
-409.787
-411.451
-411.389
-409.614
-406.157
-400.768
-392.826
-382.29
-368.807
-351.606
-331.866
-310.612
-288.246
-265.395
-242.801
-220.766
-199.38
-178.728
-158.95
-140.24
-122.836
-106.999
-92.9883
-81.0317
-71.3166
-63.9864
-59.1467
-56.8731
-26.7783
-29.7549
-35.2924
-43.2945
-53.6372
-66.1672
-80.7038
-97.0451
-114.978
-134.293
-154.788
-176.277
-198.57
-221.452
-244.613
-267.565
-289.752
-311.063
-331.709
-350.732
-366.372
-378.075
-386.515
-392.502
-396.355
-398.139
-397.654
-394.974
-390.247
-383.293
-373.653
-360.408
-343.286
-323.399
-302.485
-280.811
-258.234
-235.18
-212.253
-189.856
-168.252
-147.655
-128.269
-110.308
-93.9947
-79.5562
-67.2072
-57.1397
-49.5154
-44.4638
-42.0825
-42.4393
-45.5198
-51.2484
-59.5191
-70.1943
-83.1041
-98.0496
-114.812
-133.163
-152.883
-173.761
-195.592
-218.156
-241.163
-264.156
-286.517
-307.966
-328.703
-348.058
-364.223
-376.457
-385.318
-391.668
-395.858
-397.993
-397.876
-395.539
-391.155
-384.569
-375.382
-362.683
-346.057
-326.421
-305.59
-284.076
-261.65
-238.584
-215.457
-192.704
-170.6
-149.352
-129.145
-110.17
-92.6297
-76.7375
-62.7043
-50.7272
-40.98
-33.6086
-28.7296
-26.4321
5.40244
2.31303
-3.41918
-11.6793
-22.3241
-35.1847
-50.0707
-66.7779
-85.0974
-104.825
-125.769
-147.747
-170.582
-194.075
-217.975
-241.937
-265.502
-288.197
-309.568
-329.113
-346.388
-359.922
-369.565
-376.217
-380.685
-382.915
-382.336
-379.141
-373.892
-366.201
-355.171
-340.013
-321.632
-301.191
-279.115
-255.94
-232.127
-208.204
-184.578
-161.57
-139.417
-118.323
-98.4857
-80.1119
-63.4181
-48.6255
-35.9499
-25.5912
-17.7257
-12.5004
-10.0311
-10.4017
-13.5939
-19.5153
-28.0418
-39.0184
-52.2623
-67.5685
-84.7188
-103.492
-123.674
-145.062
-167.458
-190.654
-214.396
-238.337
-262.031
-284.963
-306.672
-326.606
-344.327
-358.41
-368.471
-375.444
-380.176
-382.756
-382.578
-379.707
-374.721
-367.373
-356.802
-342.197
-324.22
-304.172
-282.407
-259.447
-235.73
-211.746
-187.918
-164.571
-141.939
-120.212
-99.5662
-80.1854
-62.2652
-46.0116
-31.6333
-19.3318
-9.29236
-1.67761
3.37654
5.76265
38.2827
35.0411
29.042
20.4227
9.3501
-3.98521
-19.3763
-36.6094
-55.4732
-75.7674
-97.3078
-119.925
-143.456
-167.727
-192.522
-217.64
-242.668
-267.139
-290.498
-311.955
-330.529
-344.84
-354.388
-360.746
-364.972
-367.174
-366.625
-363.652
-358.735
-351.45
-340.097
-323.817
-303.787
-281.31
-257.296
-232.45
-207.297
-182.314
-157.79
-133.986
-111.109
-89.3473
-68.8862
-49.9244
-32.6746
-17.3596
-4.20367
6.57764
14.7876
20.2564
22.847
22.4577
19.1108
12.9177
4.02451
-7.39146
-21.1277
-36.9655
-54.6799
-74.05
-94.867
-116.936
-140.073
-164.087
-188.764
-213.829
-238.946
-263.628
-287.321
-309.254
-328.462
-343.528
-353.633
-360.202
-364.597
-367.037
-366.823
-364.052
-359.305
-352.291
-341.588
-326.053
-306.61
-284.577
-260.866
-236.207
-211.121
-186.067
-161.364
-137.26
-113.947
-91.5922
-70.3583
-50.4173
-31.9577
-15.1831
-0.306444
12.4594
22.911
30.8631
36.1563
38.6615
69.8804
66.4262
60.0504
50.9204
39.2371
25.2257
9.12436
-8.82861
-28.406
-49.4015
-71.6351
-94.9527
-119.219
-144.302
-170.051
-196.34
-222.784
-248.909
-274.113
-297.579
-318.238
-334.467
-344.496
-349.56
-352.549
-354.091
-353.787
-351.811
-348.385
-341.78
-329.094
-310.697
-288.587
-264.143
-238.333
-211.898
-185.4
-159.301
-133.832
-109.182
-85.5123
-62.9792
-41.7526
-22.0262
-4.01862
12.0312
25.8741
37.2632
45.9672
51.7829
54.5442
54.1289
50.5633
43.9824
34.5625
22.5151
8.07679
-8.50372
-26.9787
-47.1138
-68.6967
-91.5403
-115.48
-140.361
-166.019
-192.256
-218.782
-245.112
-270.649
-294.589
-315.895
-333.015
-343.986
-349.445
-352.449
-354.041
-353.841
-351.894
-348.525
-342.481
-330.789
-313.216
-291.702
-267.697
-242.187
-215.932
-189.493
-163.325
-137.716
-112.825
-88.7894
-65.7386
-43.8104
-23.1649
-3.9891
13.5047
29.0853
42.5134
53.553
61.9841
67.6139
70.2848
99.4853
95.7465
88.8631
79.0419
66.5311
51.6058
34.5518
15.6479
-4.84916
-26.7164
-49.7721
-73.8769
-98.9272
-124.842
-151.541
-178.944
-206.702
-234.356
-261.283
-286.634
-309.302
-327.779
-340.062
-345.583
-347.433
-348.2
-348.16
-347.316
-344.601
-336.566
-321.449
-300.915
-276.833
-250.544
-223.057
-195.14
-167.361
-140.153
-113.716
-88.1651
-63.6076
-40.166
-17.9947
2.71152
21.7165
38.7504
53.5219
65.7355
75.1093
81.3931
84.3834
83.9333
80.0741
72.9689
62.8345
49.9309
34.5452
16.9737
-2.49658
-23.6033
-46.1209
-69.8651
-94.6911
-120.483
-147.133
-174.524
-202.385
-230.252
-257.512
-283.336
-306.644
-325.979
-339.339
-345.65
-347.616
-348.243
-348.063
-347.1
-344.656
-337.559
-323.483
-303.744
-280.255
-254.4
-227.214
-199.482
-171.775
-144.517
-118.02
-92.3231
-67.5091
-43.6649
-20.9026
0.627723
20.7334
39.1819
55.7093
70.0335
81.8698
90.9486
97.0313
99.9236
126.962
122.849
115.297
104.561
90.9539
74.8188
56.5086
36.3614
14.6808
-8.28095
-32.3316
-57.3421
-83.2409
-110
-137.617
-166.032
-194.948
-223.936
-252.385
-279.45
-304.021
-324.686
-339.71
-347.859
-350.67
-351.364
-351.399
-350.399
-345.944
-334.992
-317.369
-294.78
-268.861
-240.91
-211.939
-182.705
-153.757
-125.485
-98.0696
-71.5523
-45.985
-21.4568
1.88922
23.8468
44.1484
62.475
78.473
91.7773
102.036
108.936
112.226
111.731
107.487
99.6902
88.6113
74.5751
57.9394
39.0687
18.3096
-4.03081
-27.7002
-52.5089
-78.3284
-105.08
-132.714
-161.202
-190.272
-219.5
-248.291
-275.823
-301.017
-322.49
-338.52
-347.628
-350.845
-351.44
-351.258
-350.252
-346.374
-336.442
-319.781
-297.948
-272.607
-245.088
-216.427
-187.405
-158.579
-130.338
-102.951
-76.4163
-50.7441
-25.9737
-2.19098
20.4588
41.7672
61.4672
79.2448
94.7559
107.648
117.583
124.262
127.444
152.657
148.07
139.662
127.755
112.739
95.0485
75.1241
53.3843
30.1971
5.86013
-19.4129
-45.4958
-72.3447
-99.9832
-128.479
-157.79
-187.68
-217.768
-247.478
-275.992
-302.233
-324.874
-342.42
-353.649
-358.958
-360.641
-360.433
-357.799
-350.392
-336.508
-316.614
-292.18
-264.667
-235.312
-205.097
-174.746
-144.762
-115.479
-87.0601
-59.4781
-32.7337
-6.88733
17.9202
41.4589
63.4129
83.3939
100.964
115.666
127.057
134.743
138.414
137.861
133.127
124.448
112.16
96.6727
78.435
57.9029
35.5041
11.6099
-13.4851
-39.574
-66.538
-94.3335
-122.968
-152.467
-182.589
-212.965
-243.039
-272.023
-298.867
-322.271
-340.734
-352.903
-358.826
-360.651
-360.413
-358.028
-351.354
-338.43
-319.416
-295.701
-268.752
-239.834
-209.956
-179.87
-150.096
-120.973
-92.7092
-65.2812
-38.6309
-12.7509
12.2947
36.3569
59.1993
80.5045
99.8891
116.926
131.173
142.205
149.645
153.195
177.133
171.962
162.498
149.139
132.374
112.749
90.8134
67.0887
42.0265
15.9854
-10.7856
-38.1525
-66.0912
-94.6685
-124.013
-154.102
-184.77
-215.699
-246.36
-275.979
-303.525
-327.754
-347.315
-361.074
-368.853
-371.849
-371.266
-366.695
-356.636
-340.396
-318.668
-292.756
-263.996
-233.56
-202.377
-171.124
-140.246
-110.005
-80.5344
-51.7547
-23.6234
3.81846
30.421
55.9153
79.919
101.954
121.474
137.908
150.697
159.353
163.491
162.868
157.532
147.765
133.982
116.695
96.4692
73.8748
49.443
23.6295
-3.21126
-30.8415
-59.1411
-88.0944
-117.762
-148.188
-179.198
-210.487
-241.554
-271.657
-299.801
-324.76
-345.179
-359.836
-368.343
-371.747
-371.435
-367.352
-358.088
-342.75
-321.85
-296.631
-268.434
-238.455
-207.658
-176.753
-146.209
-116.3
-87.1634
-58.7602
-30.9724
-3.75334
22.8457
48.6608
73.4137
96.7194
118.105
137.04
152.968
165.358
173.737
177.74
201.018
195.152
184.427
169.331
150.47
128.52
104.164
78.0444
50.7153
22.6126
-5.96503
-34.8626
-64.0638
-93.6669
-123.844
-154.603
-185.86
-217.363
-248.642
-278.97
-307.378
-332.689
-353.648
-369.159
-378.723
-382.751
-381.848
-375.783
-363.839
-345.953
-322.942
-296.017
-266.424
-235.264
-203.405
-171.466
-139.827
-108.675
-78.077
-47.9365
-18.1768
11.1689
39.9275
67.7742
94.2418
118.742
140.6
159.104
173.565
183.375
188.067
187.361
181.31
170.245
154.676
135.236
112.627
87.5557
60.6792
32.5573
3.62184
-25.8418
-55.6988
-85.9481
-116.689
-147.978
-179.722
-211.688
-243.438
-274.288
-303.304
-329.336
-351.127
-367.52
-377.892
-382.546
-382.187
-376.795
-365.692
-348.685
-326.477
-300.242
-271.228
-240.568
-209.17
-177.692
-146.547
-115.935
-85.9143
-56.4269
-27.3091
1.51248
29.9876
57.9237
84.9852
110.703
134.497
155.709
173.653
187.665
197.165
201.706
224.897
218.23
206.051
188.947
167.66
143.015
115.847
86.9351
56.953
26.428
-4.27771
-34.9712
-65.6305
-96.372
-127.378
-158.719
-190.392
-222.221
-253.783
-284.412
-313.202
-339.052
-360.78
-377.308
-387.937
-392.6
-391.474
-384.465
-371.391
-352.538
-328.82
-301.386
-271.397
-239.877
-207.623
-175.196
-142.908
-110.867
-79.0576
-47.3768
-15.732
15.8354
47.1136
77.703
107.035
134.393
158.955
179.853
196.243
207.383
212.712
211.912
205.037
192.477
174.845
152.915
127.547
99.603
69.8827
39.0673
7.68388
-23.9167
-55.5688
-87.2694
-119.137
-151.246
-183.59
-216.016
-248.145
-279.356
-308.79
-335.377
-357.94
-375.356
-386.859
-392.315
-391.943
-385.749
-373.559
-355.592
-332.681
-305.954
-276.586
-245.636
-213.946
-182.127
-150.528
-119.276
-88.3435
-57.6419
-26.9809
3.72394
34.4085
64.8341
94.5946
123.122
149.712
173.564
193.839
209.726
220.518
225.678
249.269
241.709
227.904
208.557
184.558
156.898
126.576
94.5228
61.5413
28.2593
-4.88549
-37.6388
-69.9586
-101.963
-133.816
-165.678
-197.624
-229.572
-261.113
-291.637
-320.333
-346.187
-368.097
-385.017
-396.158
-401.145
-399.876
-392.351
-378.72
-359.509
-335.638
-308.19
-278.239
-246.714
-214.305
-181.547
-148.697
-115.765
-82.6525
-49.2482
-15.4661
18.6258
52.7623
86.4446
118.992
149.549
177.134
200.705
219.247
231.873
237.915
237.008
229.215
214.983
195.048
170.339
141.886
110.724
77.8078
43.9503
9.78788
-24.2413
-57.9252
-91.2397
-124.299
-157.207
-190.043
-222.758
-254.992
-286.188
-315.589
-342.217
-364.981
-382.818
-394.897
-400.803
-400.442
-393.841
-381.146
-362.841
-339.801
-313.103
-283.84
-252.984
-221.275
-189.305
-157.376
-125.521
-93.6321
-61.5725
-29.1487
3.71693
36.931
70.1846
102.992
134.678
164.4
191.204
214.084
232.068
244.304
250.154
274.536
266.003
250.435
228.663
201.739
170.827
137.097
101.64
65.3902
29.0787
-6.78489
-41.8349
-76.0059
-109.391
-142.142
-174.495
-206.588
-238.382
-269.589
-299.682
-327.922
-353.385
-375.046
-391.911
-403.15
-408.226
-406.875
-399.152
-385.397
-366.254
-342.629
-315.533
-285.945
-254.703
-222.43
-189.539
-156.195
-122.351
-87.8389
-52.5361
-16.3913
20.4823
57.7645
94.8106
130.837
164.846
195.689
222.142
243.013
257.251
264.067
263.045
254.251
238.209
215.785
188.079
156.302
121.666
85.2881
48.1119
10.8894
-25.8193
-61.7505
-96.8383
-131.164
-164.87
-198.103
-230.864
-262.919
-293.804
-322.835
-349.13
-371.688
-389.511
-401.75
-407.84
-407.511
-400.8
-388.036
-369.837
-347.088
-320.808
-292.002
-261.555
-230.151
-198.26
-166.1
-133.655
-100.75
-67.1834
-32.7888
2.48624
38.5147
74.8662
110.989
146.093
179.198
209.186
234.878
255.128
268.931
275.534
301.004
291.436
274.013
249.709
219.745
185.461
148.197
109.197
69.5331
30.0571
-8.61776
-46.1061
-82.265
-117.132
-150.856
-183.726
-215.933
-247.499
-278.222
-307.668
-335.189
-359.957
-381.045
-397.519
-408.559
-413.557
-412.165
-404.469
-390.901
-372.145
-349.067
-322.591
-293.594
-262.809
-230.768
-197.782
-163.936
-129.125
-93.1256
-55.7975
-17.1466
22.6427
63.1521
103.689
143.326
180.915
215.135
244.587
267.893
283.832
291.477
290.33
280.47
262.522
237.501
206.682
171.458
133.219
93.248
52.639
12.261
-27.2654
-65.5858
-102.568
-138.238
-172.784
-206.407
-239.168
-270.925
-301.308
-329.731
-355.414
-377.461
-394.948
-407.048
-413.139
-412.856
-406.245
-393.726
-375.968
-353.833
-328.262
-300.167
-270.333
-239.356
-207.611
-175.239
-142.168
-108.177
-72.978
-36.4676
1.35338
40.2854
79.8794
119.462
158.121
194.734
228.024
256.64
279.261
294.718
302.125
328.938
318.316
299.034
272.219
239.259
201.66
160.917
118.412
75.3418
32.6649
-8.91287
-48.9381
-87.1918
-123.64
-158.434
-191.897
-224.261
-255.598
-285.783
-314.472
-341.118
-365.001
-385.297
-401.156
-411.8
-416.611
-415.201
-407.675
-394.497
-376.339
-353.999
-328.304
-300.017
-269.759
-237.963
-204.851
-170.44
-134.575
-96.9981
-57.5463
-16.3006
26.4711
70.2584
114.279
157.488
198.599
236.142
268.55
294.273
311.92
320.411
319.133
308.193
288.339
260.744
226.857
188.244
146.457
102.926
58.8758
15.2872
-27.1303
-67.9333
-106.909
-144.013
-179.481
-213.549
-246.332
-277.761
-307.56
-335.243
-360.147
-381.482
-398.422
-410.19
-416.165
-415.94
-409.567
-397.502
-380.411
-359.101
-334.423
-307.183
-278.058
-247.547
-215.938
-183.301
-149.518
-114.331
-77.408
-38.6786
1.7832
43.7023
86.5606
129.586
171.755
211.819
248.356
279.858
304.836
321.956
330.186
358.565
346.94
325.909
296.748
261
220.317
176.325
130.525
84.2123
38.4419
-5.99465
-48.5622
-88.9575
-127.062
-163.03
-197.197
-229.815
-260.999
-290.684
-318.613
-344.339
-367.256
-386.653
-401.775
-411.911
-416.47
-415.055
-407.776
-395.096
-377.64
-356.12
-331.255
-303.688
-273.929
-242.313
-208.982
-173.901
-136.884
-97.6579
-56.0412
-12.2031
33.4959
80.4518
127.789
174.357
218.757
259.393
294.555
322.539
341.793
351.088
349.687
337.721
316.075
286.077
249.335
207.566
162.46
115.571
68.2344
21.5312
-23.7358
-67.0305
-108.05
-146.669
-183.16
-217.778
-250.67
-281.829
-311.061
-337.984
-362.049
-382.585
-398.869
-410.203
-415.997
-415.84
-409.786
-398.292
-381.988
-361.605
-337.892
-311.54
-283.117
-253.024
-221.467
-188.462
-153.854
-117.367
-78.6559
-37.6731
5.42115
50.2675
96.2661
142.557
188.02
231.3
270.857
305.047
332.231
350.921
359.934
390.048
377.546
354.998
323.818
285.68
242.352
195.559
146.885
97.7031
49.14
2.06308
-42.9113
-85.3911
-125.164
-162.383
-197.369
-230.373
-261.533
-290.834
-318.092
-342.957
-364.934
-383.424
-397.779
-407.369
-411.649
-410.228
-403.22
-391.062
-374.315
-353.596
-329.508
-302.577
-273.207
-241.642
-207.963
-172.097
-133.851
-92.9629
-49.241
-2.95233
45.4467
95.2623
145.535
195.033
242.272
285.563
323.088
353.02
373.671
383.672
382.16
369.298
346.099
314.034
274.842
230.361
182.385
132.557
82.2984
32.7702
-15.139
-60.8017
-103.818
-143.992
-181.6
-216.888
-250.021
-281.034
-309.805
-336.044
-359.315
-379.064
-394.679
-405.551
-411.145
-411.064
-405.361
-394.477
-378.985
-359.527
-336.745
-311.215
-283.398
-253.601
-221.965
-188.461
-152.92
-115.068
-74.5753
-31.4176
14.151
61.6839
110.502
159.669
207.995
254.044
296.19
332.684
361.769
381.823
391.526
423.5
410.321
386.622
353.93
314.015
268.718
219.822
168.956
117.533
66.726
17.4572
-29.5872
-73.9307
-115.266
-153.731
-189.604
-223.113
-254.396
-283.469
-310.207
-334.345
-355.49
-373.151
-386.785
-395.847
-399.849
-398.416
-391.659
-379.983
-363.876
-343.855
-320.414
-293.971
-264.833
-233.171
-199.021
-162.298
-122.824
-80.376
-34.7712
13.6244
64.2643
116.378
168.944
220.68
270.054
315.325
354.613
386.009
407.723
418.27
416.672
403.118
378.743
345.128
304.11
257.604
207.463
155.379
102.822
51.0066
0.887505
-46.8267
-91.6407
-133.306
-172.055
-208.103
-241.609
-272.629
-301.093
-326.794
-349.393
-368.449
-383.457
-393.901
-399.31
-399.311
-393.953
-383.654
-368.921
-350.303
-328.337
-303.489
-276.122
-246.467
-214.609
-180.499
-143.973
-104.783
-62.6449
-17.5643
30.1114
79.8545
130.919
182.319
232.816
280.938
325.009
363.22
393.733
414.826
425.064
458.988
445.412
421.069
387.561
346.708
300.378
250.361
198.282
145.554
93.3574
42.6409
-5.86197
-51.6064
-94.1995
-133.744
-170.45
-204.495
-235.996
-264.976
-291.352
-314.924
-335.385
-352.341
-365.345
-373.936
-377.681
-376.223
-369.674
-358.401
-342.82
-323.357
-300.407
-274.295
-245.249
-213.389
-178.731
-141.197
-100.655
-56.9459
-9.92323
39.9582
92.0794
145.619
199.525
252.505
303.024
349.343
389.568
421.76
444.075
454.945
453.294
439.337
414.303
379.851
337.866
290.287
238.976
185.624
131.705
78.4484
26.8457
-22.3372
-68.5266
-111.424
-151.186
-187.973
-221.908
-253.047
-281.351
-306.672
-328.753
-347.25
-361.755
-371.841
-377.102
-377.187
-372.146
-362.365
-348.29
-330.382
-309.077
-284.75
-257.681
-228.04
-195.881
-161.154
-123.722
-83.3949
-39.9569
6.54416
55.6791
106.857
159.29
211.97
263.656
312.876
357.956
397.076
428.367
450.048
460.603
496.534
482.925
458.585
425.149
384.433
338.277
288.421
236.436
183.685
131.313
80.2566
31.262
-15.087
-58.336
-98.5308
-135.785
-170.204
-201.861
-230.768
-256.856
-279.97
-299.867
-316.233
-328.701
-336.884
-340.4
-338.908
-332.523
-321.575
-306.419
-287.402
-264.838
-238.978
-209.999
-177.993
-142.977
-104.91
-63.7226
-19.3502
28.2878
78.6731
131.146
184.872
238.813
291.711
342.084
388.246
428.352
460.49
482.813
493.717
492.057
478.068
453.04
418.66
376.807
329.387
278.211
224.915
170.926
117.443
65.4498
15.7348
-31.081
-74.6572
-115.048
-152.33
-186.57
-217.8
-245.986
-271.013
-292.686
-310.734
-324.833
-334.631
-339.777
-339.947
-335.184
-325.851
-312.334
-295.016
-274.255
-250.347
-223.513
-193.887
-161.512
-126.359
-88.3432
-47.351
-3.26668
43.8123
93.4005
144.874
197.44
250.109
301.678
350.728
395.64
434.639
465.877
487.568
498.159
536.127
522.922
499.367
467.073
427.795
383.281
335.169
284.92
233.797
182.862
132.993
84.9028
39.1718
-3.72543
-43.7537
-80.9123
-115.22
-146.687
-175.292
-200.963
-223.563
-242.893
-258.692
-270.659
-278.464
-281.768
-280.245
-274.012
-263.372
-248.627
-230.066
-207.941
-182.457
-153.763
-121.947
-87.051
-49.0875
-8.06959
35.9584
82.9757
132.445
183.713
235.982
288.276
339.427
388.059
432.598
471.309
502.366
523.981
534.567
532.952
519.381
495.161
461.95
421.56
375.804
326.381
274.815
222.431
170.345
119.485
70.6105
24.3445
-18.948
-59.1971
-96.3779
-130.485
-161.501
-189.377
-214.008
-235.232
-252.83
-266.538
-276.065
-281.105
-281.354
-276.848
-267.93
-254.937
-238.192
-217.99
-194.574
-168.128
-138.772
-106.562
-71.5102
-33.5982
7.19233
50.8576
97.2443
145.852
196.07
247.142
298.146
347.967
395.29
438.603
476.234
506.419
527.424
537.708
577.718
565.422
543.548
513.622
477.275
436.107
391.593
345.036
297.55
250.065
203.35
158.035
114.641
73.6065
35.0642
-0.865247
-34.1074
-64.6043
-92.2894
-117.068
-138.803
-157.317
-172.384
-183.748
-191.122
-194.201
-192.673
-186.656
-176.434
-162.27
-144.41
-123.069
-98.4281
-70.6278
-39.7731
-5.94481
30.7809
70.3043
112.469
157.121
203.768
251.825
300.583
349.187
396.608
441.63
482.848
518.693
547.492
567.579
577.443
575.935
563.299
540.806
510.022
472.631
430.286
384.518
336.686
287.955
239.31
191.565
145.396
101.366
59.8349
21.0077
-14.9848
-48.0553
-78.1304
-105.126
-128.928
-149.386
-166.31
-179.476
-188.633
-193.513
-193.825
-189.6
-181.162
-168.809
-152.822
-133.451
-110.908
-85.362
-56.9361
-25.7168
8.23446
44.8594
84.0767
125.755
169.688
215.417
262.395
309.959
357.298
403.437
447.212
487.272
522.105
550.091
569.61
579.195
621.225
610.39
591.176
564.956
533.177
497.23
458.379
417.72
376.174
334.5
293.311
253.103
214.278
177.169
142.013
109.037
78.3966
50.2115
24.5931
1.66358
-18.4323
-35.5214
-49.4015
-59.8444
-66.5982
-69.3864
-67.9125
-62.2969
-52.8032
-39.6677
-23.1061
-3.31262
19.5423
45.3118
73.8677
105.089
138.841
174.951
213.169
253.181
294.627
337.05
379.889
422.458
463.914
503.248
539.274
570.644
595.899
613.559
622.258
620.925
609.791
590.029
563.049
530.339
493.335
453.345
411.513
368.802
326.011
283.794
242.682
203.11
165.396
129.869
96.7521
66.206
38.3579
13.3292
-8.74828
-27.7219
-43.415
-55.6275
-64.1387
-68.7064
-69.0545
-65.2083
-57.4709
-46.1117
-31.3766
-13.4873
7.36125
31.0037
57.3021
86.1386
117.402
150.967
186.665
224.245
263.462
303.966
345.333
387.038
428.432
468.716
506.923
541.913
572.383
596.918
614.077
622.53
666.539
657.743
642.204
621.082
595.571
566.803
535.781
503.358
470.231
436.952
403.946
371.533
339.945
309.342
280.045
252.356
226.478
202.568
180.763
161.201
144.032
129.419
117.548
108.619
102.851
100.491
101.807
106.684
114.883
126.195
140.428
157.408
176.971
198.969
223.259
249.697
278.116
308.301
339.945
372.596
406.095
440.17
474.455
508.466
541.588
573.052
601.933
627.154
647.529
661.829
668.901
667.814
658.773
642.786
621.04
594.761
565.114
533.138
499.717
465.579
431.304
397.341
364.029
331.615
300.322
270.571
242.646
216.749
193.037
171.655
152.746
136.462
122.968
112.445
105.087
101.109
100.765
104.036
110.646
120.36
132.963
148.257
166.064
186.224
208.59
233.027
259.394
287.525
317.196
348.071
379.896
412.491
445.605
478.892
511.896
544.028
574.552
602.575
627.057
646.841
660.733
667.602
713.526
707.337
696.477
681.819
664.246
644.575
623.51
601.631
579.384
557.101
535.003
513.215
491.768
470.603
450.078
430.508
412.091
394.977
379.29
365.155
352.7
342.064
333.397
326.863
322.637
320.918
321.93
325.571
331.645
339.981
350.422
362.825
377.053
392.975
410.465
429.392
449.601
470.888
492.946
515.274
537.932
560.872
583.945
606.893
629.342
650.793
670.614
688.045
702.226
712.247
717.233
716.464
710.098
698.915
683.807
665.677
645.366
623.6
600.976
577.96
554.893
532.004
509.414
487.142
465.267
444.243
424.351
405.783
388.686
373.191
359.423
347.515
337.605
329.84
324.38
321.4
321.112
323.503
328.346
335.451
344.644
355.767
368.673
383.224
399.294
416.761
435.493
455.332
476.054
497.295
518.838
540.72
562.887
585.189
607.378
629.095
649.859
669.058
685.955
699.711
709.437
714.278
762.057
759.005
753.749
746.812
738.701
729.868
720.679
711.412
702.253
693.308
684.6
676.076
667.583
658.838
650.154
641.769
633.803
626.333
619.423
613.134
607.534
602.699
598.714
595.676
593.693
592.892
593.421
595.212
598.132
602.074
606.946
612.662
619.146
626.329
634.147
642.532
651.407
660.652
670.052
679.162
688.267
697.529
706.998
716.635
726.313
735.818
744.841
752.983
759.763
764.655
767.132
766.746
763.597
758.166
750.984
742.57
733.386
723.809
714.122
704.515
695.091
685.866
676.76
667.575
658.21
649.055
640.301
632.057
624.397
617.389
611.097
605.592
600.952
597.265
594.627
593.15
592.976
594.098
596.366
599.66
603.874
608.916
614.703
621.16
628.222
635.826
643.909
652.384
661.103
669.769
678.263
686.834
695.606
704.616
713.819
723.088
732.216
740.9
748.752
755.303
760.035
762.434
811.922
812.467
813.621
815.484
818.125
821.572
825.811
830.789
836.417
842.577
849.123
855.876
862.593
868.882
874.855
880.541
885.897
890.861
895.372
899.377
902.829
905.693
907.947
909.58
910.594
911.014
910.881
910.173
908.858
906.926
904.382
901.247
897.551
893.339
888.663
883.585
878.169
872.469
866.486
860.023
853.491
847.155
841.208
835.799
831.047
827.039
823.823
821.405
819.746
818.771
818.369
818.423
818.962
820.105
821.954
824.577
828
832.206
837.136
842.695
848.755
855.155
861.686
868.038
873.958
879.594
884.93
889.91
894.471
898.554
902.108
905.093
907.479
909.251
910.406
910.961
910.954
910.383
909.209
907.415
905.001
901.981
898.382
894.241
889.606
884.534
879.087
873.321
867.267
860.842
854.098
847.384
840.925
834.892
829.424
824.632
820.596
817.359
814.926
813.256
812.272
811.867
)
;

boundaryField
{
    top
    {
        type            fixedFluxPressure;
        gradient        nonuniform List<scalar> 
102
(
1554.78
1672.69
1882.18
2168.81
2517.56
2914.07
3345.5
3800.89
4271.35
4750.03
5232.32
5716.32
6204.67
6709.82
7213.33
7702.54
8169.92
8609.65
9016.48
9385.43
9711.63
9990.31
10216.9
10386.9
10496.2
10540.7
10516.5
10425.3
10271
10057.5
9788.94
9469.67
9104.38
8697.98
8255.57
7782.57
7285
6770.3
6249.86
5748.09
5252.24
4759.06
4270.59
3791.95
3330.68
2896.54
2501.34
2158.81
1883.97
1692.23
1597.92
1612.36
1733.11
1947.79
2241.63
2599.2
3005.74
3448.01
3914.69
4396.64
4886.95
5381.27
5878.88
6385.83
6905.29
7416.09
7907.83
8373.42
8807.01
9203.24
9557.06
9863.64
10118.4
10316.9
10455.1
10529.3
10535.4
10473.7
10348.3
10163.1
9922.61
9631.13
9293.35
8914.07
8498.2
8050.76
7577.13
7083.49
6578.4
6078.06
5590.78
5106.91
4625.08
4147.9
3680.57
3230.44
2806.95
2421.56
2087.54
1819.54
1632.55
1540.6
)
;
        value           nonuniform List<scalar> 
102
(
837.835
840.346
844.99
851.631
860.084
870.14
881.569
894.137
907.606
921.744
936.329
951.148
966.004
980.712
995.077
1008.92
1022.06
1034.35
1045.65
1055.8
1064.69
1072.2
1078.23
1082.69
1085.53
1086.69
1086.16
1083.93
1080.04
1074.55
1067.53
1059.07
1049.29
1038.31
1026.26
1013.3
999.586
985.307
970.65
955.825
941.028
926.473
912.384
898.998
886.558
875.315
865.512
857.385
851.146
846.974
845.001
845.296
847.847
852.568
859.315
867.897
878.096
889.672
902.381
915.972
930.204
944.843
959.668
974.469
989.047
1003.2
1016.73
1029.47
1041.25
1051.94
1061.39
1069.49
1076.12
1081.2
1084.66
1086.45
1086.54
1084.94
1081.68
1076.8
1070.38
1062.5
1053.27
1042.81
1031.24
1018.71
1005.37
991.379
976.907
962.143
947.278
932.499
918.01
904.024
890.767
878.473
867.378
857.718
849.718
843.582
839.482
837.544
)
;
    }
    bottom
    {
        type            fixedFluxPressure;
        gradient        nonuniform List<scalar> 
102
(
0
0
0
0
0
0
0
0
0
0
0
0
0
0
0
0
0
0
0
0
0
0
0
0
0
0
0
0
0
0
0
0
0
0
0
0
0
0
0
0
0
0
0
0
0
0
0
0
0
0
0
0
0
0
0
0
0
0
0
0
0
0
0
0
0
0
0
0
0
0
0
0
0
0
0
0
0
0
0
0
0
0
0
0
0
0
0
0
0
0
0
0
0
0
0
0
0
0
0
0
0
-1.65162e-14
)
;
        value           nonuniform List<scalar> 
102
(
-38.8599
-41.8994
-47.5956
-55.9015
-66.7681
-80.1562
-96.0398
-114.393
-135.161
-158.23
-183.398
-210.357
-238.674
-267.762
-296.855
-325.016
-351.269
-374.709
-394.542
-410.302
-422.079
-430.286
-435.601
-438.782
-440.478
-441.108
-440.853
-439.663
-437.251
-433.092
-426.466
-416.614
-402.962
-385.204
-363.496
-338.495
-311.088
-282.283
-253.102
-224.444
-197.007
-171.321
-147.764
-126.595
-107.966
-91.9568
-78.6018
-67.9253
-59.9576
-54.736
-52.296
-52.6597
-55.8231
-61.7598
-70.4326
-81.8055
-95.8507
-112.543
-131.841
-153.648
-177.786
-203.968
-231.779
-260.646
-289.826
-318.37
-345.244
-369.47
-390.201
-406.883
-419.511
-428.458
-434.369
-438.011
-440.065
-440.995
-441.025
-440.145
-438.114
-434.447
-428.454
-419.374
-406.594
-389.761
-368.927
-344.673
-317.834
-289.337
-260.161
-231.209
-203.194
-176.664
-152.016
-129.529
-109.381
-91.6665
-76.43
-63.695
-53.4906
-45.8591
-40.8504
-38.5087
)
;
    }
    frontAndBack
    {
        type            empty;
    }