/*--------------------------------*- C++ -*----------------------------------*\
| =========                 |                                                 |
| \\      /  F ield         | OpenFOAM: The Open Source CFD Toolbox           |
|  \\    /   O peration     | Version:  2.3.0                                 |
|   \\  /    A nd           | Web:      www.OpenFOAM.org                      |
|    \\/     M anipulation  |                                                 |
\*---------------------------------------------------------------------------*/
FoamFile
{
    version     2.0;
    format      ascii;
    class       volScalarField;
    location    "6000";
    object      p_rgh;
}
// * * * * * * * * * * * * * * * * * * * * * * * * * * * * * * * * * * * * * //

dimensions      [0 2 -2 0 0 0 0];

internalField   nonuniform List<scalar> 
765
(
-1756.73
-1765.48
-1774.19
-1783.84
-1795.61
-1810.58
-1828.58
-1848.11
-1866.23
-1878.19
-1875.03
-1860.29
-1841.41
-1822.46
-1805.63
-1792.11
-1781.42
-1772.38
-1763.89
-1755.09
-1745.47
-1734.89
-1723.21
-1710.26
-1695.77
-1679.29
-1660.14
-1637.16
-1608.55
-1571.69
-1522.49
-1457.89
-1386.02
-1300.8
-1210.87
-1171.29
-1214.25
-1305.63
-1390.83
-1462.77
-1526.94
-1575.49
-1611.84
-1640.1
-1662.83
-1681.8
-1698.12
-1712.47
-1725.28
-1736.81
-1747.25
-1726.04
-1735.58
-1744.91
-1754.83
-1766.39
-1780.66
-1797.68
-1817.87
-1839.53
-1857.89
-1852.32
-1832.01
-1810.79
-1791.87
-1776.23
-1763.27
-1752.62
-1743.2
-1734.03
-1724.43
-1713.89
-1702.01
-1688.96
-1674.65
-1658.93
-1641.48
-1621.79
-1599
-1571.82
-1538.9
-1499.63
-1457.27
-1413.13
-1390.4
-1393.88
-1391.78
-1395.27
-1392.51
-1416.73
-1461.09
-1503.35
-1542.4
-1575.02
-1601.92
-1624.51
-1644.05
-1661.38
-1676.99
-1691.16
-1704.07
-1715.75
-1682.97
-1693.58
-1703.95
-1714.56
-1726.19
-1740.05
-1758.9
-1785.08
-1818.04
-1849.87
-1839.67
-1805.85
-1775.39
-1752.28
-1735.95
-1723.18
-1712.2
-1701.93
-1691.72
-1681.14
-1669.98
-1657.9
-1644.51
-1630.02
-1614.47
-1597.84
-1580.2
-1561.39
-1541.31
-1518.81
-1485.23
-1451.68
-1406.08
-1360.16
-1343.96
-1338.14
-1344.68
-1361.73
-1409.3
-1454.67
-1488.78
-1522.02
-1544.16
-1564.19
-1582.94
-1600.52
-1617.08
-1632.53
-1646.88
-1660.02
-1671.82
-1655
-1665.96
-1676.67
-1687.1
-1697.55
-1709.54
-1728.7
-1759.55
-1804.07
-1849.7
-1834.76
-1786.78
-1747.44
-1721.65
-1705.79
-1694.66
-1684.35
-1673.92
-1663.22
-1652.3
-1641.18
-1629.9
-1618.49
-1606.78
-1594.9
-1582.8
-1569.87
-1555.14
-1537.2
-1512.76
-1468.23
-1410.15
-1364.33
-1325.64
-1296.05
-1283.78
-1297.12
-1327.26
-1366.75
-1414.66
-1472.86
-1516.63
-1540.4
-1558.12
-1572.69
-1585.52
-1597.57
-1609.44
-1621.11
-1632.55
-1643.85
-1653.82
-1663.6
-1673.08
-1681.63
-1689.15
-1698.07
-1714.41
-1747
-1800.9
-1857.54
-1838.87
-1779.11
-1733.2
-1707.67
-1694.75
-1686.81
-1678.9
-1669.9
-1660.22
-1650.44
-1640.99
-1632.09
-1623.77
-1615.88
-1608.03
-1599.43
-1588.69
-1573.82
-1552.27
-1521.53
-1471.04
-1397.34
-1324.76
-1272.67
-1236.79
-1222.15
-1237.98
-1274.58
-1328.07
-1403.82
-1476.52
-1526.15
-1556.34
-1577.44
-1591.93
-1602.41
-1610.9
-1618.75
-1626.72
-1635.19
-1644.25
-1673.37
-1681.22
-1688.29
-1693.53
-1696.86
-1701.01
-1713.26
-1746.44
-1807.24
-1870.47
-1849.67
-1782.01
-1731.48
-1707.51
-1699.4
-1695.69
-1691.62
-1685.44
-1677.81
-1669.78
-1662.18
-1655.45
-1649.67
-1644.52
-1639.26
-1632.53
-1622.24
-1605.55
-1579.01
-1539.57
-1480.33
-1398.66
-1307.43
-1236
-1185.67
-1165.69
-1187.27
-1238.89
-1311.74
-1405.95
-1487.02
-1545.4
-1584.14
-1609.93
-1625.97
-1635.81
-1642.31
-1647.54
-1652.79
-1658.77
-1665.69
-1703.16
-1708.63
-1712.44
-1713.68
-1713.27
-1713.1
-1724.12
-1758.2
-1820.12
-1883.77
-1862.42
-1794.09
-1742.47
-1718.34
-1712.62
-1713.28
-1713.23
-1710.77
-1705.99
-1699.99
-1693.88
-1688.4
-1683.85
-1679.96
-1675.83
-1669.73
-1658.93
-1639.79
-1608.18
-1560.24
-1490.89
-1400.15
-1297.29
-1203.59
-1133.66
-1106.87
-1135.82
-1207.74
-1302.97
-1408.02
-1498.7
-1567.35
-1614.36
-1644.94
-1663.13
-1673.25
-1678.98
-1683
-1686.96
-1691.66
-1697.2
-1734.96
-1737.57
-1738.16
-1736.94
-1735.11
-1735.68
-1747.04
-1778.87
-1835.27
-1894.55
-1873.59
-1811.12
-1764.1
-1741.2
-1734.94
-1736.01
-1737.36
-1737.87
-1736.29
-1732.85
-1728.33
-1723.58
-1719.1
-1714.89
-1710.16
-1703.01
-1690.24
-1667.62
-1630.63
-1574.72
-1495.01
-1395.92
-1289.17
-1171.59
-1079.18
-1044.28
-1081.99
-1177.13
-1296.32
-1404.12
-1503.83
-1583.06
-1637.88
-1673.6
-1694.98
-1706.81
-1713.41
-1717.91
-1722.04
-1726.45
-1730.97
-1763.81
-1765.2
-1765.4
-1764.53
-1763.44
-1765.67
-1776.82
-1804.02
-1850.92
-1902
-1882.51
-1830.27
-1791.29
-1771.25
-1764.3
-1763.8
-1765.06
-1765.4
-1764.6
-1762.53
-1759.23
-1754.98
-1750.03
-1744.27
-1736.94
-1726.23
-1709.02
-1681.18
-1638.44
-1575.74
-1487.63
-1382.03
-1273.72
-1132.62
-1017.87
-974.342
-1021.47
-1139.59
-1282.4
-1390.28
-1497.32
-1585.17
-1646.69
-1688.09
-1714.54
-1730.6
-1740.53
-1747.35
-1752.74
-1757.33
-1761.1
-1787.53
-1790.45
-1792.15
-1793.09
-1794.29
-1798.02
-1808.05
-1829.42
-1865.23
-1905.66
-1888.69
-1848.74
-1819.14
-1803
-1796.01
-1793.59
-1792.64
-1791.43
-1789.25
-1785.84
-1781.23
-1775.44
-1768.35
-1759.52
-1747.9
-1731.55
-1707.55
-1672.3
-1622.47
-1552.91
-1458.49
-1347.47
-1234.66
-1076.02
-943.889
-892.971
-948.325
-1084.84
-1246.35
-1357.22
-1469.16
-1563.54
-1631.97
-1680.57
-1714.37
-1737.02
-1752.32
-1763.18
-1771.45
-1778.06
-1783.39
-1791.87
-1799.61
-1806.19
-1811.81
-1817.05
-1823.23
-1832.76
-1848.99
-1874.45
-1903.59
-1889.95
-1861.9
-1840.77
-1827.86
-1820.12
-1814.58
-1809.34
-1803.44
-1796.5
-1788.38
-1779.04
-1768.43
-1756.22
-1741.58
-1723.27
-1699.27
-1666.93
-1623.43
-1566.8
-1491.49
-1391.42
-1277.54
-1155.71
-990.584
-852.399
-797.015
-857.389
-1000.74
-1168.29
-1286.66
-1403.6
-1503.3
-1577.6
-1633.37
-1675.59
-1706.56
-1729.41
-1746.85
-1760.89
-1772.61
-1782.88
-1742.57
-1759.63
-1775.32
-1789.72
-1803
-1815.62
-1828.68
-1843.98
-1863.18
-1883.22
-1872.96
-1853.17
-1836.17
-1822.32
-1809.83
-1797.23
-1783.73
-1769.05
-1753.1
-1735.77
-1716.93
-1696.6
-1675.2
-1651.9
-1625.02
-1592.74
-1552.7
-1501.67
-1437.09
-1352.3
-1249.64
-1145.56
-1026.04
-869.303
-740.886
-685.954
-745.829
-878.668
-1038.23
-1155.63
-1263.08
-1365.44
-1449.63
-1513.37
-1563.22
-1602.11
-1633.42
-1659.58
-1682.41
-1703.86
-1724
-1565.2
-1593.81
-1620.69
-1646.14
-1670.33
-1693.28
-1715.09
-1736.01
-1756.09
-1772.28
-1764.28
-1746.18
-1726.17
-1705.33
-1683.45
-1660.37
-1636.06
-1610.48
-1583.44
-1554.6
-1523.66
-1490.89
-1457.63
-1425.41
-1391.81
-1353.85
-1309.33
-1253.6
-1185.79
-1095.7
-1009.74
-935.941
-842.384
-723.35
-618.764
-571.005
-623.035
-730.764
-851.997
-945.094
-1021.34
-1110.69
-1199.41
-1266.3
-1320.76
-1364.37
-1401.79
-1434.86
-1467.89
-1501.69
-1534.5
-1169.38
-1202.93
-1235.05
-1265.79
-1294.95
-1322.11
-1346.82
-1368.65
-1387.09
-1399.14
-1393.87
-1378.66
-1359.1
-1336.43
-1311.05
-1283.41
-1253.98
-1223.13
-1190.97
-1157.37
-1122.02
-1084.84
-1046.36
-1006.91
-966.97
-925.905
-880.372
-831.194
-783.619
-734.863
-688.626
-645.695
-581.493
-501.354
-427.936
-393.073
-431.096
-506.516
-587.866
-651.664
-695.054
-742.889
-792.502
-841.167
-890.771
-936.004
-977.384
-1018.22
-1058.1
-1096.89
-1134.12
-443.244
-474.62
-506.733
-539.69
-573.505
-607.904
-642.052
-674.09
-700.685
-715.649
-710.527
-689.802
-660.721
-627.828
-593.76
-559.881
-526.763
-494.538
-463.132
-432.441
-402.436
-372.957
-343.561
-316.407
-294.101
-277.516
-269.411
-271.031
-287.475
-321.89
-371.232
-426.736
-469.506
-491.475
-495.694
-492.203
-495.146
-489.816
-466.517
-422.04
-365.951
-316.898
-284.761
-270.686
-271.152
-281.427
-299.736
-323.924
-352.584
-382.519
-412.561
)
;

boundaryField
{
    top
    {
        type            fixedValue;
        value           uniform 0;
    }
    bottom
    {
        type            fixedFluxPressure;
        gradient        uniform 0;
        value           nonuniform List<scalar> 
51
(
-1756.73
-1765.48
-1774.19
-1783.84
-1795.61
-1810.58
-1828.58
-1848.11
-1866.23
-1878.19
-1875.03
-1860.29
-1841.41
-1822.46
-1805.63
-1792.11
-1781.42
-1772.38
-1763.89
-1755.09
-1745.47
-1734.89
-1723.21
-1710.26
-1695.77
-1679.29
-1660.14
-1637.16
-1608.55
-1571.69
-1522.49
-1457.89
-1386.02
-1300.8
-1210.87
-1171.29
-1214.25
-1305.63
-1390.83
-1462.77
-1526.94
-1575.49
-1611.84
-1640.1
-1662.83
-1681.8
-1698.12
-1712.47
-1725.28
-1736.81
-1747.25
)
;
    }
    frontAndBack
    {
        type            empty;
    }
    left_cyc
    {
        type            cyclic;
    }
    right_cyc
    {
        type            cyclic;
    }
}


// ************************************************************************* //
