/*--------------------------------*- C++ -*----------------------------------*\
| =========                 |                                                 |
| \\      /  F ield         | OpenFOAM: The Open Source CFD Toolbox           |
|  \\    /   O peration     | Version:  2.3.0                                 |
|   \\  /    A nd           | Web:      www.OpenFOAM.org                      |
|    \\/     M anipulation  |                                                 |
\*---------------------------------------------------------------------------*/
FoamFile
{
    version     2.0;
    format      ascii;
    class       surfaceScalarField;
    location    "6000";
    object      phi;
}
// * * * * * * * * * * * * * * * * * * * * * * * * * * * * * * * * * * * * * //

dimensions      [0 3 -1 0 0 0 0];

internalField   nonuniform List<scalar> 
5988
(
3.58105e-08
-3.1672e-08
6.69487e-08
-3.11382e-08
9.71021e-08
-3.01534e-08
1.25852e-07
-2.87498e-08
1.52821e-07
-2.6969e-08
1.77682e-07
-2.48611e-08
2.00163e-07
-2.24806e-08
2.20043e-07
-1.988e-08
2.37139e-07
-1.70965e-08
2.51272e-07
-1.41324e-08
2.62208e-07
-1.09367e-08
2.69608e-07
-7.39941e-09
2.72975e-07
-3.36766e-09
2.71666e-07
1.30885e-09
2.64977e-07
6.68943e-09
2.52369e-07
1.26077e-08
2.33754e-07
1.86149e-08
2.09659e-07
2.40949e-08
1.81352e-07
2.83074e-08
1.50748e-07
3.06039e-08
1.19845e-07
3.09027e-08
9.03794e-08
2.94661e-08
6.34084e-08
2.6971e-08
3.90956e-08
2.43128e-08
1.6839e-08
2.22567e-08
-4.42159e-09
2.12606e-08
-2.59228e-08
2.15012e-08
-4.88545e-08
2.29317e-08
-7.41215e-08
2.5267e-08
-1.02035e-07
2.79139e-08
-1.32044e-07
3.00081e-08
-1.62737e-07
3.0694e-08
-1.92208e-07
2.9471e-08
-2.18392e-07
2.61836e-08
-2.39577e-07
2.11853e-08
-2.54789e-07
1.52116e-08
-2.6375e-07
8.96074e-09
-2.66792e-07
3.04187e-09
-2.64587e-07
-2.20479e-09
-2.57849e-07
-6.73764e-09
-2.47175e-07
-1.06741e-08
-2.33006e-07
-1.41694e-08
-2.15657e-07
-1.7349e-08
-1.95375e-07
-2.02819e-08
-1.72394e-07
-2.29808e-08
-1.46976e-07
-2.54179e-08
-1.1943e-07
-2.75458e-08
-9.01169e-08
-2.93133e-08
-5.94445e-08
-3.06724e-08
-2.78612e-08
-3.15833e-08
4.15418e-09
-3.20154e-08
3.61048e-08
-3.19506e-08
6.7497e-08
-3.13922e-08
9.7859e-08
-3.0362e-08
1.26752e-07
-2.88929e-08
1.53779e-07
-2.70274e-08
1.78594e-07
-2.48144e-08
2.00899e-07
-2.23055e-08
2.20444e-07
-1.95445e-08
2.36994e-07
-1.65508e-08
2.50293e-07
-1.32983e-08
2.59995e-07
-9.70228e-09
2.65621e-07
-5.62579e-09
2.66536e-07
-9.14694e-10
2.62015e-07
4.52065e-09
2.51444e-07
1.0571e-08
2.3463e-07
1.6814e-08
2.12023e-07
2.26072e-08
1.84795e-07
2.72277e-08
1.5481e-07
2.99853e-08
1.24118e-07
3.06914e-08
9.45486e-08
2.95697e-08
6.73068e-08
2.72418e-08
4.2706e-08
2.46007e-08
2.02494e-08
2.24566e-08
-1.06962e-09
2.1319e-08
-2.24746e-08
2.1405e-08
-4.5178e-08
2.27034e-08
-7.01508e-08
2.49727e-08
-9.78232e-08
2.76724e-08
-1.27798e-07
2.99746e-08
-1.58806e-07
3.10082e-08
-1.89015e-07
3.02087e-08
-2.16394e-07
2.73791e-08
-2.39156e-07
2.27618e-08
-2.56234e-07
1.70787e-08
-2.67271e-07
1.10369e-08
-2.72498e-07
5.227e-09
-2.72523e-07
2.48965e-11
-2.6805e-07
-4.47347e-09
-2.59688e-07
-8.36122e-09
-2.47892e-07
-1.17964e-08
-2.32968e-07
-1.49237e-08
-2.1513e-07
-1.78384e-08
-1.94553e-07
-2.05763e-08
-1.71429e-07
-2.31241e-08
-1.4599e-07
-2.5439e-08
-1.18524e-07
-2.74668e-08
-8.93698e-08
-2.91538e-08
-5.89178e-08
-3.0452e-08
-2.75958e-08
-3.13219e-08
-3.17343e-08
5.40112e-08
-7.94519e-08
1.01412e-07
-7.85386e-08
1.48112e-07
-7.68543e-08
1.93822e-07
-7.44596e-08
2.38279e-07
-7.14254e-08
2.8123e-07
-6.78121e-08
3.22395e-07
-6.3646e-08
3.61414e-07
-5.88987e-08
3.97794e-07
-5.34768e-08
4.30883e-07
-4.72213e-08
4.59856e-07
-3.99098e-08
4.83712e-07
-3.12553e-08
5.01254e-07
-2.09098e-08
5.1106e-07
-8.49718e-09
5.11496e-07
6.25308e-09
5.00918e-07
2.31865e-08
4.78069e-07
4.14638e-08
4.42517e-07
5.96465e-08
3.95265e-07
7.55592e-08
3.39177e-07
8.66918e-08
2.78061e-07
9.20191e-08
2.15736e-07
9.1791e-08
1.55116e-07
8.75908e-08
9.75286e-08
8.19005e-08
4.27178e-08
7.70675e-08
-1.06324e-08
7.46108e-08
-6.42837e-08
7.51525e-08
-1.19879e-07
7.85272e-08
-1.78365e-07
8.37524e-08
-2.39371e-07
8.892e-08
-3.00839e-07
9.1476e-08
-3.59327e-07
8.91827e-08
-4.10886e-07
8.10293e-08
-4.51907e-07
6.72053e-08
-4.80319e-07
4.95967e-08
-4.95852e-07
3.07448e-08
-4.99398e-07
1.25069e-08
-4.92488e-07
-3.86826e-09
-4.76853e-07
-1.78398e-08
-4.54086e-07
-2.95052e-08
-4.25546e-07
-3.92133e-08
-3.92386e-07
-4.73295e-08
-3.55563e-07
-5.4172e-08
-3.15848e-07
-5.99966e-08
-2.73834e-07
-6.4995e-08
-2.29961e-07
-6.92909e-08
-1.84568e-07
-7.29394e-08
-1.37946e-07
-7.5935e-08
-9.03861e-08
-7.82322e-08
-4.21987e-08
-7.97708e-08
6.28518e-09
-8.04992e-08
5.47249e-08
-8.03904e-08
1.02781e-07
-7.94483e-08
1.50127e-07
-7.77077e-08
1.96458e-07
-7.5224e-08
2.41487e-07
-7.20562e-08
2.84914e-07
-6.82417e-08
3.2638e-07
-6.37718e-08
3.6541e-07
-5.8574e-08
4.01365e-07
-5.25065e-08
4.33428e-07
-4.53608e-08
4.6059e-07
-3.68645e-08
4.81649e-07
-2.66848e-08
4.95186e-07
-1.44514e-08
4.99553e-07
1.53658e-10
4.93026e-07
1.70982e-08
4.74201e-07
3.56389e-08
4.42428e-07
5.43801e-08
3.98389e-07
7.12664e-08
3.44657e-07
8.3718e-08
2.85012e-07
9.0336e-08
2.23375e-07
9.12062e-08
1.62896e-07
8.77215e-08
1.05189e-07
8.23079e-08
5.02283e-08
7.7417e-08
-3.17325e-09
7.47206e-08
-5.67441e-08
7.49758e-08
-1.12184e-07
7.81434e-08
-1.70594e-07
8.3383e-08
-2.31857e-07
8.89346e-08
-2.94199e-07
9.23167e-08
-3.54388e-07
9.11976e-08
-4.08536e-07
8.43562e-08
-4.52951e-07
7.17942e-08
-4.85227e-07
5.50383e-08
-5.04803e-07
3.6655e-08
-5.12374e-07
1.86077e-08
-5.09335e-07
2.18828e-09
-4.97366e-07
-1.19444e-08
-4.78055e-07
-2.37844e-08
-4.52761e-07
-3.36549e-08
-4.22628e-07
-4.19296e-08
-3.8861e-07
-4.89419e-08
-3.51487e-07
-5.49619e-08
-3.11867e-07
-6.01957e-08
-2.70206e-07
-6.47854e-08
-2.26838e-07
-6.88073e-08
-1.8203e-07
-7.2274e-08
-1.36036e-07
-7.51482e-08
-8.91235e-08
-7.73646e-08
-4.15925e-08
-7.88529e-08
-7.95581e-08
6.058e-08
-1.33041e-07
1.13684e-07
-1.31642e-07
1.65877e-07
-1.29047e-07
2.16737e-07
-1.2532e-07
2.65844e-07
-1.20532e-07
3.12764e-07
-1.14732e-07
3.57047e-07
-1.07929e-07
3.98215e-07
-1.00067e-07
4.35766e-07
-9.10277e-08
4.69183e-07
-8.06381e-08
4.97955e-07
-6.8682e-08
5.21611e-07
-5.49113e-08
5.39758e-07
-3.90567e-08
5.52101e-07
-2.08402e-08
5.5831e-07
4.34669e-11
5.57489e-07
2.4008e-08
5.47476e-07
5.14766e-08
5.25134e-07
8.19883e-08
4.87677e-07
1.13016e-07
4.34239e-07
1.4013e-07
3.67279e-07
1.58979e-07
2.92188e-07
1.66882e-07
2.14219e-07
1.6556e-07
1.36667e-07
1.59452e-07
6.06162e-08
1.53118e-07
-1.44131e-08
1.4964e-07
-8.95654e-08
1.50305e-07
-1.65812e-07
1.54774e-07
-2.43092e-07
1.61033e-07
-3.19445e-07
1.65272e-07
-3.90642e-07
1.62673e-07
-4.51027e-07
1.49568e-07
-4.96177e-07
1.26179e-07
-5.25205e-07
9.62334e-08
-5.40055e-07
6.44469e-08
-5.43923e-07
3.46125e-08
-5.3966e-07
8.24422e-09
-5.28772e-07
-1.47561e-08
-5.11773e-07
-3.48396e-08
-4.88947e-07
-5.23305e-08
-4.6067e-07
-6.74906e-08
-4.27419e-07
-8.05806e-08
-3.89736e-07
-9.18552e-08
-3.48185e-07
-1.01548e-07
-3.03323e-07
-1.09856e-07
-2.55687e-07
-1.16927e-07
-2.05783e-07
-1.22843e-07
-1.54095e-07
-1.27623e-07
-1.0109e-07
-1.31238e-07
-4.7227e-08
-1.33634e-07
7.03538e-09
-1.34762e-07
6.12383e-08
-1.34593e-07
1.14923e-07
-1.33133e-07
1.67632e-07
-1.30416e-07
2.18903e-07
-1.26495e-07
2.68266e-07
-1.2142e-07
3.15233e-07
-1.15209e-07
3.5929e-07
-1.07828e-07
3.99893e-07
-9.91772e-08
4.36481e-07
-8.9095e-08
4.68494e-07
-7.73729e-08
4.954e-07
-6.37707e-08
5.16745e-07
-4.80304e-08
5.32186e-07
-2.98921e-08
5.41427e-07
-9.08715e-09
5.43783e-07
1.47419e-08
5.37382e-07
4.20404e-08
5.1914e-07
7.26215e-08
4.86029e-07
1.04377e-07
4.36695e-07
1.33052e-07
3.72959e-07
1.54072e-07
2.99909e-07
1.64257e-07
2.22999e-07
1.64631e-07
1.45888e-07
1.59419e-07
6.9978e-08
1.53327e-07
-5.02825e-09
1.49727e-07
-8.02274e-08
1.50175e-07
-1.56672e-07
1.54588e-07
-2.34521e-07
1.61232e-07
-3.12154e-07
1.66567e-07
-3.85688e-07
1.65851e-07
-4.49578e-07
1.55087e-07
-4.98946e-07
1.33725e-07
-5.32285e-07
1.05132e-07
-5.51111e-07
7.38643e-08
-5.58451e-07
4.39954e-08
-5.57297e-07
1.74531e-08
-5.49447e-07
-5.66133e-09
-5.35573e-07
-2.58185e-08
-5.15962e-07
-4.3395e-08
-4.90934e-07
-5.86827e-08
-4.60907e-07
-7.19574e-08
-4.26364e-07
-8.34842e-08
-3.87823e-07
-9.35037e-08
-3.45796e-07
-1.02222e-07
-3.00782e-07
-1.098e-07
-2.53249e-07
-1.1634e-07
-2.03645e-07
-1.21878e-07
-1.52397e-07
-1.26397e-07
-9.99257e-08
-1.29835e-07
-4.66543e-08
-1.32124e-07
-1.33203e-07
6.34604e-08
-1.89175e-07
1.18975e-07
-1.87157e-07
1.73326e-07
-1.83398e-07
2.25974e-07
-1.77968e-07
2.76386e-07
-1.70944e-07
3.24034e-07
-1.6238e-07
3.68401e-07
-1.52297e-07
4.08991e-07
-1.40657e-07
4.45333e-07
-1.2737e-07
4.76994e-07
-1.12299e-07
5.03588e-07
-9.52759e-08
5.24786e-07
-7.61086e-08
5.40318e-07
-5.45884e-08
5.49956e-07
-3.04782e-08
5.53462e-07
-3.46331e-09
5.50559e-07
2.69116e-08
5.4096e-07
6.10751e-08
5.24125e-07
9.88231e-08
4.98102e-07
1.3904e-07
4.58675e-07
1.79556e-07
4.02275e-07
2.15379e-07
3.2982e-07
2.39337e-07
2.4705e-07
2.4833e-07
1.59937e-07
2.46566e-07
7.17825e-08
2.41273e-07
-1.63355e-08
2.37758e-07
-1.04275e-07
2.38245e-07
-1.91665e-07
2.42164e-07
-2.76686e-07
2.46053e-07
-3.54899e-07
2.43486e-07
-4.19861e-07
2.27634e-07
-4.67568e-07
1.97276e-07
-4.99347e-07
1.57957e-07
-5.19632e-07
1.16519e-07
-5.31709e-07
7.6524e-08
-5.36704e-07
3.96069e-08
-5.34963e-07
6.50329e-09
-5.26774e-07
-2.2945e-08
-5.12403e-07
-4.92105e-08
-4.92089e-07
-7.26442e-08
-4.66099e-07
-9.3481e-08
-4.34762e-07
-1.11917e-07
-3.9848e-07
-1.28137e-07
-3.57713e-07
-1.42315e-07
-3.12971e-07
-1.54599e-07
-2.64796e-07
-1.65101e-07
-2.13759e-07
-1.73881e-07
-1.60438e-07
-1.80943e-07
-1.05421e-07
-1.86255e-07
-4.92963e-08
-1.89759e-07
7.34536e-09
-1.91403e-07
6.391e-08
-1.91158e-07
1.19805e-07
-1.89028e-07
1.74439e-07
-1.8505e-07
2.27224e-07
-1.7928e-07
2.77575e-07
-1.71771e-07
3.24914e-07
-1.62548e-07
3.68678e-07
-1.51592e-07
4.08329e-07
-1.38829e-07
4.43371e-07
-1.24137e-07
4.73358e-07
-1.07359e-07
4.97905e-07
-8.8318e-08
5.16701e-07
-6.68262e-08
5.29491e-07
-4.26822e-08
5.36034e-07
-1.56301e-08
5.36054e-07
1.47217e-08
5.29265e-07
4.88298e-08
5.1523e-07
8.66557e-08
4.92385e-07
1.27223e-07
4.56847e-07
1.6859e-07
4.04586e-07
2.06333e-07
3.35599e-07
2.33244e-07
2.55035e-07
2.45195e-07
1.69092e-07
2.45362e-07
8.14663e-08
2.40953e-07
-6.52691e-09
2.3772e-07
-9.46862e-08
2.38334e-07
-1.82742e-07
2.42643e-07
-2.69161e-07
2.47651e-07
-3.49906e-07
2.47312e-07
-4.18595e-07
2.3454e-07
-4.70449e-07
2.06942e-07
-5.05935e-07
1.6921e-07
-5.29245e-07
1.28443e-07
-5.44096e-07
8.87159e-08
-5.51926e-07
5.18248e-08
-5.53137e-07
1.86642e-08
-5.48012e-07
-1.07861e-08
-5.36822e-07
-3.70092e-08
-5.19794e-07
-6.04222e-08
-4.97166e-07
-8.13114e-08
-4.6922e-07
-9.99033e-08
-4.36302e-07
-1.16402e-07
-3.98811e-07
-1.30994e-07
-3.57191e-07
-1.43842e-07
-3.11921e-07
-1.55071e-07
-2.63503e-07
-1.64757e-07
-2.12457e-07
-1.72924e-07
-1.59314e-07
-1.7954e-07
-1.04608e-07
-1.84541e-07
-4.88796e-08
-1.87853e-07
-1.89409e-07
6.41171e-08
-2.45888e-07
1.20108e-07
-2.43148e-07
1.74748e-07
-2.38037e-07
2.27417e-07
-2.30638e-07
2.77515e-07
-2.21041e-07
3.24464e-07
-2.0933e-07
3.67721e-07
-1.95554e-07
4.06783e-07
-1.79719e-07
4.41198e-07
-1.61784e-07
4.70566e-07
-1.41667e-07
4.94541e-07
-1.19251e-07
5.12826e-07
-9.43939e-08
5.25169e-07
-6.69307e-08
5.31355e-07
-3.66645e-08
5.31238e-07
-3.34628e-09
5.24826e-07
3.33236e-08
5.12345e-07
7.35559e-08
4.9399e-07
1.17179e-07
4.6945e-07
1.63579e-07
4.37376e-07
2.11631e-07
3.94132e-07
2.58623e-07
3.3445e-07
2.9902e-07
2.57811e-07
3.24969e-07
1.70064e-07
3.34312e-07
7.73301e-08
3.34007e-07
-1.69174e-08
3.32005e-07
-1.1058e-07
3.31907e-07
-2.01235e-07
3.32819e-07
-2.84438e-07
3.29256e-07
-3.53501e-07
3.12549e-07
-4.0483e-07
2.78963e-07
-4.41649e-07
2.34096e-07
-4.69071e-07
1.85379e-07
-4.8957e-07
1.37018e-07
-5.03932e-07
9.0886e-08
-5.12175e-07
4.78496e-08
-5.14031e-07
8.35938e-09
-5.09376e-07
-2.75998e-08
-4.98304e-07
-6.02833e-08
-4.81015e-07
-8.99329e-08
-4.57765e-07
-1.16731e-07
-4.28859e-07
-1.40823e-07
-3.94659e-07
-1.62338e-07
-3.55588e-07
-1.81386e-07
-3.12132e-07
-1.98055e-07
-2.64837e-07
-2.12397e-07
-2.14295e-07
-2.24423e-07
-1.61137e-07
-2.34102e-07
-1.06018e-07
-2.41373e-07
-4.96128e-08
-2.46164e-07
7.39375e-09
-2.4841e-07
6.43107e-08
-2.48075e-07
1.20448e-07
-2.45165e-07
1.75123e-07
-2.39725e-07
2.27666e-07
-2.31823e-07
2.77426e-07
-2.21531e-07
3.23781e-07
-2.08903e-07
3.6615e-07
-1.93961e-07
4.04003e-07
-1.76682e-07
4.36869e-07
-1.57003e-07
4.64341e-07
-1.34831e-07
4.86072e-07
-1.10049e-07
5.01772e-07
-8.25255e-08
5.11196e-07
-5.21069e-08
5.14164e-07
-1.85977e-08
5.10628e-07
1.82573e-08
5.00774e-07
5.86844e-08
4.84843e-07
1.02586e-07
4.62667e-07
1.49399e-07
4.33147e-07
1.9811e-07
3.93127e-07
2.46353e-07
3.37256e-07
2.89115e-07
2.6391e-07
3.18541e-07
1.78182e-07
3.3109e-07
8.64289e-08
3.32706e-07
-7.57637e-09
3.31725e-07
-1.01657e-07
3.32415e-07
-1.93525e-07
3.34512e-07
-2.79073e-07
3.33199e-07
-3.51678e-07
3.19917e-07
-4.06749e-07
2.89611e-07
-4.46566e-07
2.46759e-07
-4.76452e-07
1.99096e-07
-4.99311e-07
1.51302e-07
-5.16138e-07
1.05544e-07
-5.27071e-07
6.27576e-08
-5.31862e-07
2.3455e-08
-5.30333e-07
-1.23148e-08
-5.22529e-07
-4.48135e-08
-5.08619e-07
-7.43319e-08
-4.88828e-07
-1.01102e-07
-4.6342e-07
-1.25312e-07
-4.32703e-07
-1.47119e-07
-3.97039e-07
-1.66659e-07
-3.56839e-07
-1.84041e-07
-3.12571e-07
-1.99339e-07
-2.64748e-07
-2.1258e-07
-2.13924e-07
-2.23748e-07
-1.60683e-07
-2.32781e-07
-1.05631e-07
-2.39593e-07
-4.93911e-08
-2.44093e-07
-2.46205e-07
6.30175e-08
-3.01625e-07
1.17963e-07
-2.98093e-07
1.71426e-07
-2.91501e-07
2.22738e-07
-2.8195e-07
2.71259e-07
-2.69562e-07
3.16385e-07
-2.54457e-07
3.57565e-07
-2.36733e-07
3.943e-07
-2.16454e-07
4.26156e-07
-1.93641e-07
4.52764e-07
-1.68274e-07
4.7381e-07
-1.40297e-07
4.89037e-07
-1.09621e-07
4.98235e-07
-7.61296e-08
5.01253e-07
-3.9682e-08
4.98022e-07
-1.14989e-10
4.88622e-07
4.27234e-08
4.73315e-07
8.88628e-08
4.52446e-07
1.38048e-07
4.26319e-07
1.89706e-07
3.94979e-07
2.4297e-07
3.57241e-07
2.96361e-07
3.09392e-07
3.46869e-07
2.46023e-07
3.88338e-07
1.66639e-07
4.13696e-07
7.70962e-08
4.2355e-07
-1.62852e-08
4.25387e-07
-1.08516e-07
4.24138e-07
-1.94256e-07
4.18558e-07
-2.66846e-07
4.01846e-07
-3.22554e-07
3.68257e-07
-3.64715e-07
3.21124e-07
-3.98519e-07
2.67899e-07
-4.26497e-07
2.13357e-07
-4.49132e-07
1.59653e-07
-4.66199e-07
1.07954e-07
-4.77359e-07
5.90094e-08
-4.82283e-07
1.3283e-08
-4.80795e-07
-2.90879e-08
-4.72903e-07
-6.81746e-08
-4.5874e-07
-1.04096e-07
-4.38509e-07
-1.36962e-07
-4.12474e-07
-1.66858e-07
-3.80961e-07
-1.9385e-07
-3.44364e-07
-2.17983e-07
-3.03148e-07
-2.39271e-07
-2.57848e-07
-2.57696e-07
-2.09066e-07
-2.73205e-07
-1.57456e-07
-2.85712e-07
-1.03714e-07
-2.95116e-07
-4.85666e-08
-3.01311e-07
7.23872e-09
-3.04215e-07
6.29459e-08
-3.03782e-07
1.178e-07
-3.00019e-07
1.71059e-07
-2.92984e-07
2.22001e-07
-2.82766e-07
2.69942e-07
-2.69471e-07
3.14238e-07
-2.532e-07
3.54306e-07
-2.34029e-07
3.89627e-07
-2.12003e-07
4.19755e-07
-1.87131e-07
4.44314e-07
-1.5939e-07
4.62995e-07
-1.2873e-07
4.75549e-07
-9.50797e-08
4.81789e-07
-5.83464e-08
4.81608e-07
-1.8417e-08
4.75041e-07
2.48241e-08
4.62313e-07
7.14121e-08
4.4377e-07
1.2113e-07
4.19736e-07
1.73433e-07
3.9035e-07
2.27496e-07
3.54733e-07
2.81969e-07
3.09633e-07
3.34215e-07
2.4959e-07
3.78584e-07
1.72975e-07
4.07705e-07
8.49476e-08
4.20734e-07
-8.04728e-09
4.2472e-07
-1.00939e-07
4.25306e-07
-1.88518e-07
4.22091e-07
-2.64129e-07
4.08811e-07
-3.231e-07
3.78888e-07
-3.67802e-07
3.34313e-07
-4.03639e-07
2.82595e-07
-4.33585e-07
2.29042e-07
-4.58369e-07
1.76086e-07
-4.77826e-07
1.25e-07
-4.91631e-07
7.65628e-08
-4.99447e-07
3.12706e-08
-5.01054e-07
-1.07071e-08
-4.96419e-07
-4.94493e-08
-4.85635e-07
-8.51158e-08
-4.68872e-07
-1.17865e-07
-4.46352e-07
-1.47831e-07
-4.18347e-07
-1.75124e-07
-3.85183e-07
-1.99823e-07
-3.47247e-07
-2.21977e-07
-3.0499e-07
-2.41596e-07
-2.58924e-07
-2.58646e-07
-2.09617e-07
-2.73055e-07
-1.57682e-07
-2.84716e-07
-1.03767e-07
-2.93508e-07
-4.85487e-08
-2.99311e-07
-3.02034e-07
6.04703e-08
-3.55107e-07
1.13118e-07
-3.5074e-07
1.64207e-07
-3.4259e-07
2.13042e-07
-3.30785e-07
2.58965e-07
-3.15485e-07
3.01368e-07
-2.9686e-07
3.39704e-07
-2.75069e-07
3.73492e-07
-2.50242e-07
4.02321e-07
-2.2247e-07
4.25852e-07
-1.91805e-07
4.43808e-07
-1.58254e-07
4.55976e-07
-1.21789e-07
4.62201e-07
-8.23539e-08
4.62392e-07
-3.98734e-08
4.56553e-07
5.72417e-09
4.44813e-07
5.44638e-08
4.2744e-07
1.06235e-07
4.04788e-07
1.607e-07
3.77233e-07
2.17261e-07
3.45124e-07
2.75079e-07
3.08512e-07
3.32972e-07
2.6622e-07
3.89161e-07
2.14475e-07
4.40083e-07
1.4881e-07
4.79362e-07
7.03261e-08
5.02033e-07
-1.431e-08
5.10023e-07
-9.72177e-08
5.07046e-07
-1.70701e-07
4.92042e-07
-2.29884e-07
4.6103e-07
-2.76507e-07
4.14879e-07
-3.15388e-07
3.60006e-07
-3.4917e-07
3.01682e-07
-3.78321e-07
2.42508e-07
-4.02598e-07
1.8393e-07
-4.21623e-07
1.26978e-07
-4.35018e-07
7.24049e-08
-4.42459e-07
2.07233e-08
-4.43741e-07
-2.7806e-08
-4.38809e-07
-7.31065e-08
-4.27724e-07
-1.15181e-07
-4.10632e-07
-1.54053e-07
-3.87751e-07
-1.89739e-07
-3.59365e-07
-2.22236e-07
-3.25837e-07
-2.51511e-07
-2.87604e-07
-2.77503e-07
-2.45186e-07
-3.00115e-07
-1.99173e-07
-3.19217e-07
-1.50226e-07
-3.3466e-07
-9.90545e-08
-3.46287e-07
-4.64131e-08
-3.53953e-07
6.91838e-09
-3.57547e-07
6.01469e-08
-3.57011e-07
1.12481e-07
-3.52354e-07
1.63147e-07
-3.43649e-07
2.11401e-07
-3.31019e-07
2.56542e-07
-3.14613e-07
2.9793e-07
-2.94588e-07
3.3499e-07
-2.71089e-07
3.67225e-07
-2.44237e-07
3.94215e-07
-2.14121e-07
4.1562e-07
-1.80795e-07
4.31172e-07
-1.44282e-07
4.40673e-07
-1.0458e-07
4.43995e-07
-6.16688e-08
4.41105e-07
-1.55269e-08
4.32094e-07
3.3835e-08
4.17203e-07
8.6303e-08
3.96779e-07
1.41554e-07
3.712e-07
1.99011e-07
3.40838e-07
2.57859e-07
3.05832e-07
3.16975e-07
2.65312e-07
3.74734e-07
2.15914e-07
4.27983e-07
1.52897e-07
4.70721e-07
7.62904e-08
4.9734e-07
-7.82287e-09
5.08833e-07
-9.16137e-08
5.09097e-07
-1.67261e-07
4.97738e-07
-2.29111e-07
4.70661e-07
-2.77903e-07
4.2768e-07
-3.18469e-07
3.74878e-07
-3.53877e-07
3.18004e-07
-3.84829e-07
2.59994e-07
-4.11147e-07
2.02404e-07
-4.32464e-07
1.46317e-07
-4.48405e-07
9.2504e-08
-4.58632e-07
4.14981e-08
-4.6291e-07
-6.42914e-09
-4.61146e-07
-5.12138e-08
-4.53364e-07
-9.28978e-08
-4.39672e-07
-1.31556e-07
-4.20243e-07
-1.67261e-07
-3.95305e-07
-2.00062e-07
-3.6515e-07
-2.29978e-07
-3.30136e-07
-2.56991e-07
-2.90692e-07
-2.8104e-07
-2.47317e-07
-3.02021e-07
-2.00576e-07
-3.19796e-07
-1.51089e-07
-3.34203e-07
-9.95256e-08
-3.45071e-07
-4.65904e-08
-3.52247e-07
-3.55612e-07
5.67436e-08
-4.05291e-07
1.06075e-07
-4.00072e-07
1.53819e-07
-3.90334e-07
1.99273e-07
-3.76238e-07
2.4178e-07
-3.57992e-07
2.80743e-07
-3.35823e-07
3.15632e-07
-3.09958e-07
3.45992e-07
-2.80602e-07
3.71445e-07
-2.47923e-07
3.91688e-07
-2.12047e-07
4.06488e-07
-1.73055e-07
4.15683e-07
-1.30984e-07
4.19172e-07
-8.58433e-08
4.16929e-07
-3.76303e-08
4.09013e-07
1.36405e-08
3.95588e-07
6.78886e-08
3.76928e-07
1.24895e-07
3.53384e-07
1.84244e-07
3.25352e-07
2.45293e-07
2.93246e-07
3.07185e-07
2.57409e-07
3.6881e-07
2.17848e-07
4.28722e-07
1.7331e-07
4.84621e-07
1.20592e-07
5.3208e-07
5.7812e-08
5.64813e-07
-1.11314e-08
5.78966e-07
-7.82932e-08
5.74208e-07
-1.36835e-07
5.50583e-07
-1.85382e-07
5.09577e-07
-2.27044e-07
4.56542e-07
-2.6432e-07
3.97281e-07
-2.97783e-07
3.35145e-07
-3.27214e-07
2.71939e-07
-3.5222e-07
2.08935e-07
-3.72382e-07
1.4714e-07
-3.87317e-07
8.73406e-08
-3.96704e-07
3.01098e-08
-4.00319e-07
-2.41904e-08
-3.9806e-07
-7.53659e-08
-3.89925e-07
-1.23316e-07
-3.76e-07
-1.67979e-07
-3.56448e-07
-2.09292e-07
-3.31508e-07
-2.47175e-07
-3.01502e-07
-2.81517e-07
-2.66834e-07
-3.12172e-07
-2.27993e-07
-3.38956e-07
-1.85551e-07
-3.61659e-07
-1.40153e-07
-3.80058e-07
-9.25071e-08
-3.93932e-07
-4.33712e-08
-4.03088e-07
6.46543e-09
-4.07383e-07
5.61975e-08
-4.06743e-07
1.05022e-07
-4.01178e-07
1.52156e-07
-3.90783e-07
1.96854e-07
-3.75717e-07
2.38422e-07
-3.56181e-07
2.76234e-07
-3.32399e-07
3.09737e-07
-3.04592e-07
3.38465e-07
-2.72965e-07
3.62035e-07
-2.37692e-07
3.80149e-07
-1.98909e-07
3.92586e-07
-1.56719e-07
3.99202e-07
-1.11197e-07
3.99934e-07
-6.24009e-08
3.94807e-07
-1.04002e-08
3.83956e-07
4.46869e-08
3.6763e-07
1.02629e-07
3.46172e-07
1.63012e-07
3.19977e-07
2.25206e-07
2.89465e-07
2.88371e-07
2.55005e-07
3.51435e-07
2.16703e-07
4.13036e-07
1.73582e-07
4.71103e-07
1.22652e-07
5.21652e-07
6.1474e-08
5.58518e-07
-6.9477e-09
5.77255e-07
-7.4969e-08
5.77118e-07
-1.35252e-07
5.58021e-07
-1.85503e-07
5.20912e-07
-2.28506e-07
4.70683e-07
-2.67053e-07
4.13426e-07
-3.01946e-07
3.52897e-07
-3.33032e-07
2.9108e-07
-3.59939e-07
2.2931e-07
-3.8225e-07
1.68628e-07
-3.99582e-07
1.09835e-07
-4.11597e-07
5.35131e-08
-4.18049e-07
2.28105e-11
-4.18802e-07
-5.046e-08
-4.13823e-07
-9.7877e-08
-4.03158e-07
-1.42222e-07
-3.86923e-07
-1.83496e-07
-3.65299e-07
-2.21685e-07
-3.38538e-07
-2.5674e-07
-3.06959e-07
-2.88569e-07
-2.70963e-07
-3.17036e-07
-2.31024e-07
-3.4196e-07
-1.8769e-07
-3.63131e-07
-1.41575e-07
-3.80318e-07
-9.3348e-08
-3.93298e-07
-4.37227e-08
-4.01872e-07
-4.05895e-07
5.20561e-08
-4.51327e-07
9.72451e-08
-4.45261e-07
1.40859e-07
-4.33948e-07
1.82205e-07
-4.17585e-07
2.20646e-07
-3.96433e-07
2.55608e-07
-3.70784e-07
2.86589e-07
-3.40939e-07
3.1317e-07
-3.07183e-07
3.35011e-07
-2.69765e-07
3.51855e-07
-2.28891e-07
3.63518e-07
-1.84718e-07
3.6989e-07
-1.37355e-07
3.70929e-07
-8.6882e-08
3.66666e-07
-3.33681e-08
3.57215e-07
2.30918e-08
3.42776e-07
8.23278e-08
3.23638e-07
1.44034e-07
3.00159e-07
2.07722e-07
2.72753e-07
2.727e-07
2.41872e-07
3.38066e-07
2.0799e-07
4.02692e-07
1.7154e-07
4.65171e-07
1.32611e-07
5.2355e-07
9.02709e-08
5.7442e-07
4.31198e-08
6.11964e-07
-7.54385e-09
6.2963e-07
-5.7133e-08
6.23797e-07
-1.02061e-07
5.95512e-07
-1.42486e-07
5.50001e-07
-1.79881e-07
4.93938e-07
-2.14688e-07
4.32088e-07
-2.46602e-07
3.67059e-07
-2.75153e-07
3.0049e-07
-2.99864e-07
2.33647e-07
-3.20294e-07
1.6757e-07
-3.36049e-07
1.03095e-07
-3.46797e-07
4.08574e-08
-3.5229e-07
-1.8697e-08
-3.52379e-07
-7.52774e-08
-3.47003e-07
-1.28691e-07
-3.3619e-07
-1.78792e-07
-3.20045e-07
-2.25437e-07
-2.98756e-07
-2.68464e-07
-2.72597e-07
-3.07677e-07
-2.41928e-07
-3.42841e-07
-2.07201e-07
-3.73682e-07
-1.68955e-07
-3.99905e-07
-1.27808e-07
-4.21205e-07
-8.44484e-08
-4.37292e-07
-3.96175e-08
-4.47919e-07
5.90621e-09
-4.52907e-07
5.13264e-08
-4.52163e-07
9.58498e-08
-4.45701e-07
1.38705e-07
-4.33639e-07
1.79164e-07
-4.16176e-07
2.16554e-07
-3.93572e-07
2.50278e-07
-3.66122e-07
2.79818e-07
-3.34132e-07
3.04746e-07
-2.97894e-07
3.24724e-07
-2.5767e-07
3.39502e-07
-2.13686e-07
3.48912e-07
-1.66129e-07
3.5287e-07
-1.15155e-07
3.51371e-07
-6.09018e-08
3.44497e-07
-3.52615e-09
3.32423e-07
5.67605e-08
3.15421e-07
1.19631e-07
2.9384e-07
1.84593e-07
2.68087e-07
2.50959e-07
2.38617e-07
3.17841e-07
2.05908e-07
3.84145e-07
1.70415e-07
4.48529e-07
1.32323e-07
5.09195e-07
9.08869e-08
5.63088e-07
4.4622e-08
6.04783e-07
-5.72057e-09
6.27598e-07
-5.58276e-08
6.27225e-07
-1.01686e-07
6.0388e-07
-1.42983e-07
5.62208e-07
-1.8123e-07
5.0893e-07
-2.17044e-07
4.4924e-07
-2.50193e-07
3.86045e-07
-2.80217e-07
3.21105e-07
-3.06646e-07
2.55739e-07
-3.29034e-07
1.91017e-07
-3.46983e-07
1.27784e-07
-3.60149e-07
6.66796e-08
-3.68266e-07
8.13969e-09
-3.71157e-07
-4.75695e-08
-3.68731e-07
-1.00303e-07
-3.60976e-07
-1.49976e-07
-3.47951e-07
-1.96521e-07
-3.29786e-07
-2.3985e-07
-3.06683e-07
-2.79843e-07
-2.78922e-07
-3.16331e-07
-2.46861e-07
-3.49097e-07
-2.10943e-07
-3.77878e-07
-1.71687e-07
-4.02386e-07
-1.29687e-07
-4.22319e-07
-8.55947e-08
-4.3739e-07
-4.01139e-08
-4.47353e-07
-4.52029e-07
4.65882e-08
-4.92525e-07
8.69652e-08
-4.85638e-07
1.25817e-07
-4.72799e-07
1.62479e-07
-4.54247e-07
1.96343e-07
-4.30298e-07
2.26873e-07
-4.01313e-07
2.53605e-07
-3.67672e-07
2.76164e-07
-3.29742e-07
2.94257e-07
-2.87858e-07
3.07674e-07
-2.42308e-07
3.16284e-07
-1.93328e-07
3.20033e-07
-1.41104e-07
3.18937e-07
-8.57856e-08
3.13084e-07
-2.75155e-08
3.02639e-07
3.3537e-08
2.87844e-07
9.71232e-08
2.69015e-07
1.62862e-07
2.46538e-07
2.30199e-07
2.20854e-07
2.98384e-07
1.92469e-07
3.66452e-07
1.61956e-07
4.33205e-07
1.29969e-07
4.97159e-07
9.71792e-08
5.5634e-07
6.39542e-08
6.07645e-07
3.00636e-08
6.45854e-07
-4.49715e-09
6.64191e-07
-3.8797e-08
6.58097e-07
-7.22125e-08
6.28927e-07
-1.04989e-07
5.82777e-07
-1.37115e-07
5.26063e-07
-1.68031e-07
4.63004e-07
-1.97045e-07
3.96074e-07
-2.23531e-07
3.26975e-07
-2.46939e-07
2.57055e-07
-2.66787e-07
1.87419e-07
-2.82654e-07
1.18962e-07
-2.94181e-07
5.23846e-08
-3.01087e-07
-1.17912e-08
-3.03172e-07
-7.31916e-08
-3.00323e-07
-1.31541e-07
-2.92504e-07
-1.86611e-07
-2.79764e-07
-2.38177e-07
-2.62234e-07
-2.85993e-07
-2.40135e-07
-3.29776e-07
-2.13779e-07
-3.69197e-07
-1.8357e-07
-4.03891e-07
-1.50004e-07
-4.33472e-07
-1.13658e-07
-4.5755e-07
-7.51855e-08
-4.75764e-07
-3.52957e-08
-4.87809e-07
5.26222e-09
-4.93465e-07
4.57203e-08
-4.92621e-07
8.53135e-08
-4.85295e-07
1.23301e-07
-4.71626e-07
1.58986e-07
-4.51861e-07
1.91735e-07
-4.26321e-07
2.2099e-07
-3.95377e-07
2.46278e-07
-3.5942e-07
2.67218e-07
-3.18834e-07
2.83524e-07
-2.73976e-07
2.94998e-07
-2.2516e-07
3.0153e-07
-1.72661e-07
3.03094e-07
-1.16718e-07
2.99744e-07
-5.7552e-08
2.91617e-07
4.60028e-09
2.78935e-07
6.94432e-08
2.61998e-07
1.36568e-07
2.41183e-07
2.05408e-07
2.16927e-07
2.75215e-07
1.89729e-07
3.45039e-07
1.60157e-07
4.13717e-07
1.28859e-07
4.79827e-07
9.65254e-08
5.41529e-07
6.36102e-08
5.96003e-07
2.99702e-08
6.38423e-07
-4.4976e-09
6.62065e-07
-3.89451e-08
6.61673e-07
-7.26264e-08
6.37561e-07
-1.05738e-07
5.9532e-07
-1.38375e-07
5.41567e-07
-1.70045e-07
4.80911e-07
-2.00065e-07
4.16065e-07
-2.27801e-07
3.4884e-07
-2.52698e-07
2.80636e-07
-2.74267e-07
2.12586e-07
-2.92081e-07
1.45598e-07
-3.05773e-07
8.0371e-08
-3.15043e-07
1.741e-08
-3.19671e-07
-4.29417e-08
-3.19512e-07
-1.00462e-07
-3.14497e-07
-1.54991e-07
-3.04628e-07
-2.0639e-07
-2.89979e-07
-2.54499e-07
-2.707e-07
-2.99122e-07
-2.47023e-07
-3.40008e-07
-2.19263e-07
-3.76857e-07
-1.87818e-07
-4.09323e-07
-1.5317e-07
-4.37034e-07
-1.15878e-07
-4.59612e-07
-7.65632e-08
-4.76704e-07
-3.59034e-08
-4.88013e-07
-4.93322e-07
4.04863e-08
-5.28325e-07
7.55096e-08
-5.20661e-07
1.09092e-07
-5.06381e-07
1.40612e-07
-4.85767e-07
1.69505e-07
-4.59191e-07
1.9528e-07
-4.27088e-07
2.17525e-07
-3.89916e-07
2.35911e-07
-3.48128e-07
2.50197e-07
-3.02144e-07
2.60226e-07
-2.52338e-07
2.65923e-07
-1.99024e-07
2.67286e-07
-1.42467e-07
2.64388e-07
-8.28881e-08
2.57374e-07
-2.05013e-08
2.46458e-07
4.44533e-08
2.31925e-07
1.11656e-07
2.1413e-07
1.80657e-07
1.93489e-07
2.5084e-07
1.70486e-07
3.21388e-07
1.45674e-07
3.91263e-07
1.19702e-07
4.59176e-07
9.33366e-08
5.23524e-07
6.74584e-08
5.82218e-07
4.28736e-08
6.3223e-07
1.98272e-08
6.68901e-07
-2.30162e-09
6.8632e-07
-2.46379e-08
6.80433e-07
-4.81614e-08
6.52451e-07
-7.31286e-08
6.07744e-07
-9.89804e-08
5.51915e-07
-1.24823e-07
4.88846e-07
-1.49806e-07
4.21057e-07
-1.73211e-07
3.5038e-07
-1.94426e-07
2.7827e-07
-2.12922e-07
2.05915e-07
-2.28242e-07
1.34282e-07
-2.39994e-07
6.41359e-08
-2.47853e-07
-3.93169e-09
-2.51574e-07
-6.94714e-08
-2.50984e-07
-1.32131e-07
-2.45993e-07
-1.91602e-07
-2.36591e-07
-2.47579e-07
-2.22851e-07
-2.99733e-07
-2.04938e-07
-3.47689e-07
-1.83109e-07
-3.91027e-07
-1.57712e-07
-4.29288e-07
-1.29192e-07
-4.61993e-07
-9.80748e-08
-4.88667e-07
-6.49637e-08
-5.08875e-07
-3.05209e-08
-5.22252e-07
4.55061e-09
-5.28536e-07
3.95282e-08
-5.27599e-07
7.36922e-08
-5.19459e-07
1.06348e-07
-5.04282e-07
1.36847e-07
-4.8236e-07
1.64606e-07
-4.54079e-07
1.89117e-07
-4.19888e-07
2.09961e-07
-3.80265e-07
2.26813e-07
-3.35687e-07
2.39441e-07
-2.86603e-07
2.47704e-07
-2.33423e-07
2.51549e-07
-1.76507e-07
2.5101e-07
-1.16179e-07
2.46197e-07
-5.27392e-08
2.37301e-07
1.34957e-08
2.24591e-07
8.21538e-08
2.08407e-07
1.52752e-07
1.89158e-07
2.24657e-07
1.67321e-07
2.97052e-07
1.43444e-07
3.68917e-07
1.18163e-07
4.38998e-07
9.22307e-08
5.05759e-07
6.65266e-08
5.67233e-07
4.19078e-08
6.20622e-07
1.87554e-08
6.61576e-07
-3.41413e-09
6.84235e-07
-2.56834e-08
6.83942e-07
-4.91036e-08
6.60981e-07
-7.40805e-08
6.20297e-07
-1.00172e-07
5.67659e-07
-1.26516e-07
5.07255e-07
-1.52255e-07
4.41804e-07
-1.76655e-07
3.7324e-07
-1.99094e-07
3.03076e-07
-2.19039e-07
2.3253e-07
-2.36023e-07
1.62582e-07
-2.49646e-07
9.3994e-08
-2.59572e-07
2.73356e-08
-2.65532e-07
-3.6981e-08
-2.67332e-07
-9.86618e-08
-2.64846e-07
-1.57478e-07
-2.58019e-07
-2.13217e-07
-2.46871e-07
-2.65647e-07
-2.31499e-07
-3.14493e-07
-2.12083e-07
-3.59425e-07
-1.88885e-07
-4.00055e-07
-1.62255e-07
-4.35953e-07
-1.32627e-07
-4.66661e-07
-1.00514e-07
-4.91725e-07
-6.64945e-08
-5.10723e-07
-3.12039e-08
-5.23303e-07
-5.29212e-07
3.38686e-08
-5.58271e-07
6.30998e-08
-5.49892e-07
9.10074e-08
-5.34289e-07
1.17025e-07
-5.11785e-07
1.40646e-07
-4.82812e-07
1.61432e-07
-4.47875e-07
1.79029e-07
-4.07513e-07
1.93165e-07
-3.62263e-07
2.03651e-07
-3.1263e-07
2.10386e-07
-2.59072e-07
2.13345e-07
-2.01984e-07
2.12583e-07
-1.41705e-07
2.08225e-07
-7.85296e-08
2.00464e-07
-1.27408e-08
1.89564e-07
5.5354e-08
1.7585e-07
1.25369e-07
1.59712e-07
1.96795e-07
1.41599e-07
2.68952e-07
1.22024e-07
3.40963e-07
1.01572e-07
4.11715e-07
8.09176e-08
4.79831e-07
6.08382e-08
5.43604e-07
4.21991e-08
6.00857e-07
2.57782e-08
6.48651e-07
1.1769e-08
6.8291e-07
-7.71775e-10
6.9886e-07
-1.36879e-08
6.93349e-07
-2.85497e-08
6.67313e-07
-4.57822e-08
6.24977e-07
-6.48542e-08
5.70987e-07
-8.48989e-08
5.08891e-07
-1.05071e-07
4.4123e-07
-1.24631e-07
3.6994e-07
-1.42939e-07
2.96577e-07
-1.59435e-07
2.22411e-07
-1.73629e-07
1.48476e-07
-1.85096e-07
7.56029e-08
-1.93473e-07
4.44537e-09
-1.98467e-07
-6.44781e-08
-1.99855e-07
-1.30742e-07
-1.97492e-07
-1.93964e-07
-1.91312e-07
-2.53759e-07
-1.81333e-07
-3.09712e-07
-1.67659e-07
-3.61362e-07
-1.5049e-07
-4.08196e-07
-1.30114e-07
-4.49663e-07
-1.06914e-07
-4.85193e-07
-8.13548e-08
-5.14226e-07
-5.39781e-08
-5.36252e-07
-2.53842e-08
-5.50846e-07
3.78502e-09
-5.57706e-07
3.28682e-08
-5.56682e-07
6.12071e-08
-5.47798e-07
8.81684e-08
-5.31244e-07
1.13165e-07
-5.07357e-07
1.35675e-07
-4.76589e-07
1.55253e-07
-4.39466e-07