/*--------------------------------*- C++ -*----------------------------------*\
| =========                 |                                                 |
| \\      /  F ield         | OpenFOAM: The Open Source CFD Toolbox           |
|  \\    /   O peration     | Version:  2.3.0                                 |
|   \\  /    A nd           | Web:      www.OpenFOAM.org                      |
|    \\/     M anipulation  |                                                 |
\*---------------------------------------------------------------------------*/
FoamFile
{
    version     2.0;
    format      ascii;
    class       volScalarField;
    location    "6000";
    object      T;
}
// * * * * * * * * * * * * * * * * * * * * * * * * * * * * * * * * * * * * * //

dimensions      [0 0 0 1 0 0 0];

internalField   nonuniform List<scalar> 
3060
(
34.1704
34.1814
34.2015
34.2304
34.2675
34.3124
34.3647
34.424
34.4902
34.5633
34.6432
34.7302
34.8242
34.9237
35.0261
35.1312
35.239
35.3489
35.4595
35.5682
35.6723
35.7681
35.8518
35.919
35.9654
35.9869
35.9809
35.9483
35.8923
35.8171
35.7271
35.6264
35.519
35.4079
35.2961
35.1854
35.077
34.9712
34.8679
34.7693
34.6779
34.5942
34.518
34.4494
34.3883
34.3349
34.2896
34.2527
34.2247
34.206
34.1971
34.1984
34.2099
34.2311
34.2615
34.3006
34.348
34.4034
34.4665
34.537
34.6152
34.7009
34.7943
34.8946
34.9986
35.1049
35.2139
35.3251
35.437
35.5474
35.6534
35.7516
35.8382
35.9089
35.9592
35.9851
35.9839
35.9556
35.9033
35.8314
35.7441
35.6458
35.5402
35.4306
35.32
35.2105
35.1034
34.9992
34.8976
34.799
34.7068
34.6217
34.5435
34.4723
34.4079
34.3503
34.2999
34.257
34.222
34.1954
34.1776
34.1691
29.647
29.6776
29.7338
29.8144
29.9181
30.0437
30.1905
30.3578
30.5453
30.7532
30.9818
31.2316
31.503
31.7955
32.1038
32.4188
32.7422
33.072
33.4034
33.7292
34.0407
34.328
34.5794
34.7822
34.9228
34.9886
34.9703
34.871
34.7015
34.4751
34.2051
33.9037
33.5819
33.2492
32.9137
32.5816
32.2564
31.9386
31.6319
31.3468
31.0844
30.845
30.6282
30.4337
30.2614
30.1116
29.9848
29.8817
29.8034
29.7512
29.7263
29.7301
29.7622
29.8213
29.9061
30.0155
30.1484
30.304
30.482
30.6823
30.905
31.1503
31.4186
31.7094
32.0213
32.3402
32.6671
33.0006
33.3362
33.6669
33.9844
34.2788
34.5387
34.7516
34.9041
34.9832
34.9792
34.8929
34.7348
34.518
34.256
33.9614
33.6452
33.3171
32.9854
32.6567
32.3353
32.0226
31.7167
31.4299
31.1643
30.9201
30.697
30.4944
30.3122
30.1502
30.0089
29.8888
29.7911
29.7167
29.6671
29.6434
25.4343
25.4821
25.5701
25.6961
25.8585
26.0557
26.2863
26.5496
26.8452
27.1732
27.5341
27.9283
28.3564
28.8182
29.3127
29.8251
30.3546
30.8961
31.4408
31.9761
32.488
32.9606
33.3754
33.7115
33.9459
34.0564
34.0257
33.8596
33.5781
33.2038
32.759
32.2636
31.7349
31.1882
30.6371
30.0927
29.5621
29.0479
28.5643
28.115
27.7015
27.3239
26.982
26.6755
26.4043
26.1688
25.9697
25.8081
25.6855
25.6037
25.5647
25.5706
25.6209
25.7135
25.8464
26.0178
26.2265
26.4713
26.7517
27.0674
27.4185
27.8054
28.2282
28.6864
29.1781
29.6975
30.2326
30.7798
31.3311
31.8746
32.3962
32.8803
33.3088
33.6612
33.9149
34.0475
34.0405
33.8959
33.6327
33.274
32.8421
32.3576
31.8381
31.2989
30.7538
30.2144
29.6884
29.1793
28.6941
28.2413
27.8222
27.4367
27.0845
26.7649
26.4777
26.2229
26.0009
25.8127
25.6596
25.5433
25.4657
25.4286
21.6822
21.7449
21.8602
22.0255
22.2384
22.4969
22.7995
23.1448
23.5325
23.9623
24.4348
24.9506
25.5102
26.1137
26.7595
27.4411
28.1521
28.8846
29.6249
30.3546
31.0532
31.6984
32.2656
32.7268
33.0501
33.2033
33.1609
32.9315
32.5444
32.0319
31.4245
30.7485
30.0276
29.2836
28.5365
27.8036
27.0965
26.4214
25.789
25.202
24.6616
24.1676
23.7199
23.3182
22.9625
22.6535
22.3922
22.1801
22.0192
21.9119
21.8607
21.8685
21.9345
22.056
22.2303
22.4554
22.7292
23.0505
23.4181
23.8318
24.2915
24.7975
25.35
25.9487
26.5922
27.2766
27.9916
28.7297
29.4779
30.218
30.9295
31.59
32.1755
32.6585
33.0077
33.1911
33.1812
32.9808
32.6185
32.1268
31.5367
30.8754
30.1666
29.4321
28.692
27.9638
27.2598
26.5865
25.9518
25.3599
24.8118
24.3074
23.8461
23.4273
23.0506
22.7163
22.4251
22.1783
21.9776
21.8252
21.7234
21.6748
18.4839
18.5593
18.6977
18.8961
19.1515
19.4613
19.8233
20.236
20.6984
21.2103
21.772
22.3844
23.0485
23.7649
24.5327
25.3486
26.2072
27.0976
28.0031
28.901
29.7643
30.5629
31.2652
31.837
32.2389
32.4303
32.3777
32.0923
31.612
30.9774
30.2258
29.3899
28.5009
27.5885
26.6783
25.7911
24.9416
24.1388
23.3881
22.6918
22.0504
21.4635
20.9306
20.4516
20.0268
19.6569
19.3437
19.0892
18.8959
18.7669
18.7053
18.7147
18.7941
18.9401
19.1495
19.4195
19.7476
20.1319
20.5709
21.0639
21.6107
22.2117
22.8674
23.578
24.3425
25.158
26.0185
26.9134
27.8265
28.7355
29.6136
30.4307
31.1552
31.7534
32.187
32.4153
32.4026
32.1528
31.7026
31.0933
30.3628
29.5444
28.6692
27.7669
26.8634
25.9798
25.1314
24.3277
23.5731
22.8704
22.2198
21.6206
21.0719
20.573
20.1235
19.7239
19.3753
19.0794
18.8387
18.6556
18.5333
18.4749
15.8666
15.9529
16.1113
16.3379
16.629
16.9814
17.392
17.8586
18.3799
18.9552
19.5849
20.2702
21.0126
21.8134
22.6732
23.5916
24.5636
25.5764
26.6114
27.6433
28.6405
29.5665
30.3818
31.045
31.5111
31.7334
31.6726
31.342
30.7855
30.0497
29.1778
28.2106
27.1869
26.1417
25.1046
24.0986
23.1404
22.2409
21.4013
20.6228
19.9052
19.2475
18.6489
18.1091
17.6287
17.2093
16.853
16.5627
16.3419
16.1943
16.1238
16.1346
16.2255
16.3924
16.6316
16.9393
17.3122
17.7477
18.2436
18.7987
19.4127
20.0859
20.8193
21.6137
22.4695
23.3847
24.3563
25.3722
26.4139
27.4565
28.4692
29.4155
30.256
30.9495
31.4518
31.7162
31.7012
31.4112
30.8893
30.1823
29.3343
28.3861
27.3766
26.3412
25.3099
24.3062
23.3473
22.4443
21.5994
20.8136
20.0861
19.4154
18.7999
18.2387
17.7316
17.2794
16.8837
16.547
16.2723
16.0631
15.9232
15.8564
13.8003
13.8965
14.0729
14.3248
14.6475
15.0366
15.488
15.9986
16.5662
17.1898
17.8698
18.6075
19.4051
20.2651
21.1888
22.1812
23.2345
24.3356
25.4648
26.5948
27.6914
28.7136
29.6153
30.348
30.8616
31.1057
31.0394
30.6764
30.063
29.25
28.2869
27.2217
26.0987
24.9569
23.8282
22.7372
21.7016
20.7331
19.8306
18.9938
18.2213
17.5112
16.8624
16.2747
15.7492
15.2882
14.8948
14.5731
14.3277
14.1634
14.0848
14.0968
14.198
14.3839
14.6495
14.9902
15.4015
15.8796
16.4214
17.025
17.6897
18.4159
19.2051
20.059
20.9791
21.9655
23.0166
24.1192
25.2539
26.3941
27.5061
28.5492
29.478
30.2439
30.7971
31.0871
31.0704
30.7516
30.1762
29.3947
28.4571
27.4114
26.3024
25.1697
24.0457
22.9557
21.9179
20.944
20.0356
19.1916
18.4096
17.687
17.0218
16.4127
15.8598
15.3644
14.9289
14.5567
14.252
14.0194
13.8635
13.7889
12.2154
12.3215
12.5157
12.7923
13.1453
13.5687
14.0571
14.6059
15.212
15.8737
16.5909
17.3655
18.2002
19.0989
20.0648
21.1044
22.2097
23.3676
24.5578
25.7522
26.9144
28.0003
28.9595
29.7382
30.2818
30.5387
30.4695
30.0868
29.4368
28.5727
27.5493
26.4195
25.2315
24.0268
22.839
21.6934
20.6078
19.5938
18.65
17.774
16.9627
16.2137
15.5254
14.898
14.3333
13.8346
13.4067
13.055
12.7857
12.6049
12.5184
12.5315
12.643
12.8473
13.1386
13.5107
13.9575
14.4737
15.055
15.6983
16.4023
17.1674
17.9953
18.8888
19.851
20.8841
21.9864
23.1449
24.3399
25.5437
26.7209
27.8279
28.8151
29.6288
30.2143
30.5194
30.5017
30.1657
29.5558
28.7249
27.7276
26.6173
25.4429
24.2465
23.0625
21.9169
20.8281
19.8079
18.8589
17.9768
17.1579
16.3985
15.6957
15.0485
14.4571
13.9236
13.4517
13.0461
12.7124
12.4567
12.285
12.2029
11.0232
11.1398
11.3531
11.6561
12.0409
12.4997
13.0251
13.6108
14.2522
14.9465
15.6933
16.4944
17.3534
18.2752
19.2655
20.3303
21.4626
22.6496
23.8715
25.0995
26.2961
27.4152
28.4038
29.205
29.7618
30.0233
29.9533
29.563
28.896
28.0066
26.9523
25.7888
24.567
23.3297
22.1113
20.9371
19.8246
18.7845
17.8158
16.9141
16.075
15.2952
14.5731
13.9095
13.3071
12.7709
12.3074
11.9243
11.6297
11.4314
11.3364
11.3508
11.4732
11.6972
12.0156
12.4203
12.9033
13.4573
14.076
14.755
15.4921
16.2871
17.1421
18.0608
19.0478
20.1074
21.2372
22.4248
23.651
24.8879
26.0991
27.2393
28.2563
29.0934
29.6933
30.0039
29.9858
29.6432
29.0176
28.1621
27.1342
25.9901
24.7813
23.5516
22.3365
21.1622
20.0465
19.0002
18.0286
17.1236
16.2801
15.4934
14.7603
14.0796
13.4524
12.8819
12.3732
11.9329
11.5687
11.2884
11.0997
11.0094
10.1326
10.2611
10.496
10.8285
11.2488
11.7467
12.3123
12.937
13.6144
14.3404
15.1136
15.9357
16.8109
17.7452
18.7461
19.8188
20.9575
22.1506
23.3788
24.6137
25.8172
26.9424
27.9352
28.7376
29.2927
29.5516
29.4825
29.0949
28.4287
27.5371
26.478
25.3083
24.0797
22.8358
21.611
20.4299
19.3089
18.2575
17.2756
16.357
15.496
14.6889
13.9343
13.2338
12.5917
12.0149
11.5124
11.0945
10.7715
10.5535
10.4491
10.465
10.5995
10.8456
11.1942
11.6352
12.1579
12.7524
13.4103
14.1251
14.8934
15.7142
16.5897
17.5242
18.5232
19.5937
20.7316
21.9261
23.1588
24.4024
25.6202
26.7664
27.7876
28.6261
29.2246
29.5324
29.5146
29.1747
28.5501
27.6926
26.6599
25.5094
24.2935
23.0572
21.8358
20.6552
19.5327
18.4779
17.4953
16.5772
15.7164
14.9073
14.1464
13.4328
12.7687
12.1586
11.6098
11.1312
10.7328
10.4248
10.2169
10.1174
9.46133
9.60343
9.86289
10.2292
10.69
11.2322
11.8431
12.5115
13.2284
13.9881
14.7882
15.6296
16.5169
17.457
18.4588
19.5263
20.6554
21.836
23.0497
24.2689
25.4561
26.5645
27.5401
28.326
28.867
29.1178
29.051
28.6743
28.0235
27.1488
26.1069
24.954
23.7416
22.5127
21.3009
20.1299
19.0146
17.9629
16.9753
16.0443
15.1635
14.3291
13.54
12.7992
12.1129
11.4905
10.9439
10.4863
10.1312
9.89086
9.77574
9.79317
9.9416
10.2128
10.5958
11.0777
11.6452
12.2853
12.9865
13.7404
14.5413
15.3876
16.2809
17.2259
18.2292
19.2983
20.4293
21.6128
22.8318
24.0601
25.2616
26.3908
27.3948
28.2166
28.8005
29.0992
29.0822
28.7523
28.1427
27.302
26.2864
25.1526
23.9529
22.7318
21.5244
20.3558
19.2419
18.191
17.2062
16.2807
15.4059
14.5755
13.7859
13.037
12.332
11.6777
11.0835
10.5613
10.1239
9.78434
9.55459
9.44454
8.94135
9.09869
9.38586
9.79027
10.2968
10.8892
11.5514
12.269
13.0306
13.8281
14.6577
15.5196
16.418
17.3605
18.3566
19.4096
20.5172
21.6708
22.8537
24.0394
25.1914
26.2644
27.206
27.9615
28.4792
28.7176
28.6539
28.2942
27.6699
26.8272
25.82
24.7025
23.5244
22.3275
21.1439
19.9959
18.8967
17.8522
16.8629
15.921
15.0198
14.1555
13.328
12.5419
11.8058
11.132
10.5356
10.0334
9.64199
9.37662
9.24948
9.2687
9.43266
9.73203
10.1537
10.682
11.3
11.9914
12.7415
13.539
14.3763
15.2501
16.1614
17.1149
18.118
19.177
20.2899
21.4489
22.6385
23.8341
25.0009
26.0948
27.0645
27.8554
28.4149
28.6998
28.6839
28.3697
27.7856
26.9765
25.9954
24.8971
23.7322
22.5441
21.3667
20.2237
19.1296
18.0913
17.11
16.1798
15.2914
14.4382
13.6168
12.8281
12.077
11.3726
10.7271
10.1556
9.67416
9.29897
9.04461
8.92279
8.51966
8.69372
9.01136
9.45777
10.0148
10.6627
11.3819
12.1545
12.9661
13.8063
14.6693
15.5544
16.4651
17.4089
18.3954
19.4278
20.5056
21.622
22.7619
23.9003
25.0028
26.0262
26.921
27.636
28.1236
28.3469
28.2868
27.9483
27.3583
26.5587
25.5994
24.5314
23.4015
22.2493
21.105
19.989
18.9127
17.8802
16.8908
15.9374
15.0134
14.1154
13.2448
12.4082
11.6166
10.8858
10.2345
9.68302
9.25175
8.95886
8.81858
8.83975
9.02071
9.35105
9.81536
10.3947
11.0686
11.8169
12.6214
13.4678
14.3459
15.2506
16.1819
17.1439
18.1441
19.1881
20.2754
21.4003
22.5491
23.6989
24.8169
25.8614
26.7842
27.5338
28.0619
28.3298
28.3155
28.0207
27.4698
26.7032
25.77
24.7214
23.6057
22.4639
21.3281
20.2205
19.1541
18.1338
17.159
16.2246
15.3211
14.442
13.5846
12.7512
11.9485
11.1883
10.4859
9.85978
9.32973
8.91529
8.63389
8.49916
8.15702
8.34891
8.69908
9.19044
9.80161
10.5092
11.2898
12.1221
12.9885
13.8759
14.7767
15.6884
16.6137
17.5596
18.5345
19.5428
20.5857
21.6582
22.7467
23.8281
24.8705
25.8341
26.6732
27.3409
27.7941
28.0007
27.9443
27.6293
27.0789
26.3298
25.4277
24.4192
23.3475
22.249
21.151
20.0727
19.0233
18.0051
17.0157
16.049
15.099
14.1633
13.2452
12.3533
11.5017
10.7095
9.99916
9.39504
8.92118
8.59893
8.44465
8.46791
8.66697
9.03036
9.54021
10.1742
10.9081
11.7178
12.5814
13.4813
14.4046
15.3441
16.2981
17.2699
18.2665
19.2928
20.3503
21.4351
22.5354
23.63
24.6892
25.6744
26.5413
27.2429
27.7351
27.9843
27.9717
27.6986
27.1859
26.4692
25.5932
24.6049
23.5487
22.4628
21.3764
20.3106
19.2764
18.277
17.3101
16.3705
15.4492
14.5405
13.6427
12.7598
11.9009
11.0801
10.3164
9.63174
9.04963
8.59321
8.28293
8.13446
7.82532
8.03568
8.41958
8.95748
9.62473
10.3942
11.2389
12.1338
13.0582
13.9964
14.9387
15.8805
16.8232
17.7727
18.7359
19.719
20.7245
21.7496
22.7822
23.7999
24.775
25.6716
26.449
27.0654
27.4828
27.6725
27.6197
27.3285
26.8197
26.1259
25.2872
24.3451
23.3383
22.299
21.2507
20.2128
19.192
18.1884
17.1981
16.2158
15.2367
14.2598
13.2906
12.3402
11.4258
10.5697
9.79823
9.13958
8.62163
8.26897
8.10021
8.12561
8.34344
8.74105
9.29803
9.98868
10.7848
11.6584
12.5841
13.5407
14.5129
15.4906
16.4702
17.4539
18.4474
19.4553
20.481
21.5228
22.5707
23.6042
24.5977
25.5169
26.3219
26.9713
27.4263
27.6568
27.646
27.3949
26.9225
26.2603
25.4479
24.527
23.5376
22.5137
21.4808
20.4601
19.4603
18.4827
17.5233
16.5766
15.6346
14.6926
13.7508
12.815
11.8965
11.0125
10.185
9.43949
8.80345
8.30355
7.96334
7.80064
7.50488
7.73389
8.15167
8.73612
9.45935
10.2907
11.1994
12.1575
13.1409
14.1316
15.118
16.0929
17.0555
18.0106
18.9636
19.922
20.8894
21.8641
22.8362
23.7876
24.6932
25.5214
26.2361
26.8009
27.1824
27.3554
27.3061
27.0384
26.571
25.9327
25.1582
24.284
23.3439
22.3663
21.3723
20.3764
19.3839
18.3938
17.4011
16.401
15.3902
14.3698
13.3475
12.3379
11.3603
10.4403
9.60769
8.89463
8.33254
7.9493
7.76589
7.79347
8.03024
8.46222
9.06634
9.81349
10.6717
11.6094
12.5975
13.612
14.6352
15.6535
16.6614
17.6591
18.6508
19.6412
20.6348
21.6312
22.6225
23.5928
24.5188
25.3706
26.1132
26.7103
27.1282
27.3403
27.3313
27.1021
26.6701
26.0629
25.315
24.4634
23.543
22.5841
21.6096
20.6362
19.6711
18.7144
17.7613
16.8051
15.8396
14.8613
13.873
12.8828
11.904
10.9563
10.0649
9.25877
8.56887
8.02543
7.65513
7.47804
7.18195
7.42941
7.88016
8.50942
9.28618
10.1765
11.1465
12.1651
13.2057
14.2476
15.2765
16.284
17.2676
18.2297
19.175
20.1112
21.043
21.9697
22.8837
23.7701
24.6074
25.3682
26.0217
26.5361
26.8828
27.0394
26.9934
26.7484
26.3211
25.7365
25.0246
24.2167
23.3417
22.4239
21.4812
20.5247
19.558
18.5792
17.5824
16.5633
15.5208
14.4584
13.3857
12.319
11.2808
10.2998
9.40907
8.6439
8.03924
7.6261
7.42808
7.45789
7.71343
8.17887
8.82835
9.6295
10.547
11.5458
12.5939
13.6641
14.7355
15.7934
16.83
17.8432
18.8347
19.81
20.7741
21.7278
22.6653
23.574
24.4342
25.2201
25.902
26.4484
26.8304
27.0249
27.0176
26.8099
26.4171
25.8635
25.179
24.3954
23.5428
22.6474
21.7289
20.8004
19.8675
18.9294
17.9807
17.0131
16.0232
15.0096
13.9763
12.9331
11.896
10.8873
9.93494
9.07096
8.3295
7.74405
7.34433
7.15292
6.84615
7.11092
7.59184
8.26146
9.08595
10.0286
11.0532
12.1261
13.2187
14.3081
15.3778
16.4178
17.4233
18.3943
19.3349
20.253
21.1535
22.0368
22.8972
23.7229
24.4959
25.1932
25.7886
26.2555
26.5691
26.7101
26.6671
26.4433
26.0537
25.5196
24.8665
24.1206
23.3063
22.4437
21.5473
20.6255
19.6806
18.7098
17.7069
16.668
15.5943
14.4917
13.372
12.2534
11.1611
10.1259
9.18341
8.3718
7.72876
7.28822
7.07646
7.1084
7.38146
7.87741
8.56762
9.41685
10.3869
11.4402
12.5421
13.663
14.7799
15.8759
16.941
17.9708
18.9646
19.9282
20.8671
21.7828
22.6715
23.5233
24.322
25.0462
25.6709
26.1698
26.5181
26.696
26.6906
26.5032
26.1476
25.6448
25.0201
24.3007
23.5119
22.6757
21.8083
20.9202
20.0153
19.0919
18.1443
17.1643
16.1495
15.1011
14.0249
12.9328
11.8429
10.7796
9.77308
8.85769
8.07016
7.44674
7.01996
6.815
6.48931
6.76874
7.27483
7.9777
8.84123
9.82673
10.8961
12.0143
13.151
14.2818
15.3883
16.4586
17.4856
18.467
19.4063
20.3109
21.1857
22.0318
22.8452
23.6166
24.3315
24.971
25.5135
25.9367
26.2199
26.3465
26.306
26.1015
25.7461
25.2578
24.6578
23.9678
23.2076
22.3935
21.5368
20.6438
19.7157
18.7492
17.7387
16.6801
15.5774
14.4388
13.2782
12.1158
10.9785
9.89876
8.91411
8.06451
7.38987
6.92646
6.70305
6.73682
7.02466
7.54598
8.26967
9.15815
10.1712
11.2692
12.416
13.5802
14.7368
15.8672
16.9592
18.0058
19.0041
19.9601
20.8791
21.7629
22.6094
23.4109
24.1546
24.8233
25.3963
25.852
26.1697
26.3326
26.3291
26.1605
25.839
25.3827
24.8127
24.1516
23.4203
22.6367
21.8141
20.9603
20.0779
19.1648
18.2154
17.2219
16.1831
15.1024
13.9881
12.8538
11.7193
10.6107
9.55973
8.60233
7.77706
7.12227
6.67282
6.45633
6.10558
6.39582
6.92004
7.64644
8.53736
9.55291
10.6541
11.8051
12.9747
14.1375
15.2738
16.3696
17.416
18.408
19.3486
20.2443
21.0994
21.9154
22.6894
23.4144
24.0789
24.6678
25.1637
25.5482
25.8043
25.9179
25.8794
25.6918
25.3663
24.9181
24.3643
23.7224
23.0083
22.2347
21.4104
20.5399
19.6236
18.6585
17.6397
16.5636
15.4366
14.2692
13.0771
11.8822
10.7124
9.60135
8.5872
7.71104
7.01404
6.53418
6.30217
6.33732
6.63599
7.17546
7.92274
8.83865
9.88175
11.0115
12.1908
13.3873
14.5748
15.7331
16.8478
17.9097
18.9139
19.8659
20.7703
21.629
22.4408
23.2
23.8967
24.5173
25.0454
25.4633
25.7542
25.904
25.9024
25.7506
25.4596
25.0444
24.5225
23.9123
23.2307
22.4919
21.7064
20.8801
20.0146
19.1077
18.1544
17.1478
16.0879
14.9804
13.8356
12.6689
11.5014
10.3603
9.27785
8.291
7.43922
6.76214
6.29627
6.07122
5.69086
5.98692
6.52032
7.25804
8.16169
9.19117
10.3075
11.475
12.6626
13.8442
14.9993
16.1126
17.1731
18.1737
19.1165
20.0064
20.8472
21.6397
22.3823
23.0693
23.6919
24.2382
24.6945
25.046
25.2787
25.3809
25.3438
25.1703
24.8701
24.4555
23.9403
23.3382
22.6617
21.9205
21.1214
20.2677
19.3594
18.3944
17.3691
16.2805
15.1373
13.952
12.742
11.5299
10.3441
9.21831
8.1907
7.30231
6.59464
6.10646
5.86981
5.90574
6.21015
6.75865
7.51705
8.44552
9.50239
10.6472
11.8427
13.0567
14.2622
15.438
16.568
17.6408
18.6503
19.6004
20.4945
21.3342
22.1188
22.8439
23.5022
24.083
24.5734
24.9596
25.228
25.3668
25.3672
25.23
24.9651
24.585
24.1038
23.5363
22.8959
22.1937
21.4377
20.6324
19.779
18.8756
17.9182
16.9014
15.8263
14.7009
13.5372
12.3519
11.1669
10.0096
8.91235
7.91188
7.04769
6.35977
5.88546
5.65571
5.2423
5.53819
6.07004
6.80446
7.70334
8.72732
9.8385
11.0022
12.1882
13.3708
14.5293
15.6474
16.7128
17.7163
18.659
19.5439
20.3732
21.1476
21.8652
22.5219
23.1106
23.6223
24.046
24.3702
24.5835
24.6759
24.6398
24.4777
24.198
23.8105
23.3264
22.7562
22.1095
21.3939
20.6145
19.7739
18.8727
17.9097
16.8831
15.7911
14.6444
13.457
12.247
11.0374
9.8561
8.73606
7.71432
6.83086
6.12647
5.63974
5.40324
5.43921
5.74322
6.28981
7.04446
7.96766
9.01859
10.1578
11.3493
12.5614
13.7674
14.9457
16.0792
17.1548
18.1652
19.1123
19.9978
20.8227
21.586
22.2843
22.912
23.4608
23.9209
24.2814
24.5315
24.6615
24.6637
24.539
24.2958
23.9446
23.4969
22.9641
22.3568
21.6837
20.9509
20.1621
19.3183
18.4185
17.46
16.4397
15.3597
14.2298
13.0633
11.8777
10.6949
9.54183
8.44994
7.45488
6.59514
5.91005
5.43686
5.20708
4.75808
5.04687
5.56492
6.27935
7.15333
8.14929
9.23136
10.3669
11.5272
12.688
13.829
14.9338
15.9893
16.9851
17.9206
18.7967
19.6138
20.3715
21.0681
21.6997
22.2608
22.7443
23.1415
23.4434
23.6406
23.725
23.6894
23.5364
23.273
22.9074
22.4482
21.9038
21.2816
20.5874
19.8256
18.9987
18.1079
17.1536
16.1361
15.0554
13.9235
12.7549
11.5681
10.3854
9.23332
8.14307
7.14959
6.29078
5.60564
5.13154
4.90069
4.93587
5.23243
5.76459
6.49845
7.39587
8.41794
9.52735
10.6901
11.8761
13.06
14.2204
15.3401
16.405
17.4068
18.3449
19.2194
20.0297
20.7743
21.4503
22.053
22.576
23.0117
23.3515
23.587
23.7101
23.7141
23.5996
23.3742
23.0467
22.6261
22.1216
21.5414
20.8924
20.1796
19.4062
18.5736
17.682
16.7306
15.7185
14.6491
13.5336
12.3858
11.2231
10.0668
8.94229
7.87942
6.91175
6.07579
5.40917
4.94803
4.72362
4.2372
4.51128
5.00208
5.67818
6.50504
7.44786
8.47373
9.55285
10.6591
11.7701
12.867
13.9342
14.9586
15.9294
16.8442
17.7013
18.4994
19.2367
19.911
20.5186
21.0547
21.5134
21.8879
22.1707
22.3544
22.4319
22.3967
22.2512
22.0017
21.6549
21.2176
20.6965
20.0975
19.4257
18.6849
17.8781
17.0075
16.0752
15.0839
14.0357
12.9431
11.8204
10.6851
9.5581
8.46378
7.43051
6.49027
5.67789
5.02955
4.58039
4.36126
4.3947
4.67604
5.18003
5.87435
6.7233
7.69085
8.74281
9.84809
10.9793
12.113
13.2292
14.3113
15.3453
16.3223
17.2391
18.0936
18.8836
19.6069
20.2603
20.8395
21.3395
21.7539
22.0761
22.2992
22.4166
22.4221
22.3163
22.1061
21.7987
21.4015
20.922
20.3667
19.7414
19.0503
18.2969
17.4831
16.6107
15.6808
14.6953
13.6587
12.5825
11.4804
10.3688
9.26734
8.19948
7.19229
6.27648
5.48559
4.85459
4.41754
4.20441
3.67944
3.9308
4.38015
4.99858
5.75476
6.61756
7.55781
8.54932
9.56919
10.5978
11.6186
12.6175
13.5826
14.5037
15.3763
16.1965
16.9609
17.6667
18.3105
18.8887
19.3967
19.8294
20.181
20.4453
20.6161
20.6872
20.6527
20.5149
20.2794
19.9519
19.5379
19.0432
18.4727
17.8311
17.1223
16.3499
15.5173
14.6284
13.688
12.7008
11.6785
10.6342
9.58363
8.54502
7.53991
6.59315
5.73289
4.99005
4.39703
3.98578
3.78479
3.81552
4.07342
4.53472
5.1697
5.94604
6.83156
7.79598
8.81196
9.85552
10.906
11.9458
12.9599
13.9355
14.8637
15.7387
16.5562
17.3126
18.0043
18.6279
19.1792
19.6535
20.0455
20.3497
20.5603
20.6718
20.6784
20.5808
20.385
20.0973
19.7241
19.2712
18.7444
18.1487
17.4883
16.7669
15.9876
15.1533
14.2674
13.3341
12.3592
11.3534
10.3292
9.30119
8.28673
7.30628
6.3836
5.54572
4.82245
4.24517
3.84488
3.64932
3.08533
3.30584
3.69946
4.2407
4.90235
5.65767
6.48191
7.35303
8.25194
9.1624
10.0707
10.9653
11.8363
12.6754
13.4761
14.2324
14.9397
15.5936
16.1904
16.7258
17.1954
17.5945
17.9179
18.1604
18.3165
18.3808
18.3479
18.22
18.0022
17.6993
17.3164
16.8582
16.3294
15.7345
15.0776
14.3631
13.5954
12.7797
11.9227
11.0318
10.1165
9.18761
8.25802
7.34289
6.46007
5.63032
4.87736
4.22744
3.70846
3.34819
3.17185
3.19884
3.42502
3.829
4.38463
5.06389
5.83918
6.68483
7.57787
8.49831
9.42903
10.3555
11.2653
12.1481
12.9954
13.7994
14.5539
15.2539
15.8951
16.4733
16.9842
17.4233
17.7859
18.0671
18.2621
18.3657
18.373
18.2843
18.1052
17.8411
17.4975
17.0795
16.5923
16.0404
15.4284
14.7601
14.0396
13.2711
12.4595
11.6115
10.7335
9.83434
8.92431
8.01546
7.12212
6.26128
5.45279
4.71944
4.08659
3.58127
3.2305
3.05886
2.45604
2.63791
2.96212
3.40751
3.95173
4.5731
5.25175
5.97022
6.71354
7.46917
8.22675
8.97779
9.7154
10.434
11.1257
11.7833
12.4009
12.974
13.498
13.9687
14.3817
14.7325
15.0166
15.2293
15.366
15.4218
15.3921
15.2788
15.0865
14.8195
14.482
14.0784
13.613
13.0903
12.5146
11.8904
11.2229
10.5179
9.78316
9.02868
8.26025
7.48563
6.7143
5.95777
5.22983
4.54677
3.92741
3.39288
2.96583
2.66908
2.52363
2.54592
2.7324
3.06506
3.52219
4.08085
4.71867
5.41508
6.15191
6.91353
7.68678
8.46072
9.22635
9.97638
10.7042
11.4001
12.0569
12.669
13.2314
13.7396
14.1894
14.5762
14.8958
15.1438
15.316
15.4079
15.4151
15.3378
15.1809
14.9492
14.6473
14.2798
13.8513
13.3663
12.829
12.2439
11.6153
10.9483
10.2487
9.5246
8.78284
8.02933
7.27134
6.51781
5.77966
5.07004
4.40454
3.8013
3.28073
2.86482
2.5758
2.43417
1.7933
1.92952
2.17204
2.50484
2.91116
3.37488
3.88141
4.41803
4.97407
5.5408
6.11128
6.68028
7.2442
7.80105
8.34229
8.86037
9.34968
9.80557
10.2239
10.6005
10.9316
11.2131
11.4412
11.612
11.7216
11.7661
11.7417
11.6502
11.4952
11.2802
11.0088
10.6849
10.3122
9.89463
9.43637
8.94172
8.41552
7.86357
7.2935
6.71625
6.13394
5.55065
4.97225
4.40643
3.86282
3.35308
2.89091
2.49185
2.17276
1.95078
1.84184
1.85855
1.99818
2.24694
2.58842
3.00543
3.48138
4.00116
4.5516
5.1216
5.70206
6.28577
6.86736
7.44325
8.00917
8.55496
9.07345
9.55909
10.0072
10.4135
10.7739
11.0845
11.3416
11.5414
11.6802
11.7547
11.7609
11.699
11.5731
11.3871
11.1447
10.8498
10.5065
10.1186
9.69011
9.22508
8.72779
8.2031
7.65705
7.09805
6.53238
5.96247
5.39233
4.8276
4.27567
3.74578
3.24911
2.79888
2.41014
2.09928
1.88302
1.7769
1.09917
1.18393
1.33465
1.54118
1.79298
2.08
2.39317
2.72473
3.06826
3.41868
3.77222
4.12653
4.48092
4.83688
5.18661
5.52381
5.84407
6.14385
6.41999
6.66945
6.88929
7.07661
7.22856
7.3424
7.41547
7.44511
7.42866
7.36737
7.26374
7.12026
6.93952
6.72421
6.47717
6.20135
5.89982
5.57588
5.23318
4.8762
4.51111
4.14789
3.78515
3.42365
3.06605
2.71653
2.3807
2.06557
1.77953
1.53224
1.33423
1.19629
1.12851
1.13892
1.22576
1.38029
1.59212
1.85045
2.14493
2.4662
2.80625
3.15842
3.5175
3.8797
4.24288
4.60688
4.97021
5.32384
5.66201
5.98046
6.27562
6.54426
6.78334
6.98993
7.16125
7.2946
7.38746
7.43734
7.44164
7.40043
7.3165
7.19247
7.03104
6.83497
6.60712
6.35042
6.06781
5.76237
5.43735
5.09646
4.74454
4.38892
4.03437
3.67997
3.32687
2.97779
2.63681
2.30935
2.00219
1.72343
1.48244
1.28945
1.15501
1.08895
0.375694
0.404761
0.45636
0.526913
0.612705
0.7102
0.81624
0.928137
1.04371
1.16129
1.27976
1.39866
1.51869
1.64299
1.76689
1.88728
2.00231
2.11056
2.21074
2.30161
2.38196
2.45062
2.50644
2.54832
2.57522
2.58613
2.58006
2.55748
2.51934
2.46661
2.40033
2.32158
2.23153
2.1314
2.02243
1.90598
1.78351
1.65687
1.52886
1.40558
1.28378
1.16266
1.04269
0.925119
0.811793
0.705097
0.607939
0.523687
0.45605
0.408835
0.385598
0.389168
0.41893
0.471799
0.544112
0.632059
0.732003
0.840687
0.955341
1.07372
1.19414
1.31555
1.43779
1.56238
1.69016
1.81585
1.93688
2.05152
2.15832
2.25596
2.34318
2.4188
2.48167
2.5307
2.56488
2.58326
2.58486
2.56968
2.53879
2.49317
2.4339
2.36208
2.27887
2.18546
2.08306
1.97291
1.85634
1.73486
1.61059
1.4875
1.36775
1.24888
1.13053
1.01331
0.898502
0.787894
0.683801
0.589035
0.506865
0.440898
0.394847
0.372187
)
;

boundaryField
{
    top
    {
        type            fixedValue;
        value           uniform 0;
    }
    bottom
    {
        type            fixedValue;
        value           uniform 36.5;
    }
    frontAndBack
    {
        type            empty;
    }
    left_cyc
    {
        type            cyclic;
    }
    right_cyc
    {
        type            cyclic;
    }
}


// ************************************************************************* //
