/*--------------------------------*- C++ -*----------------------------------*\
| =========                 |                                                 |
| \\      /  F ield         | OpenFOAM: The Open Source CFD Toolbox           |
|  \\    /   O peration     | Version:  2.3.0                                 |
|   \\  /    A nd           | Web:      www.OpenFOAM.org                      |
|    \\/     M anipulation  |                                                 |
\*---------------------------------------------------------------------------*/
FoamFile
{
    version     2.0;
    format      ascii;
    class       volScalarField;
    location    "6000";
    object      T;
}
// * * * * * * * * * * * * * * * * * * * * * * * * * * * * * * * * * * * * * //

dimensions      [0 0 0 1 0 0 0];

internalField   nonuniform List<scalar> 
765
(
31.4885
31.6122
31.8292
32.1276
32.4979
32.9307
33.4056
33.8412
34.2657
34.6744
35.0408
35.3185
35.4454
35.3667
35.1207
34.7718
34.3707
33.9491
33.5155
33.0453
32.5996
32.2127
31.8956
31.6575
31.5095
31.4658
31.5383
31.7109
31.9703
32.3061
32.709
33.1652
33.6246
34.0562
34.475
34.867
35.1955
35.4055
35.4321
35.261
34.9557
34.5749
34.1602
33.7315
33.2837
32.818
32.4
32.0468
31.7675
31.5723
31.4736
23.1528
23.4468
23.9596
24.6632
25.5364
26.5623
27.7183
28.9578
30.191
31.3661
32.4039
33.1912
33.561
33.3296
32.6289
31.6434
30.4948
29.2753
28.0426
26.8423
25.7774
24.8638
24.1163
23.554
23.2028
23.0986
23.2713
23.6801
24.2924
25.084
26.0367
27.1342
28.3521
29.5881
30.7959
31.9139
32.8406
33.4427
33.5214
33.0268
32.1643
31.0825
29.8888
28.652
27.4222
26.295
25.3054
24.4726
23.814
23.3522
23.1173
17.245
17.6412
18.3288
19.2654
20.4216
21.7807
23.3322
25.059
26.8819
28.682
30.2829
31.4878
32.0521
31.6982
30.6272
29.1074
27.3386
25.5082
23.7481
22.1483
20.7391
19.5311
18.5378
17.7852
17.3124
17.1719
17.4049
17.9547
18.7727
19.8231
21.0833
22.542
24.1893
25.9739
27.8022
29.5263
30.9521
31.8711
31.9916
31.2371
29.9137
28.2445
26.4257
24.6196
22.9314
21.4261
20.1163
19.0125
18.1342
17.514
17.1973
13.5245
13.9921
14.7972
15.8774
17.1894
18.7148
20.4576
22.4341
24.583
26.7515
28.7137
30.1924
30.8713
30.4472
29.1368
27.2673
25.1254
22.9527
20.9205
19.1232
17.5456
16.1802
15.0397
14.1615
13.6041
13.4386
13.7136
14.3608
15.3118
16.5129
17.9331
19.5661
21.4223
23.5017
25.6843
27.781
29.537
30.656
30.7999
29.8867
28.2583
26.2204
24.0394
21.9227
20.0056
18.318
16.8453
15.588
14.5709
13.8425
13.4685
11.3281
11.8698
12.7936
14.0071
15.441
17.0649
18.8906
20.9626
23.228
25.5331
27.636
29.2194
29.9304
29.489
28.0893
26.0828
23.8001
21.5039
19.3684
17.4925
15.8229
14.3414
13.0687
12.0654
11.4202
11.2294
11.5477
12.2954
13.3764
14.7075
16.238
17.9594
19.9012
22.0853
24.3953
26.6342
28.5192
29.7088
29.8575
28.8937
27.1471
24.9669
22.6537
20.4267
18.4197
16.6469
15.0697
13.686
12.5362
11.6971
11.2637
10.0195
10.6533
11.7264
13.1056
14.6836
16.4053
18.2766
20.3535
22.5928
24.8622
26.9289
28.4735
29.152
28.7334
27.3723
25.402
23.1556
20.8906
18.7637
16.8495
15.0943
13.4785
12.0423
10.8819
10.1272
9.90532
10.2769
11.1505
12.3944
13.8845
15.5377
17.3309
19.2988
21.4666
23.7428
25.9453
27.7933
28.9444
29.0845
28.1582
26.4497
24.3058
22.0277
19.8225
17.8007
15.9695
14.2817
12.7455
11.43
10.452
9.94498
9.15467
9.89894
11.1528
12.7368
14.4975
16.3453
18.2648
20.2983
22.4254
24.5477
26.4607
27.8731
28.4813
28.1079
26.8679
25.0487
22.9539
20.8138
18.7533
16.8097
14.9455
13.1584
11.5189
10.1673
9.28107
9.02219
9.45731
10.4825
11.9257
13.6146
15.4251
17.3068
19.2783
21.3625
23.5047
25.5534
27.2548
28.2984
28.4228
27.5877
26.0199
24.0305
21.8937
19.7874
17.7861
15.8863
14.0564
12.3282
10.809
9.66304
9.06817
8.47109
9.3357
10.7852
12.5932
14.5608
16.561
18.5471
20.5163
22.4874
24.3999
26.0926
27.3276
27.8564
27.5317
26.4496
24.8454
22.9676
21.0005
19.0294
17.0505
15.0522
13.069
11.2059
9.64717
8.61803
8.31812
8.82319
10.0128
11.6723
13.5817
15.5747
17.5694
19.5413
21.5119
23.4664
25.2941
26.7895
27.6988
27.807
27.0802
25.7062
23.939
22.0023
20.0318
18.0636
16.0722
14.0744
12.1311
10.39
9.06223
8.37115
7.82504
8.80969
10.4424
12.4559
14.6149
16.7548
18.7892
20.6953
22.5133
24.2155
25.6878
26.7493
27.2037
26.9242
25.9951
24.6053
22.9453
21.1489
19.2647
17.2649
15.1471
12.9817
10.9134
9.16236
7.99355
7.64918
8.22791
9.57538
11.4344
13.547
15.7106
17.8016
19.7647
21.6243
23.3923
24.9979
26.2891
27.0693
27.1627
26.5388
25.3555
23.8115
22.0746
20.2374
18.3072
16.2426
14.0871
11.9449
9.99967
8.49975
7.7101
7.11738
8.19119
9.9491
12.0997
14.3903
16.634
18.7113
20.5774
22.2784
23.8077
25.0921
26.0036
26.3936
26.1531
25.3567
24.1505
22.6717
21.0089
19.1845
17.1622
14.9521
12.6594
10.4538
8.57284
7.30291
6.92252
7.55935
9.01858
11.0114
13.2608
15.5461
17.7156
19.6785
21.4577
23.0765
24.4955
25.611
26.2793
26.3599
25.8253
24.8066
23.4515
21.8769
20.1396
18.2321
16.1039
13.8338
11.5562
9.47473
7.85519
6.99004
6.28034
7.38183
9.16671
11.3425
13.6619
15.9351
18.0243
19.8658
21.4912
22.8992
24.0448
24.8417
25.1816
24.9715
24.277
23.2079
21.8583
20.2841
18.4966
16.4701
14.2321
11.9094
9.67784
7.77077
6.47227
6.07751
6.73606
8.22401
10.2425
12.5188
14.8352
17.0299
18.9871
20.7162
22.234
23.5181
24.5012
25.0831
25.1537
24.6883
23.7945
22.5776
21.1147
19.4401
17.5472
15.3995
13.0986
10.7931
8.68648
7.0389
6.14782
5.27006
6.3112
7.98527
10.0254
12.214
14.3824
16.3989
18.1884
19.7493
21.0702
22.1178
22.833
23.1365
22.9486
22.3271
21.3551
20.0973
18.5935
16.8596
14.898
12.7563
10.559
8.46432
6.67691
5.45276
5.07595
5.70262
7.1023
8.99351
11.1334
13.3307
15.4378
17.3369
19.0101
20.4518
21.6405
22.5298
23.0495
23.1128
22.6975
21.8925
20.7729
19.3914
17.7755
15.9334
13.8676
11.6798
9.50925
7.53542
5.98831
5.14325
4.05719
4.93033
6.32487
8.02494
9.86417
11.7185
13.4923
15.1161
16.5458
17.75
18.6943
19.3319
19.6018
19.4346
18.8815
18.0081
16.8644
15.4876
13.9087
12.1674
10.3247
8.47164
6.72372
5.23561
4.21132
3.89269
4.4212
5.59004
7.16413
8.95281
10.8132
12.6377
14.3404
15.8691
17.1882
18.2662
19.063
19.5249
19.5814
19.2123
18.4929
17.4805
16.218
14.7379
13.0724
11.2716
9.41145
7.5934
5.95031
4.66036
3.94972
2.62398
3.21617
4.15409
5.29358
6.53243
7.80495
9.07413
10.3007
11.4086
12.3529
13.0959
13.5976
13.8102
13.6784
13.2434
12.556
11.658
10.5872
9.38567
8.11984
6.84557
5.59351
4.42157
3.42212
2.72908
2.51135
2.87165
3.66059
4.71635
5.91618
7.17752
8.44997
9.70927
10.8818
11.9116
12.7591
13.3862
13.7496
13.7942
13.5037
12.9375
12.1409
11.1525
10.01
8.76132
7.4918
6.22467
5.0036
3.90248
3.0336
2.5504
0.959871
1.17541
1.51076
1.91055
2.33997
2.78542
3.25969
3.76603
4.24224
4.65829
4.99085
5.21735
5.31366
5.25395
5.05731
4.74887
4.35143
3.88798
3.38634
2.89848
2.44851
2.01476
1.60525
1.24963
0.998396
0.918386
1.05044
1.3351
1.70876
2.12619
2.56294
3.01665
3.51841
4.0139
4.46269
4.83944
5.12156
5.28601
5.30621
5.17465
4.91944
4.56398
4.13065
3.64303
3.13323
2.67271
2.23274
1.80919
1.42135
1.1093
0.932782
)
;

boundaryField
{
    top
    {
        type            fixedValue;
        value           uniform 0;
    }
    bottom
    {
        type            fixedValue;
        value           uniform 36.5;
    }
    frontAndBack
    {
        type            empty;
    }
    left_cyc
    {
        type            cyclic;
    }
    right_cyc
    {
        type            cyclic;
    }
}


// ************************************************************************* //
