/*--------------------------------*- C++ -*----------------------------------*\
| =========                 |                                                 |
| \\      /  F ield         | OpenFOAM: The Open Source CFD Toolbox           |
|  \\    /   O peration     | Version:  2.3.0                                 |
|   \\  /    A nd           | Web:      www.OpenFOAM.org                      |
|    \\/     M anipulation  |                                                 |
\*---------------------------------------------------------------------------*/
FoamFile
{
    version     2.0;
    format      ascii;
    class       volVectorField;
    location    "6000";
    object      U;
}
// * * * * * * * * * * * * * * * * * * * * * * * * * * * * * * * * * * * * * //

dimensions      [0 1 -1 0 0 0 0];

internalField   nonuniform List<vector> 
3060
(
(0.610527 0 -0.449796)
(1.56984 0 -0.434236)
(2.50569 0 -0.40532)
(3.40448 0 -0.363532)
(4.25346 0 -0.309755)
(5.04105 0 -0.245803)
(5.75723 0 -0.174947)
(6.39405 0 -0.102044)
(6.94574 0 -0.0328197)
(7.40817 0 0.0276217)
(7.77712 0 0.0762434)
(8.04608 0 0.112542)
(8.20406 0 0.137887)
(8.23447 0 0.154489)
(8.1166 0 0.166284)
(7.82981 0 0.182153)
(7.36111 0 0.212299)
(6.71406 0 0.255119)
(5.90962 0 0.293397)
(4.99723 0 0.307832)
(4.04476 0 0.295414)
(3.1158 0 0.262702)
(2.25813 0 0.221048)
(1.49162 0 0.18211)
(0.806649 0 0.15419)
(0.173314 0 0.141391)
(-0.44778 0 0.144972)
(-1.09779 0 0.164604)
(-1.813 0 0.198001)
(-2.61583 0 0.239311)
(-3.50342 0 0.278339)
(-4.44188 0 0.302919)
(-5.37471 0 0.303559)
(-6.23304 0 0.276514)
(-6.95359 0 0.233559)
(-7.49992 0 0.195252)
(-7.85836 0 0.171631)
(-8.03289 0 0.156932)
(-8.04235 0 0.140129)
(-7.9084 0 0.115132)
(-7.65072 0 0.0793832)
(-7.28348 0 0.0313284)
(-6.81589 0 -0.0288421)
(-6.25418 0 -0.0983852)
(-5.60394 0 -0.172227)
(-4.87199 0 -0.244341)
(-4.06729 0 -0.309392)
(-3.20082 0 -0.363675)
(-2.28517 0 -0.40509)
(-1.33407 0 -0.432591)
(-0.36206 0 -0.445577)
(0.615661 0 -0.443621)
(1.58367 0 -0.42682)
(2.52694 0 -0.395643)
(3.4311 0 -0.350758)
(4.28269 0 -0.293422)
(5.06949 0 -0.226109)
(5.78101 0 -0.152982)
(6.40885 0 -0.0796828)
(6.94664 0 -0.0121612)
(7.38885 0 0.04502)
(7.7287 0 0.0898133)
(7.95581 0 0.122581)
(8.05459 0 0.1452)
(8.00417 0 0.160638)
(7.78335 0 0.176426)
(7.37565 0 0.203856)
(6.78204 0 0.24503)
(6.02083 0 0.285889)
(5.13639 0 0.306035)
(4.19572 0 0.298599)
(3.2656 0 0.269085)
(2.39809 0 0.228291)
(1.619 0 0.188227)
(0.923689 0 0.158022)
(0.285032 0 0.14246)
(-0.335283 0 0.143183)
(-0.978554 0 0.160127)
(-1.68254 0 0.191463)
(-2.47301 0 0.232085)
(-3.35244 0 0.27257)
(-4.29288 0 0.300952)
(-5.24161 0 0.306884)
(-6.13217 0 0.285117)
(-6.8991 0 0.243508)
(-7.50092 0 0.202846)
(-7.92191 0 0.176941)
(-8.16278 0 0.163346)
(-8.24006 0 0.150891)
(-8.17443 0 0.13218)
(-7.98613 0 0.104177)
(-7.69022 0 0.0647457)
(-7.29637 0 0.0128968)
(-6.81027 0 -0.0502302)
(-6.23589 0 -0.120962)
(-5.57771 0 -0.193871)
(-4.84201 0 -0.263335)
(-4.03735 0 -0.324881)
(-3.17418 0 -0.375654)
(-2.26443 0 -0.414142)
(-1.32111 0 -0.439613)
(-0.357991 0 -0.451615)
(0.910095 0 -1.6699)
(2.34702 0 -1.64915)
(3.76695 0 -1.61094)
(5.16035 0 -1.55669)
(6.5188 0 -1.48817)
(7.8348 0 -1.40698)
(9.10083 0 -1.31409)
(10.3077 0 -1.20919)
(11.4428 0 -1.09041)
(12.4885 0 -0.954044)
(13.4224 0 -0.794457)
(14.2171 0 -0.603707)
(14.8405 0 -0.37151)
(15.2552 0 -0.0868465)
(15.416 0 0.254137)
(15.2705 0 0.630366)
(14.7716 0 0.990722)
(13.8965 0 1.29171)
(12.6453 0 1.51553)
(11.0708 0 1.64818)
(9.27892 0 1.68311)
(7.39267 0 1.62099)
(5.52445 0 1.49375)
(3.74376 0 1.3522)
(2.06494 0 1.24107)
(0.458216 0 1.18722)
(-1.12975 0 1.20101)
(-2.75708 0 1.27955)
(-4.46912 0 1.40573)
(-6.27863 0 1.54446)
(-8.14674 0 1.64519)
(-9.98055 0 1.66199)
(-11.6586 0 1.57761)
(-13.0595 0 1.39528)
(-14.0969 0 1.12573)
(-14.7473 0 0.782413)
(-15.0225 0 0.395054)
(-14.9588 0 0.0203813)
(-14.6103 0 -0.301801)
(-14.0277 0 -0.565726)
(-13.2533 0 -0.780891)
(-12.3234 0 -0.958363)
(-11.269 0 -1.10728)
(-10.1163 0 -1.23439)
(-8.88596 0 -1.3443)
(-7.59332 0 -1.43967)
(-6.2496 0 -1.52138)
(-4.86374 0 -1.58891)
(-3.44421 0 -1.64093)
(-2.00011 0 -1.67586)
(-0.541485 0 -1.69242)
(0.921094 0 -1.68993)
(2.37696 0 -1.66851)
(3.81561 0 -1.62901)
(5.22724 0 -1.57281)
(6.60298 0 -1.50149)
(7.93435 0 -1.41624)
(9.21203 0 -1.31725)
(10.4239 0 -1.2032)
(11.5533 0 -1.07095)
(12.5781 0 -0.915343)
(13.4708 0 -0.729042)
(14.199 0 -0.502299)
(14.7251 0 -0.223929)
(15.005 0 0.113584)
(14.9856 0 0.496984)
(14.615 0 0.877796)
(13.8644 0 1.20357)
(12.7276 0 1.45178)
(11.2442 0 1.60916)
(9.51334 0 1.66755)
(7.65922 0 1.62555)
(5.79949 0 1.50979)
(4.01394 0 1.36991)
(2.32687 0 1.25352)
(0.715001 0 1.19088)
(-0.872212 0 1.19499)
(-2.49327 0 1.26534)
(-4.19726 0 1.38773)
(-6.00441 0 1.53047)
(-7.88622 0 1.6452)
(-9.7595 0 1.68378)
(-11.5066 0 1.62306)
(-13.0057 0 1.46552)
(-14.1611 0 1.22033)
(-14.9372 0 0.901442)
(-15.3408 0 0.53145)
(-15.4012 0 0.160283)
(-15.1693 0 -0.166668)
(-14.6963 0 -0.436688)
(-14.0248 0 -0.65701)
(-13.1909 0 -0.838749)
(-12.2254 0 -0.991622)
(-11.1543 0 -1.12294)
(-9.99904 0 -1.23783)
(-8.77566 0 -1.33948)
(-7.49579 0 -1.42935)
(-6.168 0 -1.50735)
(-4.79967 0 -1.57232)
(-3.39847 0 -1.62254)
(-1.97313 0 -1.65631)
(-0.533468 0 -1.67232)
(1.02106 0 -3.16624)
(2.63242 0 -3.13222)
(4.2226 0 -3.06922)
(5.77884 0 -2.97907)
(7.28858 0 -2.86381)
(8.73917 0 -2.72504)
(10.1175 0 -2.56312)
(11.4095 0 -2.37658)
(12.6001 0 -2.162)
(13.6735 0 -1.91415)
(14.6132 0 -1.62642)
(15.4038 0 -1.29098)
(16.0314 0 -0.899145)
(16.4855 0 -0.441959)
(16.7592 0 0.0894995)
(16.8406 0 0.706162)
(16.6902 0 1.42106)
(16.2187 0 2.21832)
(15.3258 0 2.98781)
(13.9517 0 3.54556)
(12.1138 0 3.82716)
(9.93413 0 3.86957)
(7.59319 0 3.73393)
(5.23451 0 3.51792)
(2.92475 0 3.3255)
(0.664667 0 3.22646)
(-1.57977 0 3.24947)
(-3.84957 0 3.38644)
(-6.16729 0 3.59121)
(-8.50716 0 3.77619)
(-10.7673 0 3.83186)
(-12.7784 0 3.67667)
(-14.3747 0 3.25903)
(-15.4817 0 2.56987)
(-16.1225 0 1.75294)
(-16.382 0 0.975042)
(-16.3658 0 0.294963)
(-16.1392 0 -0.291938)
(-15.7228 0 -0.798098)
(-15.1242 0 -1.2324)
(-14.3528 0 -1.60323)
(-13.4219 0 -1.91922)
(-12.348 0 -2.18859)
(-11.1485 0 -2.41861)
(-9.84098 0 -2.61529)
(-8.44239 0 -2.78292)
(-6.96844 0 -2.9238)
(-5.4339 0 -3.03825)
(-3.85286 0 -3.12523)
(-2.2391 0 -3.18311)
(-0.606388 0 -3.21039)
(1.03145 0 -3.20631)
(2.66057 0 -3.17097)
(4.26716 0 -3.10538)
(5.83746 0 -3.01112)
(7.35764 0 -2.88975)
(8.81347 0 -2.74204)
(10.19 0 -2.56716)
(11.4711 0 -2.36231)
(12.6397 0 -2.12269)
(13.6781 0 -1.84194)
(14.569 0 -1.51251)
(15.2967 0 -1.126)
(15.8486 0 -0.673771)
(16.2164 0 -0.147528)
(16.3915 0 0.462237)
(16.3447 0 1.1685)
(15.9964 0 1.96662)
(15.2407 0 2.7699)
(14.0054 0 3.39519)
(12.2894 0 3.74091)
(10.1953 0 3.83524)
(7.9003 0 3.73605)
(5.55977 0 3.53559)
(3.25456 0 3.34164)
(0.994765 0 3.23161)
(-1.24971 0 3.24118)
(-3.52042 0 3.36887)
(-5.84519 0 3.57585)
(-8.20905 0 3.78168)
(-10.5245 0 3.87848)
(-12.6317 0 3.77876)
(-14.3564 0 3.42781)
(-15.6029 0 2.80051)
(-16.378 0 2.00667)
(-16.7553 0 1.22501)
(-16.8386 0 0.536403)
(-16.7051 0 -0.0566728)
(-16.3839 0 -0.567884)
(-15.8838 0 -1.00723)
(-15.2125 0 -1.38354)
(-14.3817 0 -1.70576)
(-13.4055 0 -1.9824)
(-12.2999 0 -2.221)
(-11.0813 0 -2.42783)
(-9.7654 0 -2.60769)
(-8.36693 0 -2.76351)
(-6.89965 0 -2.89624)
(-5.37655 0 -3.00512)
(-3.81023 0 -3.08838)
(-2.21328 0 -3.14396)
(-0.59852 0 -3.1702)
(1.06992 0 -4.84424)
(2.75656 0 -4.79249)
(4.41625 0 -4.69628)
(6.03266 0 -4.5576)
(7.5897 0 -4.37863)
(9.07142 0 -4.16101)
(10.4621 0 -3.90516)
(11.7466 0 -3.60987)
(12.9101 0 -3.27223)
(13.939 0 -2.888)
(14.8206 0 -2.45186)
(15.5439 0 -1.95768)
(16.0995 0 -1.39847)
(16.4797 0 -0.765942)
(16.6773 0 -0.0489068)
(16.6842 0 0.768863)
(16.4917 0 1.70249)
(16.092 0 2.74183)
(15.4642 0 3.83811)
(14.5203 0 4.90796)
(13.0894 0 5.77597)
(11.1144 0 6.20658)
(8.72178 0 6.2389)
(6.11911 0 6.05913)
(3.46068 0 5.84674)
(0.803495 0 5.72631)
(-1.84717 0 5.75018)
(-4.49546 0 5.90376)
(-7.12034 0 6.10371)
(-9.62762 0 6.19641)
(-11.825 0 5.99038)
(-13.5294 0 5.33237)
(-14.6835 0 4.32521)
(-15.4284 0 3.21222)
(-15.9057 0 2.11688)
(-16.1637 0 1.10623)
(-16.213 0 0.211556)
(-16.0619 0 -0.572623)
(-15.7192 0 -1.26343)
(-15.1926 0 -1.87352)
(-14.4899 0 -2.41142)
(-13.6205 0 -2.88403)
(-12.5959 0 -3.29752)
(-11.4291 0 -3.65745)
(-10.1351 0 -3.96856)
(-8.72981 0 -4.23436)
(-7.22995 0 -4.45678)
(-5.65281 0 -4.63607)
(-4.01587 0 -4.7712)
(-2.33676 0 -4.86053)
(-0.633207 0 -4.90249)
(1.07697 0 -4.89621)
(2.77589 0 -4.84184)
(4.44574 0 -4.74045)
(6.06884 0 -4.59371)
(7.62759 0 -4.40316)
(9.10454 0 -4.16957)
(10.4825 0 -3.89225)
(11.745 0 -3.56885)
(12.8762 0 -3.19549)
(13.8617 0 -2.76718)
(14.6887 0 -2.2782)
(15.3464 0 -1.7222)
(15.826 0 -1.09203)
(16.1196 0 -0.378361)
(16.2194 0 0.432911)
(16.1166 0 1.35839)
(15.803 0 2.39581)
(15.2638 0 3.50346)
(14.4304 0 4.60505)
(13.1398 0 5.54834)
(11.2947 0 6.08339)
(8.99579 0 6.19297)
(6.44292 0 6.05471)
(3.80673 0 5.85464)
(1.15754 0 5.72982)
(-1.49429 0 5.74496)
(-4.15355 0 5.89719)
(-6.80627 0 6.11594)
(-9.37358 0 6.25893)
(-11.6757 0 6.1391)
(-13.516 0 5.58506)
(-14.8051 0 4.63901)
(-15.6523 0 3.55089)
(-16.216 0 2.46298)
(-16.5609 0 1.44789)
(-16.7007 0 0.545012)
(-16.6433 0 -0.244689)
(-16.3974 0 -0.938381)
(-15.9708 0 -1.55093)
(-15.3707 0 -2.0925)
(-14.6052 0 -2.57096)
(-13.684 0 -2.99304)
(-12.6188 0 -3.36467)
(-11.4223 0 -3.69091)
(-10.1087 0 -3.9757)
(-8.69274 0 -4.22153)
(-7.18983 0 -4.42916)
(-5.61575 0 -4.5978)
(-3.98647 0 -4.7256)
(-2.31816 0 -4.81037)
(-0.627188 0 -4.85025)
(1.08139 0 -6.57095)
(2.78455 0 -6.49921)
(4.4564 0 -6.36548)
(6.07811 0 -6.17196)
(7.6313 0 -5.92109)
(9.09821 0 -5.61488)
(10.4619 0 -5.25424)
(11.7067 0 -4.83872)
(12.818 0 -4.36638)
(13.7831 0 -3.83415)
(14.5906 0 -3.23811)
(15.2307 0 -2.57373)
(15.6948 0 -1.83585)
(15.9757 0 -1.01813)
(16.0672 0 -0.111874)
(15.9663 0 0.894816)
(15.6769 0 2.01288)
(15.2078 0 3.24072)
(14.5607 0 4.559)
(13.7197 0 5.92314)
(12.6237 0 7.21804)
(11.1169 0 8.2379)
(9.03084 0 8.73877)
(6.48925 0 8.77775)
(3.7244 0 8.63619)
(0.882069 0 8.52876)
(-1.96952 0 8.54308)
(-4.77669 0 8.6557)
(-7.44779 0 8.72601)
(-9.79431 0 8.4922)
(-11.5925 0 7.72213)
(-12.8622 0 6.5283)
(-13.799 0 5.162)
(-14.5135 0 3.7887)
(-15.039 0 2.48637)
(-15.382 0 1.28546)
(-15.5352 0 0.197713)
(-15.4914 0 -0.782262)
(-15.2507 0 -1.66618)
(-14.8187 0 -2.46333)
(-14.2025 0 -3.17996)
(-13.411 0 -3.82084)
(-12.4544 0 -4.39018)
(-11.3445 0 -4.89179)
(-10.0953 0 -5.32894)
(-8.72218 0 -5.70394)
(-7.24241 0 -6.01783)
(-5.67439 0 -6.27029)
(-4.0375 0 -6.45994)
(-2.35175 0 -6.58491)
(-0.637575 0 -6.6435)
(1.0843 0 -6.63474)
(2.79307 0 -6.55879)
(4.46809 0 -6.41684)
(6.08899 0 -6.21071)
(7.63592 0 -5.9422)
(9.08971 0 -5.61246)
(10.4322 0 -5.22146)
(11.6467 0 -4.76783)
(12.718 0 -4.24895)
(13.6328 0 -3.66138)
(14.3797 0 -3.0012)
(14.9487 0 -2.2641)
(15.3317 0 -1.44504)
(15.5215 0 -0.537136)
(15.5138 0 0.469775)
(15.3103 0 1.58702)
(14.9195 0 2.81622)
(14.3461 0 4.14091)
(13.579 0 5.52326)
(12.5704 0 6.86437)
(11.1832 0 7.97465)
(9.22842 0 8.59888)
(6.77432 0 8.72476)
(4.05403 0 8.62245)
(1.22915 0 8.52714)
(-1.62496 0 8.54682)
(-4.45547 0 8.6764)
(-7.1808 0 8.79671)
(-9.62738 0 8.66267)
(-11.561 0 8.01386)
(-12.9403 0 6.89726)
(-13.9589 0 5.56821)
(-14.7465 0 4.20857)
(-15.3465 0 2.91104)
(-15.7695 0 1.71059)
(-16.0106 0 0.622118)
(-16.0614 0 -0.357124)
(-15.92 0 -1.23932)
(-15.5908 0 -2.03558)
(-15.08 0 -2.75382)
(-14.3954 0 -3.39996)
(-13.5458 0 -3.979)
(-12.5414 0 -4.49529)
(-11.394 0 -4.95257)
(-10.1167 0 -5.35365)
(-8.7245 0 -5.70011)
(-7.2334 0 -5.99202)
(-5.66059 0 -6.22813)
(-4.02399 0 -6.40628)
(-2.34213 0 -6.52401)
(-0.633934 0 -6.57927)
(1.06334 0 -8.27257)
(2.73668 0 -8.17771)
(4.37567 0 -8.0007)
(5.95977 0 -7.74426)
(7.46923 0 -7.41157)
(8.88528 0 -7.00564)
(10.1905 0 -6.52872)
(11.369 0 -5.98193)
(12.4068 0 -5.36511)
(13.2918 0 -4.67696)
(14.0136 0 -3.91517)
(14.5635 0 -3.07656)
(14.9341 0 -2.15707)
(15.1196 0 -1.1515)
(15.116 0 -0.05338)
(14.9227 0 1.14427)
(14.5452 0 2.44491)
(13.9939 0 3.84174)
(13.2796 0 5.31701)
(12.4098 0 6.84591)
(11.3784 0 8.38033)
(10.1293 0 9.79895)
(8.49752 0 10.8646)
(6.31457 0 11.3715)
(3.70124 0 11.4605)
(0.894888 0 11.4257)
(-1.94584 0 11.4149)
(-4.68052 0 11.3891)
(-7.12336 0 11.1239)
(-9.03902 0 10.3383)
(-10.4554 0 9.05896)
(-11.5688 0 7.54114)
(-12.4958 0 5.97443)
(-13.2616 0 4.43908)
(-13.8637 0 2.96922)
(-14.2923 0 1.587)
(-14.5363 0 0.306243)
(-14.587 0 -0.871198)
(-14.4424 0 -1.95034)
(-14.1055 0 -2.9369)
(-13.5819 0 -3.83547)
(-12.879 0 -4.64949)
(-12.006 0 -5.38162)
(-10.9737 0 -6.03387)
(-9.79517 0 -6.60749)
(-8.48548 0 -7.10279)
(-7.06175 0 -7.51901)
(-5.54292 0 -7.85435)
(-3.94934 0 -8.10634)
(-2.30246 0 -8.27233)
(-0.62448 0 -8.35012)
(1.06193 0 -8.33849)
(2.734 0 -8.23763)
(4.36915 0 -8.04907)
(5.94534 0 -7.77518)
(7.44137 0 -7.41862)
(8.83723 0 -6.98173)
(10.1144 0 -6.46605)
(11.2563 0 -5.87206)
(12.2484 0 -5.19919)
(13.0782 0 -4.44596)
(13.7352 0 -3.61022)
(14.211 0 -2.6891)
(14.4984 0 -1.6789)
(14.5923 0 -0.574724)
(14.4909 0 0.629277)
(14.1978 0 1.93708)
(13.723 0 3.34391)
(13.0775 0 4.8332)
(12.2701 0 6.38108)
(11.2991 0 7.946)
(10.1234 0 9.42529)
(8.59613 0 10.5991)
(6.52994 0 11.2338)
(3.98753 0 11.4067)
(1.21058 0 11.4144)
(-1.63441 0 11.4353)
(-4.40789 0 11.46)
(-6.93498 0 11.292)
(-8.97061 0 10.6363)
(-10.4827 0 9.45242)
(-11.6636 0 7.98479)
(-12.6508 0 6.4444)
(-13.4804 0 4.92637)
(-14.1532 0 3.46942)
(-14.6603 0 2.09628)
(-14.9907 0 0.822338)
(-15.1348 0 -0.348792)
(-15.089 0 -1.42216)
(-14.8547 0 -2.4048)
(-14.4367 0 -3.30284)
(-13.8412 0 -4.12112)
(-13.076 0 -4.86349)
(-12.1501 0 -5.53288)
(-11.0743 0 -6.13137)
(-9.86126 0 -6.65999)
(-8.52553 0 -7.11855)
(-7.08336 0 -7.50562)
(-5.55257 0 -7.81872)
(-3.95219 0 -8.05472)
(-2.30224 0 -8.21051)
(-0.623367 0 -8.28358)
(1.021 0 -9.92826)
(2.62646 0 -9.80872)
(4.19573 0 -9.58559)
(5.70735 0 -9.26233)
(7.14087 0 -8.84316)
(8.47717 0 -8.33243)
(9.69883 0 -7.73403)
(10.7903 0 -7.05096)
(11.7382 0 -6.28506)
(12.5312 0 -5.43697)
(13.1599 0 -4.50619)
(13.6168 0 -3.49118)
(13.8962 0 -2.38944)
(13.9939 0 -1.19772)
(13.9079 0 0.0876175)
(13.64 0 1.46928)
(13.1961 0 2.94602)
(12.5861 0 4.50891)
(11.8214 0 6.14028)
(10.9137 0 7.81452)
(9.87213 0 9.49388)
(8.69351 0 11.1175)
(7.3152 0 12.5534)
(5.57361 0 13.5695)
(3.35635 0 14.0557)
(0.830731 0 14.1844)
(-1.75576 0 14.1249)
(-4.17311 0 13.8281)
(-6.17647 0 13.0828)
(-7.72174 0 11.8233)
(-8.97807 0 10.2506)
(-10.0698 0 8.56116)
(-11.024 0 6.84729)
(-11.8355 0 5.15646)
(-12.4933 0 3.5205)
(-12.9856 0 1.9619)
(-13.3013 0 0.495168)
(-13.432 0 -0.873871)
(-13.3743 0 -2.14522)
(-13.1288 0 -3.32086)
(-12.6992 0 -4.40285)
(-12.0914 0 -5.39269)
(-11.313 0 -6.29115)
(-10.374 0 -7.0982)
(-9.28637 0 -7.81288)
(-8.06463 0 -8.43328)
(-6.7255 0 -8.95657)
(-5.28783 0 -9.37914)
(-3.77232 0 -9.69705)
(-2.20107 0 -9.90656)
(-0.597222 0 -10.0048)
(1.01549 0 -9.99007)
(2.61314 0 -9.86276)
(4.1721 0 -9.62477)
(5.66946 0 -9.27931)
(7.08346 0 -8.83021)
(8.39383 0 -8.28137)
(9.58224 0 -7.63623)
(10.6325 0 -6.8974)
(11.5309 0 -6.06652)
(12.2658 0 -5.14431)
(12.828 0 -4.13058)
(13.2102 0 -3.02437)
(13.4071 0 -1.824)
(13.4158 0 -0.527332)
(13.2364 0 0.867323)
(12.8738 0 2.35887)
(12.3374 0 3.93938)
(11.6384 0 5.59212)
(10.7888 0 7.29258)
(9.79881 0 9.00557)
(8.6696 0 10.6767)
(7.35473 0 12.1918)
(5.70368 0 13.3298)
(3.57421 0 13.9394)
(1.08896 0 14.1571)
(-1.50334 0 14.1728)
(-3.97391 0 13.9736)
(-6.07187 0 13.3569)
(-7.70095 0 12.2099)
(-9.01489 0 10.7055)
(-10.1556 0 9.05864)
(-11.1629 0 7.37611)
(-12.0344 0 5.70999)
(-12.76 0 4.0943)
(-13.3277 0 2.55247)
(-13.7267 0 1.10001)
(-13.9476 0 -0.256472)
(-13.9856 0 -1.51716)
(-13.8403 0 -2.68516)
(-13.5142 0 -3.76408)
(-13.0118 0 -4.757)
(-12.3394 0 -5.66616)
(-11.5051 0 -6.49285)
(-10.5185 0 -7.23728)
(-9.39172 0 -7.8985)
(-8.13858 0 -8.47436)
(-6.77515 0 -8.96161)
(-5.31934 0 -9.35617)
(-3.79066 0 -9.65368)
(-2.20984 0 -9.85005)
(-0.598553 0 -9.94213)
(0.958842 0 -11.4984)
(2.4654 0 -11.3532)
(3.93501 0 -11.0824)
(5.34592 0 -10.6902)
(6.67758 0 -10.1823)
(7.91103 0 -9.56451)
(9.02926 0 -8.84278)
(10.0174 0 -8.02222)
(10.8629 0 -7.10686)
(11.5554 0 -6.09951)
(12.0869 0 -5.00166)
(12.4512 0 -3.81361)
(12.6441 0 -2.53473)
(12.6634 0 -1.16385)
(12.5091 0 0.299898)
(12.1844 0 1.85566)
(11.6958 0 3.49838)
(11.053 0 5.21661)
(10.2673 0 6.99169)
(9.35113 0 8.79809)
(8.3168 0 10.6018)
(7.17421 0 12.3563)
(5.91935 0 13.9821)
(4.48156 0 15.3261)
(2.73698 0 16.1942)
(0.696413 0 16.5369)
(-1.41771 0 16.4131)
(-3.34459 0 15.8023)
(-4.93574 0 14.6688)
(-6.26606 0 13.1396)
(-7.45067 0 11.408)
(-8.52425 0 9.58892)
(-9.48061 0 7.7429)
(-10.3083 0 5.90956)
(-10.9946 0 4.1191)
(-11.5273 0 2.39455)
(-11.8956 0 0.752158)
(-12.0913 0 -0.798757)
(-12.1096 0 -2.25417)
(-11.9494 0 -3.61267)
(-11.6124 0 -4.87372)
(-11.1027 0 -6.03661)
(-10.4265 0 -7.09996)
(-9.59237 0 -8.06147)
(-8.61128 0 -8.91782)
(-7.49673 0 -9.66464)
(-6.26474 0 -10.2968)
(-4.93369 0 -10.8084)
(-3.52401 0 -11.194)
(-2.05785 0 -11.4483)
(-0.558581 0 -11.5675)
(0.949692 0 -11.5497)
(2.44266 0 -11.3951)
(3.89635 0 -11.1063)
(5.28768 0 -10.6875)
(6.59489 0 -10.1439)
(7.79804 0 -9.48149)
(8.87936 0 -8.70573)
(9.82346 0 -7.82167)
(10.6175 0 -6.83339)
(11.2512 0 -5.74396)
(11.7166 0 -4.55541)
(12.0079 0 -3.26892)
(12.1217 0 -1.88509)
(12.0571 0 -0.40457)
(11.8159 0 1.17076)
(11.4039 0 2.83572)
(10.8301 0 4.57932)
(10.1058 0 6.38346)
(9.24347 0 8.22341)
(8.2556 0 10.0667)
(7.153 0 11.8703)
(5.93711 0 13.5637)
(4.55216 0 15.0103)
(2.87363 0 16.0123)
(0.874984 0 16.4894)
(-1.24548 0 16.4946)
(-3.2246 0 16.0203)
(-4.88054 0 15.0152)
(-6.25883 0 13.5779)
(-7.48143 0 11.9077)
(-8.59657 0 10.1345)
(-9.60124 0 8.32629)
(-10.4846 0 6.52513)
(-11.2343 0 4.76266)
(-11.838 0 3.06256)
(-12.2847 0 1.44166)
(-12.5655 0 -0.0904459)
(-12.6747 0 -1.53006)
(-12.61 0 -2.87693)
(-12.3721 0 -4.13212)
(-11.9637 0 -5.29668)
(-11.3896 0 -6.37107)
(-10.6563 0 -7.35466)
(-9.77252 0 -8.24564)
(-8.74914 0 -9.04088)
(-7.59932 0 -9.73603)
(-6.33852 0 -10.3257)
(-4.98428 0 -10.804)
(-3.55601 0 -11.165)
(-2.07462 0 -11.4034)
(-0.562113 0 -11.5152)
(0.880544 0 -12.9558)
(2.26296 0 -12.7849)
(3.60866 0 -12.4661)
(4.89613 0 -12.0049)
(6.10524 0 -11.4082)
(7.21762 0 -10.6841)
(8.21703 0 -9.84035)
(9.08959 0 -8.88452)
(9.82382 0 -7.82302)
(10.4107 0 -6.66093)
(10.8435 0 -5.40193)
(11.1176 0 -4.04838)
(11.2307 0 -2.60165)
(11.1822 0 -1.06277)
(10.9741 0 0.566592)
(10.6109 0 2.28264)
(10.0998 0 4.07738)
(9.45093 0 5.93709)
(8.67577 0 7.84159)
(7.78754 0 9.76428)
(6.80047 0 11.6714)
(5.72926 0 13.5204)
(4.58887 0 15.2491)
(3.37377 0 16.7453)
(2.0297 0 17.8275)
(0.52852 0 18.3205)
(-1.02074 0 18.1489)
(-2.45525 0 17.3352)
(-3.72789 0 16.0023)
(-4.89485 0 14.344)
(-5.99054 0 12.5119)
(-7.0063 0 10.5906)
(-7.92659 0 8.63067)
(-8.73675 0 6.66997)
(-9.42277 0 4.73928)
(-9.97199 0 2.86296)
(-10.3734 0 1.05918)
(-10.6183 0 -0.659927)
(-10.7009 0 -2.28712)
(-10.6182 0 -3.81804)
(-10.3702 0 -5.24955)
(-9.959 0 -6.5786)
(-9.38926 0 -7.80145)
(-8.66803 0 -8.91337)
(-7.80493 0 -9.90846)
(-6.81224 0 -10.7798)
(-5.70494 0 -11.5196)
(-4.50051 0 -12.1199)
(-3.2187 0 -12.5729)
(-1.88113 0 -12.872)
(-0.510823 0 -13.0123)
(0.8684 0 -12.9913)
(2.23247 0 -12.8094)
(3.55772 0 -12.4698)
(4.82144 0 -11.9778)
(6.00246 0 -11.3406)
(7.08157 0 -10.5658)
(8.04193 0 -9.6616)
(8.86924 0 -8.6355)
(9.55193 0 -7.49421)
(10.081 0 -6.24331)
(10.4502 0 -4.88726)
(10.6554 0 -3.42956)
(10.6949 0 -1.87322)
(10.5698 0 -0.221549)
(10.2835 0 1.52052)
(9.84274 0 3.34463)
(9.2568 0 5.23715)
(8.5372 0 7.1783)
(7.69699 0 9.1421)
(6.75043 0 11.096)
(5.71228 0 12.9998)
(4.59817 0 14.7971)
(3.40939 0 16.3886)
(2.09834 0 17.604)
(0.622803 0 18.258)
(-0.930773 0 18.2548)
(-2.39537 0 17.5968)
(-3.69954 0 16.3871)
(-4.89172 0 14.8155)
(-6.01517 0 13.0474)
(-7.06596 0 11.1784)
(-8.0287 0 9.2635)
(-8.88884 0 7.34257)
(-9.63233 0 5.44739)
(-10.2464 0 3.60289)
(-10.7197 0 1.82754)
(-11.0431 0 0.133442)
(-11.2099 0 -1.47268)
(-11.2164 0 -2.98774)
(-11.0612 0 -4.41035)
(-10.7453 0 -5.73949)
(-10.2718 0 -6.97355)
(-9.64576 0 -8.10986)
(-8.87448 0 -9.14438)
(-7.96762 0 -10.0717)
(-6.9373 0 -10.885)
(-5.79802 0 -11.5766)
(-4.56662 0 -12.1387)
(-3.26195 0 -12.5633)
(-1.90455 0 -12.8439)
(-0.516207 0 -12.9756)
(0.789124 0 -14.2776)
(2.02694 0 -14.0814)
(3.22913 0 -13.7156)
(4.37494 0 -13.1869)
(5.4451 0 -12.5038)
(6.42225 0 -11.6764)
(7.29125 0 -10.7148)
(8.03945 0 -9.62904)
(8.65671 0 -8.428)
(9.13543 0 -7.1192)
(9.47041 0 -5.70864)
(9.65876 0 -4.20085)
(9.69974 0 -2.59934)
(9.59477 0 -0.907312)
(9.34744 0 0.871213)
(8.96375 0 2.72989)
(8.45211 0 4.65827)
(7.82312 0 6.64058)
(7.08927 0 8.65488)
(6.26492 0 10.6728)
(5.36644 0 12.6591)
(4.41255 0 14.5695)
(3.42572 0 16.3445)
(2.42743 0 17.8862)
(1.41616 0 19.0301)
(0.375601 0 19.5724)
(-0.675798 0 19.3836)
(-1.70005 0 18.5043)
(-2.69718 0 17.1134)
(-3.68215 0 15.4075)
(-4.64367 0 13.5191)
(-5.55767 0 11.5241)
(-6.4033 0 9.473)
(-7.16279 0 7.40558)
(-7.82051 0 5.35426)
(-8.36284 0 3.34518)
(-8.77802 0 1.39846)
(-9.05641 0 -0.471359)
(-9.1909 0 -2.25431)
(-9.17697 0 -3.9434)
(-9.01259 0 -5.53298)
(-8.69815 0 -7.01757)
(-8.23652 0 -8.39096)
(-7.6331 0 -9.64585)
(-6.89597 0 -10.7737)
(-6.03598 0 -11.7647)
(-5.06675 0 -12.6086)
(-4.00453 0 -13.2948)
(-2.86796 0 -13.8134)
(-1.67767 0 -14.1563)
(-0.455778 0 -14.3172)
(0.774729 0 -14.2931)
(1.9906 0 -14.0845)
(3.16901 0 -13.6953)
(4.28818 0 -13.1323)
(5.32795 0 -12.4041)
(6.27026 0 -11.521)
(7.09953 0 -10.4935)
(7.80286 0 -9.33171)
(8.37011 0 -8.04523)
(8.79391 0 -6.64224)
(9.06952 0 -5.12976)
(9.19475 0 -3.51372)
(9.16981 0 -1.79959)
(8.99739 0 0.00678436)
(8.68265 0 1.89781)
(8.2334 0 3.86244)
(7.65985 0 5.88475)
(6.97426 0 7.94309)
(6.19077 0 10.0097)
(5.32554 0 12.0504)
(4.39696 0 14.0232)
(3.42704 0 15.8732)
(2.439 0 17.5129)
(1.4368 0 18.7911)
(0.403594 0 19.5041)
(-0.649088 0 19.4988)
(-1.68174 0 18.782)
(-2.68783 0 17.5151)
(-3.6843 0 15.8997)
(-4.66492 0 14.0822)
(-5.60637 0 12.1471)
(-6.48725 0 10.1488)
(-7.28952 0 8.12859)
(-7.99736 0 6.12011)
(-8.5969 0 4.14995)
(-9.07613 0 2.23837)
(-9.42496 0 0.399681)
(-9.63563 0 -1.35687)
(-9.7028 0 -3.02572)
(-9.62343 0 -4.60319)
(-9.39667 0 -6.08607)
(-9.02383 0 -7.47065)
(-8.50837 0 -8.75203)
(-7.85612 0 -9.92382)
(-7.07533 0 -10.9781)
(-6.17679 0 -11.9057)
(-5.17382 0 -12.6965)
(-4.08216 0 -13.3402)
(-2.91971 0 -13.8272)
(-1.70617 0 -14.1492)
(-0.462606 0 -14.3004)
(0.687025 0 -15.4454)
(1.76361 0 -15.2249)
(2.80648 0 -14.8142)
(3.7961 0 -14.2209)
(4.71446 0 -13.4556)
(5.54556 0 -12.5303)
(6.27568 0 -11.4576)
(6.89362 0 -10.25)
(7.39077 0 -8.91902)
(7.76108 0 -7.47465)
(8.00096 0 -5.92529)
(8.1092 0 -4.27774)
(8.08677 0 -2.53769)
(7.93682 0 -0.710511)
(7.66463 0 1.19758)
(7.27766 0 3.17794)
(6.78554 0 5.21796)
(6.19991 0 7.29983)
(5.53437 0 9.39966)
(4.8046 0 11.4869)
(4.02877 0 13.5234)
(3.22828 0 15.4616)
(2.42892 0 17.2387)
(1.65951 0 18.761)
(0.937888 0 19.8799)
(0.255199 0 20.4087)
(-0.417159 0 20.2222)
(-1.11139 0 19.3599)
(-1.84912 0 17.991)
(-2.62659 0 16.2929)
(-3.41813 0 14.3872)
(-4.19515 0 12.35)
(-4.93376 0 10.2356)
(-5.61392 0 8.08707)
(-6.21844 0 5.93926)
(-6.73247 0 3.82042)
(-7.1432 0 1.75272)
(-7.43986 0 -0.247082)
(-7.61392 0 -2.16659)
(-7.65923 0 -3.99638)
(-7.57199 0 -5.7284)
(-7.35081 0 -7.35469)
(-6.99676 0 -8.86653)
(-6.51352 0 -10.2539)
(-5.9075 0 -11.5056)
(-5.18791 0 -12.609)
(-4.36676 0 -13.5511)
(-3.45877 0 -14.3187)
(-2.48107 0 -14.8998)
(-1.45287 0 -15.2842)
(-0.394909 0 -15.4648)
(0.67117 0 -15.4378)
(1.72346 0 -15.2038)
(2.74048 0 -14.7674)
(3.70184 0 -14.1368)
(4.58884 0 -13.3227)
(5.38491 0 -12.3374)
(6.07605 0 -11.1942)
(6.65094 0 -9.9061)
(7.10112 0 -8.48528)
(7.4209 0 -6.94275)
(7.60729 0 -5.28813)
(7.65985 0 -3.52988)
(7.58062 0 -1.67588)
(7.37401 0 0.265576)
(7.04679 0 2.28447)
(6.60808 0 4.36738)
(6.06921 0 6.4962)
(5.4435 0 8.64726)
(4.74638 0 10.7906)
(3.9957 0 12.8894)
(3.2124 0 14.8984)
(2.42162 0 16.7588)
(1.65258 0 18.3854)
(0.927033 0 19.6411)
(0.241336 0 20.3405)
(-0.43052 0 20.3371)
(-1.1211 0 19.6377)
(-1.85547 0 18.3962)
(-2.63523 0 16.7959)
(-3.43764 0 14.9695)
(-4.23398 0 13.0004)
(-4.99973 0 10.9465)
(-5.71442 0 8.85256)
(-6.36055 0 6.75469)
(-6.92303 0 4.68161)
(-7.38877 0 2.65557)
(-7.74664 0 0.692916)
(-7.98758 0 -1.19488)
(-8.10468 0 -2.99997)
(-8.09324 0 -4.7165)
(-7.95067 0 -6.33911)
(-7.67655 0 -7.86187)
(-7.27271 0 -9.27759)
(-6.74337 0 -10.5775)
(-6.09522 0 -11.751)
(-5.33757 0 -12.7865)
(-4.48228 0 -13.6713)
(-3.54369 0 -14.3928)
(-2.53838 0 -14.9394)
(-1.48477 0 -15.3011)
(-0.402744 0 -15.4709)
(0.576215 0 -16.444)
(1.47805 0 -16.2009)
(2.34883 0 -15.7482)
(3.17067 0 -15.0949)
(3.92724 0 -14.2533)
(4.6042 0 -13.2376)
(5.1895 0 -12.0629)
(5.67361 0 -10.7441)
(6.04958 0 -9.29547)
(6.31298 0 -7.72941)
(6.46186 0 -6.05677)
(6.49661 0 -4.28667)
(6.41987 0 -2.42698)
(6.23636 0 -0.485197)
(5.9529 0 1.53036)
(5.57834 0 3.60897)
(5.12346 0 5.73599)
(4.60095 0 7.89169)
(4.02533 0 10.0501)
(3.41318 0 12.1784)
(2.78355 0 14.2354)
(2.1584 0 16.1699)
(1.56303 0 17.9159)
(1.02437 0 19.3818)
(0.56015 0 20.4371)
(0.159424 0 20.9271)
(-0.223862 0 20.7509)
(-0.646341 0 19.9402)
(-1.13963 0 18.6327)
(-1.69951 0 16.978)
(-2.30163 0 15.0878)
(-2.91888 0 13.0397)
(-3.52723 0 10.8917)
(-4.10589 0 8.6902)
(-4.63678 0 6.47278)
(-5.10412 0 4.26992)
(-5.49409 0 2.10583)
(-5.79481 0 -0.00066192)
(-5.99644 0 -2.03495)
(-6.09128 0 -3.98534)
(-6.07391 0 -5.84142)
(-5.94122 0 -7.59282)
(-5.69257 0 -9.22827)
(-5.3299 0 -10.7351)
(-4.85785 0 -12.0993)
(-4.28385 0 -13.3055)
(-3.61811 0 -14.3377)
(-2.87351 0 -15.1805)
(-2.06535 0 -15.8194)
(-1.211 0 -16.2425)
(-0.329375 0 -16.4413)
(0.559692 0 -16.4115)
(1.43611 0 -16.1539)
(2.28023 0 -15.6738)
(3.07348 0 -14.9807)
(3.79898 0 -14.0872)
(4.44203 0 -13.0083)
(4.99041 0 -11.7595)
(5.43465 0 -10.3568)
(5.76804 0 -8.8152)
(5.98665 0 -7.14842)
(6.08921 0 -5.36872)
(6.07704 0 -3.48708)
(5.95384 0 -1.51377)
(5.72563 0 0.540597)
(5.40068 0 2.66372)
(4.98938 0 4.84)
(4.50411 0 7.0493)
(3.95919 0 9.26586)
(3.37098 0 11.4574)
(2.75819 0 13.5844)
(2.14241 0 15.5977)
(1.5486 0 17.4352)
(1.00414 0 19.012)
(0.530204 0 20.2056)
(0.12248 0 20.8616)
(-0.259641 0 20.8614)
(-0.673738 0 20.2105)
(-1.15778 0 19.0335)
(-1.71361 0 17.4839)
(-2.31934 0 15.6813)
(-2.94795 0 13.7092)
(-3.57502 0 11.6291)
(-4.17937 0 9.48936)
(-4.74265 0 7.32868)
(-5.24884 0 5.17814)
(-5.68391 0 3.06197)
(-6.03567 0 0.998472)
(-6.29382 0 -0.99886)
(-6.45004 0 -2.92008)
(-6.49807 0 -4.75721)
(-6.4337 0 -6.50277)
(-6.25489 0 -8.14862)
(-5.96184 0 -9.68523)
(-5.55713 0 -11.1013)
(-5.04584 0 -12.3839)
(-4.4356 0 -13.5187)
(-3.73662 0 -14.4904)
(-2.96155 0 -15.2841)
(-2.12529 0 -15.8861)
(-1.24463 0 -16.2849)
(-0.337773 0 -16.4722)
(0.45828 0 -17.2612)
(1.17434 0 -16.9976)
(1.86272 0 -16.5068)
(2.5076 0 -15.7994)
(3.09466 0 -14.8891)
(3.61154 0 -13.7925)
(4.04811 0 -12.527)
(4.39666 0 -11.1101)
(4.65198 0 -9.5584)
(4.81129 0 -7.88695)
(4.87423 0 -6.10894)
(4.84272 0 -4.23576)
(4.72083 0 -2.27745)
(4.51473 0 -0.243559)
(4.23251 0 1.8556)
(3.88417 0 4.00737)
(3.48145 0 6.19534)
(3.03771 0 8.39796)
(2.56795 0 10.5874)
(2.08892 0 12.7287)
(1.61922 0 14.7784)
(1.17937 0 16.6827)
(0.791316 0 18.3744)
(0.475809 0 19.7662)
(0.243335 0 20.7458)
(0.0778719 0 21.1915)
(-0.0696839 0 21.0275)
(-0.25865 0 20.2775)
(-0.524358 0 19.0464)
(-0.868853 0 17.456)
(-1.27503 0 15.6069)
(-1.72075 0 13.5756)
(-2.18436 0 11.4226)
(-2.64597 0 9.19662)
(-3.08766 0 6.93748)
(-3.49331 0 4.67772)
(-3.8485 0 2.44341)
(-4.14051 0 0.255256)
(-4.3584 0 -1.87014)
(-4.49319 0 -3.91892)
(-4.53801 0 -5.87847)
(-4.48825 0 -7.73604)
(-4.34164 0 -9.47786)
(-4.09842 0 -11.0887)
(-3.76146 0 -12.5517)
(-3.33631 0 -13.8488)
(-2.83118 0 -14.9615)
(-2.25689 0 -15.8715)
(-1.62658 0 -16.5623)
(-0.955425 0 -17.0203)
(-0.260089 0 -17.2355)
(0.441852 0 -17.2033)
(1.13257 0 -16.9243)
(1.79467 0 -16.4048)
(2.41181 0 -15.6556)
(2.96932 0 -14.6913)
(3.45462 0 -13.5289)
(3.85755 0 -12.1869)
(4.17058 0 -10.6837)
(4.38888 0 -9.03729)
(4.51026 0 -7.26394)
(4.53514 0 -5.37853)
(4.46641 0 -3.39451)
(4.30929 0 -1.32449)
(4.0712 0 0.818728)
(3.76164 0 3.02072)
(3.39205 0 5.26394)
(2.97558 0 7.52638)
(2.52709 0 9.7804)
(2.06316 0 11.9917)
(1.60222 0 14.1181)
(1.16464 0 16.1084)
(0.772434 0 17.8985)
(0.447262 0 19.4061)
(0.202929 0 20.5241)
(0.0295656 0 21.1294)
(-0.116703 0 21.1325)
(-0.296109 0 20.5374)
(-0.550042 0 19.4384)
(-0.886124 0 17.9587)
(-1.28979 0 16.2042)
(-1.73949 0 14.2562)
(-2.21352 0 12.1779)
(-2.69184 0 10.0202)
(-3.15634 0 7.82416)
(-3.59075 0 5.62287)
(-3.9805 0 3.44239)
(-4.31264 0 1.30282)
(-4.57588 0 -0.780518)
(-4.76071 0 -2.79574)
(-4.85952 0 -4.73285)
(-4.86669 0 -6.5823)
(-4.7787 0 -8.33375)
(-4.59421 0 -9.97537)
(-4.3142 0 -11.4935)
(-3.94208 0 -12.8726)
(-3.48371 0 -14.0958)
(-2.94745 0 -15.1454)
(-2.34403 0 -16.0042)
(-1.68635 0 -16.6563)
(-0.989163 0 -17.0887)
(-0.268626 0 -17.2918)
(0.334521 0 -17.887)
(0.855833 0 -17.6054)
(1.35352 0 -17.0815)
(1.81419 0 -16.3269)
(2.22589 0 -15.3573)
(2.5785 0 -14.1911)
(2.86401 0 -12.848)
(3.07667 0 -11.348)
(3.21305 0 -9.7101)
(3.27202 0 -7.95167)
(3.2547 0 -6.08821)
(3.16435 0 -4.13328)
(3.00631 0 -2.099)
(2.78786 0 0.00312333)
(2.5181 0 2.16092)
(2.20783 0 4.36003)
(1.8693 0 6.58247)
(1.51613 0 8.80521)
(1.16317 0 10.999)
(0.826437 0 13.1272)
(0.522968 0 15.1452)
(0.270359 0 16.9983)
(0.0856015 0 18.6204)
(-0.0180186 0 19.931)
(-0.03835 0 20.8351)
(0.00411819 0 21.2387)
(0.062721 0 21.0865)
(0.0829254 0 20.3956)
(0.0288979 0 19.2441)
(-0.108236 0 17.7294)
(-0.319817 0 15.94)
(-0.590095 0 13.9491)
(-0.901395 0 11.817)
(-1.23611 0 9.59354)
(-1.57747 0 7.32013)
(-1.90976 0 5.03077)
(-2.21854 0 2.75304)
(-2.49065 0 0.509234)
(-2.71446 0 -1.68229)
(-2.88002 0 -3.80573)
(-2.97933 0 -5.84637)
(-3.00647 0 -7.78921)
(-2.95774 0 -9.61811)
(-2.83179 0 -11.3153)
(-2.62974 0 -12.8614)
(-2.35519 0 -14.2358)
(-2.01423 0 -15.4172)
(-1.6154 0 -16.3851)
(-1.1694 0 -17.1209)
(-0.68885 0 -17.609)
(-0.187783 0 -17.8386)
(0.318895 0 -17.8042)
(0.816043 0 -17.5067)
(1.28892 0 -16.9531)
(1.72381 0 -16.1554)
(2.10856 0 -15.1301)
(2.433 0 -13.8965)
(2.68921 0 -12.4755)