/*--------------------------------*- C++ -*----------------------------------*\
| =========                 |                                                 |
| \\      /  F ield         | OpenFOAM: The Open Source CFD Toolbox           |
|  \\    /   O peration     | Version:  2.3.0                                 |
|   \\  /    A nd           | Web:      www.OpenFOAM.org                      |
|    \\/     M anipulation  |                                                 |
\*---------------------------------------------------------------------------*/
FoamFile
{
    version     2.0;
    format      ascii;
    class       volVectorField;
    location    "6000";
    object      U;
}
// * * * * * * * * * * * * * * * * * * * * * * * * * * * * * * * * * * * * * //

dimensions      [0 1 -1 0 0 0 0];

internalField   nonuniform List<vector> 
3060
(
(0.601462 0 -0.411951)
(1.54707 0 -0.39847)
(2.46972 0 -0.373504)
(3.35631 0 -0.337661)
(4.1948 0 -0.291907)
(4.97455 0 -0.237876)
(5.6865 0 -0.178165)
(6.32327 0 -0.116404)
(6.87898 0 -0.0568168)
(7.34856 0 -0.00327323)
(7.72627 0 0.0416868)
(8.00394 0 0.0772597)
(8.16924 0 0.104046)
(8.2048 0 0.1233)
(8.0895 0 0.137033)
(7.80305 0 0.150148)
(7.33334 0 0.169638)
(6.68676 0 0.195404)
(5.88966 0 0.216377)
(4.99185 0 0.221102)
(4.05555 0 0.208984)
(3.13945 0 0.184658)
(2.2882 0 0.155267)
(1.52051 0 0.128266)
(0.828004 0 0.109037)
(0.183529 0 0.100192)
(-0.449164 0 0.102528)
(-1.10808 0 0.11584)
(-1.82663 0 0.138726)
(-2.62532 0 0.167481)
(-3.50165 0 0.195573)
(-4.42453 0 0.215283)
(-5.34151 0 0.220492)
(-6.18979 0 0.207788)
(-6.90939 0 0.183044)
(-7.45954 0 0.159068)
(-7.82147 0 0.14207)
(-7.99723 0 0.127509)
(-8.00492 0 0.108577)
(-7.8663 0 0.0821572)
(-7.60179 0 0.0469355)
(-7.22682 0 0.0022058)
(-6.7524 0 -0.0514054)
(-6.18649 0 -0.111498)
(-5.5359 0 -0.174155)
(-4.80784 0 -0.234896)
(-4.01084 0 -0.289738)
(-3.15501 0 -0.335768)
(-2.25197 0 -0.371143)
(-1.31463 0 -0.394772)
(-0.356985 0 -0.40597)
(0.606224 0 -0.404287)
(1.56 0 -0.389818)
(2.48976 0 -0.363073)
(3.38177 0 -0.324811)
(4.22342 0 -0.276283)
(5.00347 0 -0.219587)
(5.71223 0 -0.157932)
(6.34154 0 -0.0955118)
(6.88443 0 -0.0367693)
(7.33394 0 0.0147004)
(7.68151 0 0.0569672)
(7.91506 0 0.0898094)
(8.0179 0 0.114179)
(7.96855 0 0.131551)
(7.74594 0 0.145906)
(7.33451 0 0.164616)
(6.7378 0 0.189883)
(5.97986 0 0.212701)
(5.10759 0 0.220787)
(4.18323 0 0.211403)
(3.26791 0 0.18878)
(2.40992 0 0.159771)
(1.6329 0 0.132016)
(0.932512 0 0.111372)
(0.283928 0 0.100844)
(-0.348167 0 0.10144)
(-1.00191 0 0.113111)
(-1.71195 0 0.134709)
(-2.50158 0 0.162965)
(-3.37268 0 0.191777)
(-4.29904 0 0.213527)
(-5.23142 0 0.221686)
(-6.10894 0 0.212172)
(-6.87081 0 0.1886)
(-7.47313 0 0.163754)
(-7.89506 0 0.146362)
(-8.13516 0 0.133852)
(-8.20929 0 0.118966)
(-8.13798 0 0.0978249)
(-7.94199 0 0.0688678)
(-7.63727 0 0.0308681)
(-7.23497 0 -0.0164704)
(-6.74246 0 -0.071898)
(-6.16512 0 -0.132457)
(-5.50815 0 -0.194081)
(-4.77775 0 -0.252625)
(-3.98175 0 -0.304708)
(-3.12963 0 -0.348005)
(-2.23244 0 -0.381089)
(-1.3025 0 -0.403113)
(-0.353169 0 -0.413526)
(0.905246 0 -1.65404)
(2.33546 0 -1.63324)
(3.74932 0 -1.59502)
(5.13756 0 -1.54098)
(6.49195 0 -1.47302)
(7.80497 0 -1.39284)
(9.06899 0 -1.30133)
(10.2748 0 -1.19804)
(11.41 0 -1.08084)
(12.4574 0 -0.945835)
(13.3949 0 -0.787201)
(14.1952 0 -0.597066)
(14.8255 0 -0.36562)
(15.2471 0 -0.0825883)
(15.4142 0 0.256155)
(15.2743 0 0.632917)
(14.7773 0 1.00114)
(13.899 0 1.31295)
(12.6446 0 1.54006)
(11.0701 0 1.67059)
(9.28293 0 1.7036)
(7.40479 0 1.64297)
(5.54394 0 1.52081)
(3.76692 0 1.38519)
(2.08732 0 1.27829)
(0.476838 0 1.22595)
(-1.1151 0 1.23835)
(-2.74364 0 1.3128)
(-4.45226 0 1.43297)
(-6.25394 0 1.56573)
(-8.11284 0 1.66391)
(-9.94083 0 1.68273)
(-11.6201 0 1.60271)
(-13.0286 0 1.42293)
(-14.0773 0 1.14752)
(-14.7358 0 0.794591)
(-15.0133 0 0.403277)
(-14.9488 0 0.0290884)
(-14.5976 0 -0.292435)
(-14.011 0 -0.556638)
(-13.2325 0 -0.772321)
(-12.2994 0 -0.949882)
(-11.2434 0 -1.09824)
(-10.0903 0 -1.22426)
(-8.86066 0 -1.33278)
(-7.56958 0 -1.42676)
(-6.22832 0 -1.50732)
(-4.84595 0 -1.57407)
(-3.43097 0 -1.62566)
(-1.9923 0 -1.66041)
(-0.539662 0 -1.67693)
(0.916778 0 -1.67446)
(2.36677 0 -1.65311)
(3.80021 0 -1.61385)
(5.20758 0 -1.55818)
(6.58012 0 -1.48775)
(7.90931 0 -1.40373)
(9.18569 0 -1.30616)
(10.3972 0 -1.19346)
(11.5273 0 -1.0622)
(12.5542 0 -0.907008)
(13.4505 0 -0.720491)
(14.1831 0 -0.493242)
(14.7131 0 -0.214832)
(14.9953 0 0.121792)
(14.9763 0 0.505332)
(14.6025 0 0.891897)
(13.8424 0 1.22754)
(12.6951 0 1.4792)
(11.2057 0 1.63306)
(9.47571 0 1.68737)
(7.62882 0 1.64455)
(5.77829 0 1.53254)
(3.99953 0 1.3989)
(2.31456 0 1.28813)
(0.700481 0 1.22887)
(-0.890936 0 1.23358)
(-2.51517 0 1.30164)
(-4.21877 0 1.41917)
(-6.02104 0 1.55588)
(-7.89491 0 1.66639)
(-9.76066 0 1.70454)
(-11.5045 0 1.64621)
(-13.0046 0 1.49021)
(-14.1642 0 1.23933)
(-14.9426 0 0.909341)
(-15.3431 0 0.533507)
(-15.3979 0 0.163042)
(-15.1596 0 -0.161684)
(-14.6797 0 -0.430392)
(-14.0018 0 -0.650096)
(-13.1629 0 -0.831181)
(-12.1943 0 -0.983006)
(-11.1221 0 -1.1129)
(-9.9671 0 -1.22618)
(-8.74507 0 -1.32627)
(-7.46749 0 -1.41485)
(-6.14298 0 -1.49197)
(-4.77902 0 -1.55649)
(-3.38326 0 -1.60658)
(-1.96421 0 -1.6404)
(-0.531363 0 -1.65647)
(1.01559 0 -3.14551)
(2.61918 0 -3.11247)
(4.20179 0 -3.05137)
(5.75072 0 -2.96408)
(7.25338 0 -2.85273)
(8.69704 0 -2.71886)
(10.0685 0 -2.56267)
(11.354 0 -2.38237)
(12.5386 0 -2.17398)
(13.6071 0 -1.93155)
(14.5437 0 -1.64756)
(15.3334 0 -1.31324)
(15.9631 0 -0.919147)
(16.4222 0 -0.456178)
(16.703 0 0.0836769)
(16.7931 0 0.708544)
(16.6523 0 1.42466)
(16.1929 0 2.20807)
(15.315 0 2.95675)
(13.9443 0 3.5097)
(12.1055 0 3.79571)
(9.9324 0 3.84352)
(7.60293 0 3.71731)
(5.25368 0 3.51413)
(2.94845 0 3.33264)
(0.689406 0 3.2383)
(-1.55444 0 3.25822)
(-3.82085 0 3.38519)
(-6.13053 0 3.57658)
(-8.45892 0 3.75082)
(-10.7113 0 3.8027)
(-12.7254 0 3.64768)
(-14.3323 0 3.23332)
(-15.4384 0 2.5625)
(-16.0723 0 1.76608)
(-16.327 0 0.992202)
(-16.305 0 0.303815)
(-16.073 0 -0.294076)
(-15.653 0 -0.809274)
(-15.0533 0 -1.24899)
(-14.2834 0 -1.62129)
(-13.3566 0 -1.93538)
(-12.2883 0 -2.20047)
(-11.0955 0 -2.42487)
(-9.79523 0 -2.61548)
(-8.40388 0 -2.77731)
(-6.93712 0 -2.9131)
(-5.40973 0 -3.02346)
(-3.8359 0 -3.10743)
(-2.22945 0 -3.16338)
(-0.604143 0 -3.18978)
(1.02626 0 -3.18584)
(2.648 0 -3.15167)
(4.24732 0 -3.08831)
(5.81046 0 -2.99736)
(7.32353 0 -2.88037)
(8.7722 0 -2.73797)
(10.1415 0 -2.56904)
(11.4156 0 -2.37024)
(12.5777 0 -2.13602)
(13.6109 0 -1.85907)
(14.4985 0 -1.53078)
(15.2254 0 -1.14184)
(15.7792 0 -0.683234)
(16.1513 0 -0.147265)
(16.3322 0 0.473389)
(16.2911 0 1.18578)
(15.9481 0 1.97518)
(15.1996 0 2.75593)
(13.9614 0 3.36745)
(12.2357 0 3.71152)
(10.1419 0 3.8065)
(7.85657 0 3.71301)
(5.52703 0 3.52458)
(3.22859 0 3.34361)
(0.971169 0 3.24192)
(-1.27292 0 3.25247)
(-3.5419 0 3.37352)
(-5.86085 0 3.56852)
(-8.21417 0 3.76199)
(-10.5189 0 3.85083)
(-12.6218 0 3.74625)
(-14.3485 0 3.39171)
(-15.588 0 2.77463)
(-16.3481 0 2.00203)
(-16.7147 0 1.23002)
(-16.7887 0 0.537368)
(-16.647 0 -0.0644775)
(-16.3192 0 -0.583616)
(-15.815 0 -1.02791)
(-15.1426 0 -1.40558)
(-14.3133 0 -1.72595)
(-13.3409 0 -1.99835)
(-12.2407 0 -2.23126)
(-11.0284 0 -2.43185)
(-9.71912 0 -2.60558)
(-8.32752 0 -2.75587)
(-6.86725 0 -2.88397)
(-5.35132 0 -2.98923)
(-3.7924 0 -3.0699)
(-2.2031 0 -3.12385)
(-0.596142 0 -3.14935)
(1.06438 0 -4.8114)
(2.7432 0 -4.76066)
(4.39522 0 -4.66633)
(6.0042 0 -4.5304)
(7.55405 0 -4.35501)
(9.02884 0 -4.14174)
(10.4129 0 -3.89089)
(11.6909 0 -3.60108)
(12.8483 0 -3.26921)
(13.8714 0 -2.89071)
(14.748 0 -2.45995)
(15.4671 0 -1.97045)
(16.0199 0 -1.41504)
(16.399 0 -0.785464)
(16.5978 0 -0.0704889)
(16.6089 0 0.746868)
(16.4239 0 1.683)
(16.0329 0 2.7274)
(15.4118 0 3.82756)
(14.4711 0 4.89232)
(13.0506 0 5.74259)
(11.0846 0 6.16947)
(8.70569 0 6.21346)
(6.12115 0 6.05052)
(3.47735 0 5.85284)
(0.830469 0 5.739)
(-1.81083 0 5.75881)
(-4.44705 0 5.89923)
(-7.05583 0 6.08256)
(-9.54892 0 6.16337)
(-11.7438 0 5.95876)
(-13.4482 0 5.32277)
(-14.6053 0 4.33339)
(-15.3517 0 3.22037)
(-15.8245 0 2.11839)
(-16.0774 0 1.10108)
(-16.1238 0 0.202738)
(-15.9731 0 -0.582336)
(-15.6331 0 -1.27248)
(-15.111 0 -1.88078)
(-14.4142 0 -2.41575)
(-13.5515 0 -2.88439)
(-12.5339 0 -3.29318)
(-11.3745 0 -3.64807)
(-10.0879 0 -3.95416)
(-8.69 0 -4.21524)
(-7.19753 0 -4.43347)
(-5.62781 0 -4.60927)
(-3.99836 0 -4.74175)
(-2.32683 0 -4.82932)
(-0.630905 0 -4.87046)
(1.07162 0 -4.86432)
(2.76293 0 -4.81104)
(4.42525 0 -4.71168)
(6.04092 0 -4.56784)
(7.5923 0 -4.38101)
(9.06192 0 -4.15179)
(10.4326 0 -3.87932)
(11.6877 0 -3.56101)
(12.8117 0 -3.19267)
(13.7903 0 -2.76894)
(14.6109 0 -2.28372)
(15.2632 0 -1.73041)
(15.7387 0 -1.10179)
(16.0303 0 -0.388511)
(16.1307 0 0.424179)
(16.0316 0 1.35411)
(15.7235 0 2.39855)
(15.188 0 3.51191)
(14.3515 0 4.61003)
(13.0599 0 5.53112)
(11.2145 0 6.04943)
(8.92149 0 6.1622)
(6.38447 0 6.03789)
(3.76356 0 5.85426)
(1.12545 0 5.74053)
(-1.51713 0 5.75685)
(-4.16521 0 5.89991)
(-6.80204 0 6.1027)
(-9.35148 0 6.22957)
(-11.6424 0 6.10118)
(-13.473 0 5.55672)
(-14.7541 0 4.62684)
(-15.5982 0 3.54049)
(-16.1544 0 2.44782)
(-16.4907 0 1.42805)
(-16.6239 0 0.52344)
(-16.5633 0 -0.265356)
(-16.317 0 -0.956782)
(-15.8922 0 -1.56621)
(-15.2954 0 -2.1038)
(-14.5344 0 -2.57741)
(-13.6186 0 -2.99402)
(-12.5592 0 -3.3599)
(-11.3691 0 -3.68046)
(-10.0621 0 -3.9599)
(-8.6529 0 -4.20091)
(-7.15704 0 -4.40441)
(-5.59024 0 -4.5697)
(-3.96849 0 -4.69501)
(-2.30792 0 -4.77815)
(-0.624817 0 -4.81729)
(1.07584 0 -6.5302)
(2.77114 0 -6.45956)
(4.43528 0 -6.32785)
(6.04947 0 -6.13729)
(7.59539 0 -5.89028)
(9.0553 0 -5.58877)
(10.4123 0 -5.2336)
(11.6507 0 -4.82413)
(12.756 0 -4.35821)
(13.7156 0 -3.83239)
(14.5181 0 -3.24231)
(15.1541 0 -2.58296)
(15.6152 0 -1.84881)
(15.8945 0 -1.0335)
(15.9862 0 -0.128732)
(15.8874 0 0.876445)
(15.6021 0 1.99165)
(15.1391 0 3.21498)
(14.4991 0 4.53008)
(13.6651 0 5.89408)
(12.5757 0 7.18639)
(11.0726 0 8.19602)
(8.99659 0 8.69244)
(6.47451 0 8.74629)
(3.73166 0 8.62398)
(0.908945 0 8.52623)
(-1.92418 0 8.53579)
(-4.71191 0 8.63179)
(-7.36481 0 8.68504)
(-9.70372 0 8.45218)
(-11.5081 0 7.70386)
(-12.7811 0 6.52246)
(-13.7155 0 5.15818)
(-14.4262 0 3.78487)
(-14.9478 0 2.48453)
(-15.2885 0 1.28482)
(-15.4415 0 0.196427)
(-15.3996 0 -0.784591)
(-15.1625 0 -1.66871)
(-14.7354 0 -2.46459)
(-14.1252 0 -3.17835)
(-13.3404 0 -3.81504)
(-12.3909 0 -4.3793)
(-11.2884 0 -4.87547)
(-10.0466 0 -5.30725)
(-8.68108 0 -5.67727)
(-7.20894 0 -5.98679)
(-5.64861 0 -6.23566)
(-4.01947 0 -6.42259)
(-2.34153 0 -6.54576)
(-0.635201 0 -6.60352)
(1.07882 0 -6.59491)
(2.77977 0 -6.52008)
(4.44702 0 -6.38021)
(6.06023 0 -6.17708)
(7.59953 0 -5.91241)
(9.04578 0 -5.58725)
(10.3808 0 -5.2014)
(11.5879 0 -4.75323)
(12.652 0 -4.23979)
(13.5599 0 -3.65716)
(14.3003 0 -3.00093)
(14.8637 0 -2.26634)
(15.2422 0 -1.44819)
(15.429 0 -0.539844)
(15.4201 0 0.468089)
(15.2174 0 1.58554)
(14.8295 0 2.81299)
(14.2604 0 4.136)
(13.4969 0 5.51859)
(12.49 0 6.85575)
(11.0977 0 7.9501)
(9.13979 0 8.55583)
(6.69714 0 8.68727)
(3.99621 0 8.60362)
(1.19046 0 8.52247)
(-1.64512 0 8.54304)
(-4.45541 0 8.65957)
(-7.15871 0 8.76017)
(-9.588 0 8.61554)
(-11.5146 0 7.97598)
(-12.89 0 6.86767)
(-13.9019 0 5.53998)
(-14.6825 0 4.181)
(-15.2756 0 2.88732)
(-15.6932 0 1.69103)
(-15.9308 0 0.604886)
(-15.9802 0 -0.373035)
(-15.8393 0 -1.25363)
(-15.5121 0 -2.04721)
(-15.0048 0 -2.7614)
(-14.3247 0 -3.40228)
(-13.4803 0 -3.97524)
(-12.4817 0 -4.48511)
(-11.3404 0 -4.93607)
(-10.0697 0 -5.33127)
(-8.68433 0 -5.67249)
(-7.20036 0 -5.95995)
(-5.63493 0 -6.19247)
(-4.00594 0 -6.36794)
(-2.33187 0 -6.48393)
(-0.631564 0 -6.53839)
(1.05778 0 -8.22455)
(2.72322 0 -8.13088)
(4.35445 0 -7.95606)
(5.93099 0 -7.70279)
(7.43314 0 -7.37421)
(8.84219 0 -6.97325)
(10.1407 0 -6.50205)
(11.3129 0 -5.96159)
(12.3448 0 -5.3515)
(13.2243 0 -4.67019)
(13.9412 0 -3.91502)
(14.4871 0 -3.0825)
(14.8548 0 -2.16831)
(15.039 0 -1.16723)
(15.0358 0 -0.0729422)
(14.845 0 1.12123)
(14.4719 0 2.41841)
(13.9267 0 3.81167)
(13.2197 0 5.28322)
(12.3592 0 6.80782)
(11.3377 0 8.33792)
(10.0965 0 9.75198)
(8.46905 0 10.812)
(6.29624 0 11.3203)
(3.70461 0 11.4235)
(0.921038 0 11.3996)
(-1.89802 0 11.3846)
(-4.61326 0 11.3452)
(-7.04586 0 11.0775)
(-8.96809 0 10.3069)
(-10.3865 0 9.04065)
(-11.495 0 7.52919)
(-12.4149 0 5.96643)
(-13.1748 0 4.43351)
(-13.7727 0 2.96517)
(-14.1989 0 1.58402)
(-14.4422 0 0.304121)
(-14.4943 0 -0.872145)
(-14.353 0 -1.94938)
(-14.0209 0 -2.93306)
(-13.5032 0 -3.8277)
(-12.807 0 -4.63694)
(-11.9411 0 -5.36374)
(-10.9163 0 -6.01046)
(-9.74531 0 -6.57869)
(-8.44331 0 -7.069)
(-7.02738 0 -7.48082)
(-5.51642 0 -7.81252)
(-3.9308 0 -8.06174)
(-2.29194 0 -8.22589)
(-0.622018 0 -8.30283)
(1.05634 0 -8.29135)
(2.72037 0 -8.19166)
(4.34754 0 -8.00524)
(5.91583 0 -7.73441)
(7.40407 0 -7.38175)
(8.79222 0 -6.94947)
(10.0618 0 -6.43896)
(11.1963 0 -5.85048)
(12.1811 0 -5.18317)
(13.0039 0 -4.43522)
(13.6546 0 -3.60411)
(14.1248 0 -2.68671)
(14.4078 0 -1.67919)
(14.4991 0 -0.576763)
(14.3969 0 0.626126)
(14.1051 0 1.933)
(13.6334 0 3.3386)
(12.9925 0 4.82615)
(12.1915 0 6.37121)
(11.2277 0 7.93176)
(10.0556 0 9.40337)
(8.52431 0 10.5628)
(6.45482 0 11.1857)
(3.92669 0 11.3661)
(1.17005 0 11.3867)
(-1.65291 0 11.4076)
(-4.40356 0 11.4187)
(-6.91093 0 11.2392)
(-8.94024 0 10.5858)
(-10.4473 0 9.40772)
(-11.6197 0 7.9444)
(-12.5971 0 6.40847)
(-13.418 0 4.89454)
(-14.0838 0 3.4412)
(-14.5854 0 2.07155)
(-14.912 0 0.800977)
(-15.0543 0 -0.366673)
(-15.0086 0 -1.43613)
(-14.7762 0 -2.41413)
(-14.3616 0 -3.30669)
(-13.7705 0 -4.11877)
(-13.0104 0 -4.85447)
(-12.0902 0 -5.51707)
(-11.0205 0 -6.10897)
(-9.81403 0 -6.63144)
(-8.48514 0 -7.08451)
(-7.05013 0 -7.46688)
(-5.52676 0 -7.77615)
(-3.93404 0 -8.00928)
(-2.29191 0 -8.16319)
(-0.620974 0 -8.23539)
(1.01537 0 -9.87221)
(2.6128 0 -9.75396)
(4.17417 0 -9.53322)
(5.67811 0 -9.21339)
(7.10423 0 -8.79865)
(8.43346 0 -8.29326)
(9.64842 0 -7.701)
(10.7336 0 -7.02471)
(11.6757 0 -6.26604)
(12.4634 0 -5.42539)
(13.0875 0 -4.50197)
(13.5407 0 -3.49401)
(13.8176 0 -2.39884)
(13.9142 0 -1.21318)
(13.829 0 0.0664515)
(13.5638 0 1.44255)
(13.1246 0 2.91369)
(12.5214 0 4.471)
(11.7653 0 6.09714)
(10.8679 0 7.76653)
(9.83819 0 9.44114)
(8.67228 0 11.0606)
(7.30433 0 12.4928)
(5.56844 0 13.5086)
(3.36377 0 13.9995)
(0.856096 0 14.1348)
(-1.71437 0 14.0748)
(-4.1204 0 13.7769)
(-6.12574 0 13.0395)
(-7.67202 0 11.791)
(-8.92024 0 10.2259)
(-10.0019 0 8.54159)
(-10.9472 0 6.83194)
(-11.7515 0 5.14467)
(-12.404 0 3.51219)
(-12.893 0 1.95688)
(-13.2077 0 0.49323)
(-13.3395 0 -0.872667)
(-13.2846 0 -2.14049)
(-13.0436 0 -3.31199)
(-12.6196 0 -4.38916)
(-12.0181 0 -5.3736)
(-11.2467 0 -6.26631)
(-10.315 0 -7.06753)
(-9.23498 0 -7.77658)
(-8.02105 0 -8.3918)
(-6.68989 0 -8.91052)
(-5.26034 0 -9.32931)
(-3.75306 0 -9.64434)
(-2.19012 0 -9.85194)
(-0.594625 0 -9.94926)
(1.00972 0 -9.93474)
(2.59904 0 -9.80865)
(4.14974 0 -9.5729)
(5.63895 0 -9.23063)
(7.04492 0 -8.78558)
(8.34743 0 -8.24155)
(9.52816 0 -7.60179)
(10.571 0 -6.86872)
(11.4622 0 -6.04374)
(12.1904 0 -5.12728)
(12.7465 0 -4.11888)
(13.1235 0 -3.01737)
(13.3165 0 -1.82102)
(13.3228 0 -0.52782)
(13.1431 0 0.863678)
(12.7822 0 2.35205)
(12.2496 0 3.92915)
(11.5566 0 5.57836)
(10.7148 0 7.27514)
(9.73417 0 8.98368)
(8.61508 0 10.6493)
(7.30664 0 12.1559)
(5.65278 0 13.2832)
(3.52491 0 13.8874)
(1.05315 0 14.1077)
(-1.52253 0 14.1219)
(-3.97552 0 13.9158)
(-6.06403 0 13.2962)
(-7.68708 0 12.151)
(-8.98956 0 10.6506)
(-10.1178 0 9.00816)
(-11.1137 0 7.33045)
(-11.9754 0 5.66921)
(-12.6929 0 4.05885)
(-13.2546 0 2.52258)
(-13.6494 0 1.07564)
(-13.8682 0 -0.275323)
(-13.9061 0 -1.53029)
(-13.7624 0 -2.69216)
(-13.4392 0 -3.76444)
(-12.9409 0 -4.75026)
(-12.2734 0 -5.65206)
(-11.4446 0 -6.4714)
(-10.4641 0 -7.20875)
(-9.3438 0 -7.8634)
(-8.09753 0 -8.43338)
(-6.74133 0 -8.91557)
(-5.29306 0 -9.30602)
(-3.77216 0 -9.60042)
(-2.1993 0 -9.79475)
(-0.596086 0 -9.8859)
(0.953122 0 -11.4341)
(2.45145 0 -11.2903)
(3.91298 0 -11.022)
(5.31605 0 -10.6336)
(6.64017 0 -10.1303)
(7.86645 0 -9.51824)
(8.97792 0 -8.80304)
(9.95978 0 -7.98971)
(10.7995 0 -7.08212)
(11.4869 0 -6.08285)
(12.0141 0 -4.9932)
(12.375 0 -3.81329)
(12.5657 0 -2.54235)
(12.5843 0 -1.17919)
(12.4311 0 0.276982)
(12.1093 0 1.82521)
(11.6256 0 3.46035)
(10.9897 0 5.171)
(10.2129 0 6.93868)
(9.30762 0 8.73818)
(8.28586 0 10.536)
(7.15706 0 12.2863)
(5.9166 0 13.9103)
(4.48906 0 15.256)
(2.75129 0 16.1296)
(0.719417 0 16.4769)
(-1.38773 0 16.3572)
(-3.31286 0 15.7511)
(-4.90368 0 14.6227)
(-6.22535 0 13.099)
(-7.39758 0 11.3724)
(-8.45976 0 9.55879)
(-9.40624 0 7.71866)
(-10.2261 0 5.89122)
(-10.9067 0 4.10649)
(-11.4359 0 2.38736)
(-11.8028 0 0.75014)
(-11.9991 0 -0.79568)
(-12.0198 0 -2.24586)
(-11.8635 0 -3.59883)
(-11.5317 0 -4.85399)
(-11.028 0 -6.01071)
(-10.3586 0 -7.06778)
(-9.53169 0 -8.02309)
(-8.55823 0 -8.87354)
(-7.45161 0 -9.61497)
(-6.22779 0 -10.2424)
(-4.90509 0 -10.7501)
(-3.50394 0 -11.1327)
(-2.04641 0 -11.3851)
(-0.555826 0 -11.5034)
(0.943746 0 -11.4857)
(2.42805 0 -11.3324)
(3.87317 0 -11.0459)
(5.25606 0 -10.6304)
(6.55501 0 -10.0911)
(7.75013 0 -9.43361)
(8.82367 0 -8.66346)
(9.76033 0 -7.78546)
(10.5473 0 -6.80349)
(11.1745 0 -5.7204)
(11.6341 0 -4.53802)
(11.9207 0 -3.25739)
(12.0311 0 -1.87907)
(11.9646 0 -0.403788)
(11.7235 0 1.16638)
(11.3135 0 2.82608)
(10.7439 0 4.56412)
(10.0259 0 6.36245)
(9.17207 0 8.19645)
(8.19462 0 10.034)
(7.10381 0 11.8323)
(5.90017 0 13.5208)
(4.52176 0 14.9619)
(2.84291 0 15.9595)
(0.847807 0 16.4323)
(-1.26491 0 16.4336)
(-3.23583 0 15.9546)
(-4.88506 0 14.9449)
(-6.25168 0 13.5073)
(-7.45983 0 11.8397)
(-8.56155 0 10.0713)
(-9.55413 0 8.26926)
(-10.4272 0 6.47515)
(-11.1686 0 4.72013)
(-11.7661 0 3.02758)
(-12.2085 0 1.41419)
(-12.487 0 -0.11043)
(-12.5957 0 -1.5425)
(-12.5322 0 -2.88166)
(-12.2969 0 -4.1289)
(-11.8923 0 -5.28536)
(-11.3228 0 -6.35161)
(-10.5949 0 -7.32724)
(-9.71712 0 -8.21065)
(-8.70023 0 -8.99888)
(-7.55736 0 -9.68777)
(-6.30389 0 -10.2721)
(-4.95734 0 -10.746)
(-3.53702 0 -11.1037)
(-2.06378 0 -11.3399)
(-0.559541 0 -11.4507)
(0.874694 0 -12.8831)
(2.24862 0 -12.7138)
(3.586 0 -12.3977)
(4.8654 0 -11.9405)
(6.06677 0 -11.3489)
(7.17184 0 -10.6309)
(8.16442 0 -9.79417)
(9.03069 0 -8.84613)
(9.75927 0 -7.79302)
(10.3412 0 -6.63976)
(10.7699 0 -5.38986)
(11.041 0 -4.04553)
(11.1522 0 -2.60808)
(11.1033 0 -1.0785)
(10.8964 0 0.541526)
(10.5362 0 2.24814)
(10.0301 0 4.03335)
(9.38788 0 5.88355)
(8.62128 0 7.7788)
(7.74333 0 9.69283)
(6.76805 0 11.5925)
(5.70978 0 13.4364)
(4.58303 0 15.1639)
(3.38023 0 16.6646)
(2.04367 0 17.7572)
(0.546794 0 18.2604)
(-1.00022 0 18.0942)
(-2.43299 0 17.2808)
(-3.69903 0 15.9478)
(-4.85413 0 14.2916)
(-5.93761 0 12.4643)
(-6.94231 0 10.5498)
(-7.8531 0 8.59758)
(-8.65558 0 6.6448)
(-9.33591 0 4.7219)
(-9.88146 0 2.85309)
(-10.2812 0 1.05651)
(-10.5263 0 -0.655631)
(-10.6108 0 -2.27594)
(-10.5316 0 -3.79996)
(-10.2883 0 -5.22451)
(-9.88286 0 -6.54654)
(-9.31963 0 -7.76246)
(-8.60553 0 -8.86768)
(-7.75006 0 -9.85649)
(-6.76541 0 -10.7221)
(-5.66647 0 -11.4569)
(-4.47067 0 -12.0531)
(-3.1977 0 -12.5029)
(-1.86912 0 -12.8)
(-0.507884 0 -12.9393)
(0.862251 0 -12.9185)
(2.21729 0 -12.738)
(3.53361 0 -12.4008)
(4.78858 0 -11.9124)
(5.96109 0 -11.2795)
(7.03198 0 -10.51)
(7.98448 0 -9.61181)
(8.80437 0 -8.5922)
(9.48017 0 -7.45776)
(10.0031 0 -6.21389)
(10.3668 0 -4.86491)
(10.5677 0 -3.41423)
(10.6043 0 -1.86484)
(10.4777 0 -0.220123)
(10.1918 0 1.51487)
(9.75329 0 3.33166)
(9.17165 0 5.21656)
(8.45834 0 7.14983)
(7.62638 0 9.10572)
(6.68981 0 11.0521)
(5.66311 0 12.9495)
(4.56143 0 14.7428)
(3.3837 0 16.333)
(2.07763 0 17.5492)
(0.603669 0 18.2022)
(-0.947163 0 18.1927)
(-2.40695 0 17.524)
(-3.70241 0 16.3055)
(-4.88159 0 14.7312)
(-5.99155 0 12.9656)
(-7.0297 0 11.1025)
(-7.98109 0 9.19544)
(-8.83144 0 7.28337)
(-9.56693 0 5.39753)
(-10.1748 0 3.56252)
(-10.6439 0 1.79664)
(-10.9648 0 0.111891)
(-11.1309 0 -1.48496)
(-11.1383 0 -2.99079)
(-10.9854 0 -4.4042)
(-10.673 0 -5.72419)
(-10.2039 0 -6.94927)
(-9.58308 0 -8.07692)
(-8.81772 0 -9.10326)
(-7.91738 0 -10.023)
(-6.89409 0 -10.8296)
(-5.76231 0 -11.5155)
(-4.53879 0 -12.0728)
(-3.2423 0 -12.4939)
(-1.89331 0 -12.7722)
(-0.513495 0 -12.9027)
(0.783119 0 -14.1963)
(2.01213 0 -14.0017)
(3.2057 0 -13.6389)
(4.34318 0 -13.1144)
(5.40539 0 -12.4369)
(6.37505 0 -11.616)
(7.23711 0 -10.662)
(7.979 0 -9.58466)
(8.59065 0 -8.39272)
(9.06457 0 -7.09358)
(9.39567 0 -5.69308)
(9.5812 0 -4.19566)
(9.62059 0 -2.60475)
(9.51541 0 -0.923528)
(9.26942 0 0.844002)
(8.8887 0 2.6915)
(8.38169 0 4.60859)
(7.75898 0 6.57963)
(7.03297 0 8.58302)
(6.21785 0 10.5909)
(5.32968 0 12.5686)
(4.38677 0 14.4732)
(3.41115 0 16.2473)
(2.42361 0 17.7951)
(1.42116 0 18.9522)
(0.387271 0 19.5081)
(-0.65838 0 19.3245)
(-1.67594 0 18.4425)
(-2.66359 0 17.0485)
(-3.6376 0 15.3436)
(-4.58845 0 13.4605)
(-5.4926 0 11.4734)
(-6.32957 0 9.43156)
(-7.08189 0 7.37385)
(-7.73416 0 5.33223)
(-8.27283 0 3.33259)
(-8.68616 0 1.39494)
(-8.96447 0 -0.466143)
(-9.10052 0 -2.24062)
(-9.08962 0 -3.92142)
(-8.92954 0 -5.50288)
(-8.62048 0 -6.97951)
(-8.16512 0 -8.34521)
(-7.56871 0 -9.59278)
(-6.8392 0 -10.7138)
(-5.98735 0 -11.6987)
(-5.02668 0 -12.5372)
(-3.97337 0 -13.219)
(-2.84598 0 -13.7344)
(-1.66506 0 -14.075)
(-0.45264 0 -14.2349)
(0.768368 0 -14.211)
(1.9748 0 -14.0039)
(3.14392 0 -13.6173)
(4.25401 0 -13.058)
(5.28501 0 -12.3346)
(6.21893 0 -11.4571)
(7.04026 0 -10.436)
(7.73619 0 -9.28127)
(8.2967 0 -8.00229)
(8.71453 0 -6.60715)
(8.98513 0 -5.10274)
(9.10646 0 -3.49494)
(9.07895 0 -1.78919)
(8.90546 0 0.00859026)
(8.59135 0 1.89075)
(8.14449 0 3.84617)
(7.57515 0 5.85893)
(6.89554 0 7.90752)
(6.11968 0 9.9645)
(5.2635 0 11.9962)
(4.34505 0 13.9617)
(3.38596 0 15.8075)
(2.40874 0 17.4475)
(1.4153 0 18.7297)
(0.388322 0 19.4444)
(-0.658505 0 19.4317)
(-1.68405 0 18.7009)
(-2.6807 0 17.4226)
(-3.6662 0 15.8033)
(-4.63564 0 13.9883)
(-5.56627 0 12.0599)
(-6.43713 0 10.0706)
(-7.23056 0 8.06081)
(-7.93102 0 6.06336)
(-8.52477 0 4.10446)
(-8.99988 0 2.20413)
(-9.34626 0 0.376522)
(-9.5561 0 -1.36914)
(-9.62394 0 -3.0273)
(-9.54659 0 -4.59428)
(-9.32304 0 -6.06692)
(-8.95443 0 -7.4416)
(-8.44409 0 -8.71352)
(-7.79772 0 -9.87645)
(-7.02349 0 -10.9226)
(-6.13211 0 -11.8429)
(-5.13681 0 -12.6275)
(-4.05327 0 -13.2661)
(-2.89927 0 -13.7493)
(-1.69444 0 -14.0688)
(-0.459727 0 -14.2188)
(0.680851 0 -15.355)
(1.74828 0 -15.1364)
(2.7822 0 -14.7288)
(3.76319 0 -14.1402)
(4.67336 0 -13.3808)
(5.49679 0 -12.4626)
(6.21985 0 -11.3981)
(6.83143 0 -10.1997)
(7.323 0 -8.87859)
(7.68861 0 -7.44477)
(7.92478 0 -5.90649)
(8.0304 0 -4.27046)
(8.00657 0 -2.54231)
(7.85655 0 -0.727351)
(7.58571 0 1.16823)
(7.20157 0 3.13585)
(6.71375 0 5.16303)
(6.13384 0 7.23217)
(5.47529 0 9.31978)
(4.75357 0 11.3959)
(3.98655 0 13.4232)
(3.19523 0 15.3554)
(2.40505 0 17.1318)
(1.64485 0 18.6604)
(0.932976 0 19.7927)
(0.260903 0 20.3349)
(-0.400284 0 20.1534)
(-1.08345 0 19.2882)
(-1.81064 0 17.916)
(-2.5782 0 16.2191)
(-3.36035 0 14.319)
(-4.12863 0 12.2906)
(-4.85943 0 10.1867)
(-5.53299 0 8.04926)
(-6.13236 0 5.91276)
(-6.6428 0 3.80505)
(-7.05157 0 1.74813)
(-7.34788 0 -0.241295)
(-7.52314 0 -2.15081)
(-7.57108 0 -3.97095)
(-7.48777 0 -5.69365)
(-7.27163 0 -7.31096)
(-6.92362 0 -8.81424)
(-6.44726 0 -10.1936)
(-5.84885 0 -11.4379)
(-5.13748 0 -12.5346)
(-4.32509 0 -13.4709)
(-3.42627 0 -14.2338)
(-2.45809 0 -14.8113)
(-1.43965 0 -15.1934)
(-0.391566 0 -15.3728)
(0.664597 0 -15.346)
(1.70704 0 -15.1136)
(2.71439 0 -14.6801)
(3.66636 0 -14.0535)
(4.54433 0 -13.2445)
(5.33184 0 -12.2653)
(6.01497 0 -11.1291)
(6.58251 0 -9.84865)
(7.02609 0 -8.4361)
(7.34016 0 -6.90232)
(7.52186 0 -5.25684)
(7.57091 0 -3.50806)
(7.48948 0 -1.66386)
(7.28214 0 0.267453)
(6.95576 0 2.27583)
(6.51951 0 4.34782)
(5.98469 0 6.46543)
(5.36458 0 8.60516)
(4.67443 0 10.7375)
(3.93186 0 12.8263)
(3.1575 0 14.8271)
(2.37623 0 16.6831)
(1.61724 0 18.3099)
(0.902363 0 19.5699)
(0.227801 0 20.2712)
(-0.432963 0 20.2605)
(-1.11313 0 19.5472)
(-1.83792 0 18.2942)
(-2.60848 0 16.6896)
(-3.40168 0 14.8656)
(-4.18892 0 12.9036)
(-4.94606 0 10.8595)
(-5.65298 0 8.77713)
(-6.29248 0 6.69165)
(-6.84966 0 4.63135)
(-7.31154 0 2.61811)
(-7.66705 0 0.6681)
(-7.90708 0 -1.2073)
(-8.02469 0 -3.00031)
(-8.01506 0 -4.7051)
(-7.8755 0 -6.31635)
(-7.60545 0 -7.82823)
(-7.20663 0 -9.23363)
(-6.68315 0 -10.5239)
(-6.04163 0 -11.6886)
(-5.29127 0 -12.7163)
(-4.44386 0 -13.5944)
(-3.51364 0 -14.3104)
(-2.51708 0 -14.8528)
(-1.47251 0 -15.2118)
(-0.399681 0 -15.3804)
(0.569871 0 -16.3443)
(1.4622 0 -16.1031)
(2.3237 0 -15.6539)
(3.13662 0 -15.0056)
(3.88474 0 -14.1705)
(4.55383 0 -13.1625)
(5.13194 0 -11.9967)
(5.60964 0 -10.6878)
(5.98005 0 -9.24993)
(6.23884 0 -7.69538)
(6.38413 0 -6.03488)
(6.41642 0 -4.27746)
(6.33842 0 -2.43093)
(6.15492 0 -0.5027)
(5.8728 0 1.49896)
(5.50089 0 3.56344)
(5.04998 0 5.67629)
(4.53262 0 7.81804)
(3.96321 0 9.96323)
(3.35811 0 12.0796)
(2.73611 0 14.1269)
(2.11891 0 16.0553)
(1.53172 0 17.8003)
(1.00186 0 19.2719)
(0.548296 0 20.3387)
(0.16078 0 20.8405)
(-0.208006 0 20.6691)
(-0.616928 0 19.8568)
(-1.09884 0 18.5475)
(-1.64901 0 16.8949)
(-2.24233 0 15.0111)
(-2.85151 0 12.9724)
(-3.45264 0 10.8359)
(-4.02512 0 8.64672)
(-4.55108 0 6.442)
(-5.01487 0 4.25177)
(-5.40275 0 2.1)
(-5.70288 0 0.00540661)
(-5.90537 0 -2.01743)
(-6.00247 0 -3.95682)
(-5.98865 0 -5.80235)
(-5.8607 0 -7.54369)
(-5.61785 0 -9.16961)
(-5.26193 0 -10.6676)
(-4.79745 0 -12.0236)
(-4.23176 0 -13.2225)
(-3.57493 0 -14.2485)
(-2.83975 0 -15.0861)
(-2.04142 0 -15.7211)
(-1.19718 0 -16.1416)
(-0.32583 0 -16.3392)
(0.552926 0 -16.3097)
(1.41912 0 -16.0538)
(2.25322 0 -15.5767)
(3.03677 0 -14.888)
(3.75301 0 -14.0001)
(4.38734 0 -12.9278)
(4.92767 0 -11.6867)
(5.3646 0 -10.2924)
(5.69155 0 -8.75997)
(5.9047 0 -7.10293)
(6.00289 0 -5.3335)
(5.98756 0 -3.46258)
(5.86252 0 -1.50045)
(5.63389 0 0.542295)
(5.30998 0 2.65336)
(4.9012 0 4.8172)
(4.4199 0 7.01382)
(3.88028 0 9.21772)
(3.29854 0 11.3971)
(2.69322 0 13.5131)
(2.0857 0 15.5177)
(1.50087 0 17.35)
(0.966417 0 18.926)
(0.504382 0 20.1223)
(0.11063 0 20.7792)
(-0.257118 0 20.7724)
(-0.658591 0 20.1094)
(-1.13254 0 18.9223)
(-1.67979 0 17.369)
(-2.27738 0 15.569)
(-2.89809 0 13.6042)
(-3.51766 0 11.5346)
(-4.11517 0 9.40717)
(-4.67253 0 7.26)
(-5.17391 0 5.1235)
(-5.6054 0 3.02149)
(-5.9549 0 0.972038)
(-6.21212 0 -1.01152)
(-6.36874 0 -2.91933)
(-6.41842 0 -4.74349)
(-6.35689 0 -6.47656)
(-6.18202 0 -8.11049)
(-5.89391 0 -9.63585)
(-5.49506 0 -11.0415)
(-4.99045 0 -12.3145)
(-4.38765 0 -13.4408)
(-3.69675 0 -14.4052)
(-2.93031 0 -15.193)
(-2.10311 0 -15.7905)
(-1.23182 0 -16.1863)
(-0.33452 0 -16.3722)
(0.451787 0 -17.1518)
(1.15801 0 -16.8903)
(1.83682 0 -16.4033)
(2.4725 0 -15.7013)
(3.05088 0 -14.7981)
(3.55971 0 -13.7099)
(3.98898 0 -12.454)
(4.33107 0 -11.0478)
(4.58084 0 -9.50779)
(4.73561 0 -7.84886)
(4.79508 0 -6.08409)
(4.76123 0 -4.22475)
(4.63819 0 -2.28082)
(4.43216 0 -0.261743)
(4.15124 0 1.82225)
(3.80542 0 3.95866)
(3.40635 0 6.13129)
(2.9673 0 8.31893)
(2.50314 0 10.4943)
(2.03043 0 12.623)
(1.56759 0 14.6625)
(1.13506 0 16.5603)
(0.754881 0 18.2504)
(0.448391 0 19.6464)
(0.22729 0 20.635)
(0.0761209 0 21.0901)
(-0.0557307 0 20.9308)
(-0.230136 0 20.1812)
(-0.483808 0 18.9504)
(-0.818309 0 17.3636)
(-1.21575 0 15.5218)
(-1.65364 0 13.501)
(-2.1103 0 11.3603)
(-2.56595 0 9.1477)
(-3.00281 0 6.90251)
(-3.40487 0 4.65672)
(-3.75781 0 2.43613)
(-4.04896 0 0.261311)
(-4.26737 0 -1.85123)
(-4.40405 0 -3.88768)
(-4.45208 0 -5.83542)
(-4.40674 0 -7.68177)
(-4.26568 0 -9.41303)
(-4.02906 0 -11.014)
(-3.69961 0 -12.468)
(-3.28279 0 -13.7572)
(-2.78671 0 -14.8629)
(-2.22204 0 -15.7673)
(-1.60182 0 -16.4539)
(-0.941086 0 -16.909)
(-0.256358 0 -17.123)
(0.434927 0 -17.091)
(1.11509 0 -16.8139)
(1.76686 0 -16.2977)
(2.37406 0 -15.5533)
(2.92212 0 -14.5951)
(3.39859 0 -13.44)
(3.79344 0 -12.1064)
(4.09925 0 -10.6125)
(4.31128 0 -8.97621)
(4.42745 0 -7.21367)
(4.44827 0 -5.33972)
(4.37673 0 -3.3677)
(4.21812 0 -1.3102)
(3.97991 0 0.819988)
(3.67162 0 3.00851)
(3.30467 0 5.2379)
(2.89214 0 7.48634)
(2.4488 0 9.72651)
(1.9911 0 11.9246)
(1.53733 0 14.0392)
(1.10779 0 16.0199)
(0.724559 0 17.8037)
(0.409771 0 19.309)
(0.178089 0 20.4273)
(0.01977 0 21.0318)
(-0.110917 0 21.0291)
(-0.276694 0 20.4245)
(-0.519931 0 19.3178)
(-0.847341 0 17.8357)
(-1.24328 0 16.0843)
(-1.68575 0 14.1439)
(-2.15302 0 12.0766)
(-2.62519 0 9.932)
(-3.08433 0 7.75038)
(-3.51433 0 5.5642)
(-3.90075 0 3.39909)
(-4.23073 0 1.27482)
(-4.49303 0 -0.793473)
(-4.67816 0 -2.79403)
(-4.7785 0 -4.71696)
(-4.78838 0 -6.55277)
(-4.7042 0 -8.29123)
(-4.52458 0 -9.9206)
(-4.25043 0 -11.4273)
(-3.88505 0 -12.7961)
(-3.43424 0 -14.01)
(-2.90624 0 -15.0517)
(-2.31169 0 -15.9041)
(-1.66335 0 -16.5513)
(-0.975845 0 -16.9804)
(-0.265188 0 -17.1821)
(0.327923 0 -17.7675)
(0.839142 0 -17.4882)
(1.327 0 -16.9684)
(1.77826 0 -16.2197)
(2.1811 0 -15.2577)
(2.52553 0 -14.1006)
(2.80367 0 -12.7681)
(3.00985 0 -11.2797)
(3.14073 0 -9.65448)
(3.19523 0 -7.90963)
(3.17454 0 -6.06051)
(3.08197 0 -4.12058)
(2.92287 0 -2.10186)
(2.70455 0 -0.0157535)
(2.43607 0 2.1257)
(2.12818 0 4.30834)
(1.79308 0 6.51441)
(1.44425 0 8.72127)
(1.09645 0 10.9002)
(0.76556 0 13.0152)
(0.468525 0 15.0225)
(0.222959 0 16.8684)
(0.0460898 0 18.4879)
(-0.0481985 0 19.8008)
(-0.0568302 0 20.7112)
(-1.09369e-05 0 21.122)
(0.0741985 0 20.9745)
(0.109019 0 20.2858)
(0.0673516 0 19.1369)
(-0.059453 0 17.6276)
(-0.262129 0 15.8467)
(-0.524567 0 13.8671)
(-0.82897 0 11.7482)
(-1.15776 0 9.53926)
(-1.49425 0 7.28094)
(-1.82284 0 5.00678)
(-2.12915 0 2.74408)
(-2.4001 0 0.514966)
(-2.62409 0 -1.66234)
(-2.79118 0 -3.77212)
(-2.89332 0 -5.79968)
(-2.92456 0 -7.73009)
(-2.88112 0 -9.54731)
(-2.76157 0 -11.2337)
(-2.56692 0 -12.7699)
(-2.30067 0 -14.1354)
(-1.96882 0 -15.3093)
(-1.57974 0 -16.271)
(-1.14401 0 -17.0021)
(-0.674105 0 -17.4871)
(-0.183896 0 -17.7153)
(0.31187 0 -17.6812)
(0.798211 0 -17.3857)
(1.26055 0 -16.8357)
(1.68531 0 -16.0433)
(2.0605 0 -15.0247)
(2.37607 0 -13.7991)