/*--------------------------------*- C++ -*----------------------------------*\
| =========                 |                                                 |
| \\      /  F ield         | OpenFOAM: The Open Source CFD Toolbox           |
|  \\    /   O peration     | Version:  2.3.0                                 |
|   \\  /    A nd           | Web:      www.OpenFOAM.org                      |
|    \\/     M anipulation  |                                                 |
\*---------------------------------------------------------------------------*/
FoamFile
{
    version     2.0;
    format      ascii;
    class       volVectorField;
    location    "6000";
    object      U;
}
// * * * * * * * * * * * * * * * * * * * * * * * * * * * * * * * * * * * * * //

dimensions      [0 1 -1 0 0 0 0];

internalField   nonuniform List<vector> 
3060
(
(1.73598 0 -2.40292)
(4.40198 0 -2.31558)
(6.94692 0 -2.15144)
(9.29797 0 -1.90974)
(11.3839 0 -1.59047)
(13.1376 0 -1.19751)
(14.5016 0 -0.744193)
(15.4375 0 -0.261321)
(15.9396 0 0.197734)
(16.0513 0 0.567335)
(15.8624 0 0.797933)
(15.4876 0 0.889057)
(14.9907 0 0.882627)
(14.3902 0 0.82433)
(13.6657 0 0.744599)
(12.7809 0 0.658514)
(11.7119 0 0.587189)
(10.4563 0 0.561007)
(9.02905 0 0.573413)
(7.47548 0 0.573958)
(5.89945 0 0.530097)
(4.4145 0 0.449657)
(3.10436 0 0.350689)
(2.01258 0 0.255174)
(1.12696 0 0.181542)
(0.38823 0 0.140442)
(-0.289394 0 0.136044)
(-1.00077 0 0.168735)
(-1.83507 0 0.23527)
(-2.85872 0 0.326419)
(-4.09428 0 0.424914)
(-5.5076 0 0.508711)
(-7.01866 0 0.558407)
(-8.51567 0 0.564653)
(-9.88871 0 0.552318)
(-11.0795 0 0.570376)
(-12.0654 0 0.629932)
(-12.8437 0 0.701157)
(-13.4352 0 0.756337)
(-13.8699 0 0.772252)
(-14.1537 0 0.716533)
(-14.2634 0 0.553135)
(-14.1284 0 0.265217)
(-13.6694 0 -0.127482)
(-12.8241 0 -0.573531)
(-11.5778 0 -1.01397)
(-9.95592 0 -1.40625)
(-8.00911 0 -1.72766)
(-5.80316 0 -1.96867)
(-3.41168 0 -2.12617)
(-0.912059 0 -2.19928)
(1.61639 0 -2.18738)
(4.09373 0 -2.09066)
(6.44109 0 -1.90973)
(8.58188 0 -1.64579)
(10.4441 0 -1.3032)
(11.9654 0 -0.89442)
(13.1008 0 -0.447184)
(13.8347 0 -0.00974349)
(14.1953 0 0.357859)
(14.2538 0 0.610935)
(14.0907 0 0.741072)
(13.7643 0 0.77327)
(13.2877 0 0.743743)
(12.6476 0 0.681986)
(11.8125 0 0.610653)
(10.768 0 0.560668)
(9.52322 0 0.554632)
(8.10684 0 0.566857)
(6.59372 0 0.548703)
(5.09988 0 0.4882)
(3.72925 0 0.398032)
(2.55172 0 0.299398)
(1.58537 0 0.213709)
(0.793342 0 0.15599)
(0.100896 0 0.133473)
(-0.584272 0 0.148285)
(-1.35608 0 0.199116)
(-2.2949 0 0.280284)
(-3.44881 0 0.378929)
(-4.81449 0 0.474963)
(-6.33457 0 0.546519)
(-7.91622 0 0.57784)
(-9.44288 0 0.568664)
(-10.8244 0 0.562969)
(-12.0287 0 0.60349)
(-13.0448 0 0.68221)
(-13.8817 0 0.76783)
(-14.5674 0 0.843682)
(-15.1388 0 0.891479)
(-15.605 0 0.875505)
(-15.9366 0 0.748711)
(-16.054 0 0.476839)
(-15.8401 0 0.0755783)
(-15.2188 0 -0.396643)
(-14.1609 0 -0.875674)
(-12.683 0 -1.31432)
(-10.83 0 -1.68748)
(-8.66293 0 -1.9852)
(-6.25036 0 -2.20514)
(-3.66417 0 -2.34774)
(-0.977446 0 -2.41367)
(1.42657 0 -3.7323)
(3.63017 0 -3.62826)
(5.76898 0 -3.43507)
(7.80834 0 -3.15715)
(9.72144 0 -2.80268)
(11.4932 0 -2.38623)
(13.1238 0 -1.93178)
(14.6296 0 -1.47427)
(16.037 0 -1.05476)
(17.3659 0 -0.704754)
(18.6087 0 -0.425875)
(19.7162 0 -0.18298)
(20.6174 0 0.0758755)
(21.2438 0 0.398197)
(21.529 0 0.814164)
(21.4023 0 1.31983)
(20.7729 0 1.84758)
(19.5748 0 2.28849)
(17.8314 0 2.58957)
(15.6041 0 2.7252)
(13.0355 0 2.68865)
(10.3297 0 2.49699)
(7.6861 0 2.18552)
(5.25538 0 1.83526)
(3.08817 0 1.53836)
(1.13417 0 1.36131)
(-0.722682 0 1.3369)
(-2.62299 0 1.46836)
(-4.69209 0 1.72929)
(-6.99818 0 2.05948)
(-9.51273 0 2.36863)
(-12.1016 0 2.56813)
(-14.5674 0 2.61028)
(-16.7016 0 2.47818)
(-18.3505 0 2.17101)
(-19.4471 0 1.71203)
(-19.9659 0 1.15439)
(-19.9662 0 0.611482)
(-19.5402 0 0.155896)
(-18.7641 0 -0.206711)
(-17.715 0 -0.507114)
(-16.4705 0 -0.790381)
(-15.0999 0 -1.10017)
(-13.6436 0 -1.45941)
(-12.1079 0 -1.86061)
(-10.4775 0 -2.27341)
(-8.73538 0 -2.662)
(-6.8765 0 -2.99687)
(-4.91096 0 -3.25787)
(-2.86203 0 -3.43279)
(-0.762139 0 -3.51496)
(1.35158 0 -3.50157)
(3.44087 0 -3.39309)
(5.46948 0 -3.19328)
(7.40709 0 -2.91013)
(9.23374 0 -2.55783)
(10.9435 0 -2.15911)
(12.5456 0 -1.74587)
(14.0581 0 -1.35402)
(15.4926 0 -1.00925)
(16.8338 0 -0.710514)
(18.0314 0 -0.427266)
(19.0119 0 -0.113676)
(19.6981 0 0.272793)
(20.0131 0 0.755617)
(19.8783 0 1.31351)
(19.1999 0 1.85382)
(17.9452 0 2.2733)
(16.1507 0 2.53369)
(13.9049 0 2.61509)
(11.3835 0 2.5278)
(8.7964 0 2.29052)
(6.33052 0 1.9654)
(4.0923 0 1.64638)
(2.08031 0 1.41698)
(0.206146 0 1.32755)
(-1.66388 0 1.39609)
(-3.66766 0 1.6113)
(-5.90712 0 1.93128)
(-8.40701 0 2.28053)
(-11.0867 0 2.56529)
(-13.775 0 2.71453)
(-16.2672 0 2.70507)
(-18.3696 0 2.52083)
(-19.9651 0 2.17819)
(-21.0038 0 1.70451)
(-21.4829 0 1.17197)
(-21.4866 0 0.687811)
(-21.0995 0 0.299455)
(-20.3893 0 -0.00111143)
(-19.4233 0 -0.250273)
(-18.2711 0 -0.498196)
(-17.0008 0 -0.794725)
(-15.6507 0 -1.166)
(-14.2185 0 -1.60015)
(-12.6802 0 -2.06088)
(-11.0111 0 -2.50777)
(-9.19915 0 -2.90886)
(-7.24863 0 -3.24305)
(-5.17834 0 -3.4979)
(-3.01767 0 -3.66647)
(-0.802836 0 -3.74512)
(1.35029 0 -5.93161)
(3.44169 0 -5.78414)
(5.48679 0 -5.51228)
(7.46168 0 -5.12588)
(9.34818 0 -4.64125)
(11.135 0 -4.08332)
(12.8166 0 -3.48701)
(14.3899 0 -2.89495)
(15.846 0 -2.34719)
(17.1644 0 -1.86312)
(18.3131 0 -1.4284)
(19.2604 0 -1.00173)
(19.9851 0 -0.538125)
(20.4805 0 -0.00205481)
(20.7521 0 0.629708)
(20.8138 0 1.36859)
(20.6683 0 2.22059)
(20.263 0 3.19583)
(19.4659 0 4.24518)
(18.1191 0 5.12469)
(16.0942 0 5.5649)
(13.4555 0 5.56692)
(10.464 0 5.22095)
(7.41437 0 4.68102)
(4.48675 0 4.15688)
(1.7117 0 3.82105)
(-0.980002 0 3.765)
(-3.69406 0 3.99829)
(-6.51489 0 4.44746)
(-9.44226 0 4.95429)
(-12.3321 0 5.30674)
(-14.9101 0 5.33084)
(-16.9019 0 4.92531)
(-18.2099 0 4.07047)
(-18.9453 0 3.00195)
(-19.2686 0 1.98928)
(-19.3194 0 1.09789)
(-19.1535 0 0.316778)
(-18.7685 0 -0.360507)
(-18.1512 0 -0.943212)
(-17.2988 0 -1.45235)
(-16.2236 0 -1.92043)
(-14.952 0 -2.38603)
(-13.5182 0 -2.87887)
(-11.9543 0 -3.40461)
(-10.2822 0 -3.94127)
(-8.51466 0 -4.45173)
(-6.66119 0 -4.89858)
(-4.73389 0 -5.25203)
(-2.74987 0 -5.49152)
(-0.731161 0 -5.60471)
(1.29699 0 -5.58625)
(3.30847 0 -5.43699)
(5.27869 0 -5.16412)
(7.18687 0 -4.78214)
(9.01741 0 -4.31413)
(10.7593 0 -3.79239)
(12.4028 0 -3.25539)
(13.9332 0 -2.73772)
(15.3253 0 -2.25442)
(16.5454 0 -1.79193)
(17.5604 0 -1.31616)
(18.3478 0 -0.789272)
(18.8994 0 -0.181736)
(19.2216 0 0.523998)
(19.3282 0 1.33499)
(19.2108 0 2.25958)
(18.7889 0 3.30211)
(17.9097 0 4.34618)
(16.416 0 5.08496)
(14.2407 0 5.36479)
(11.544 0 5.23642)
(8.62016 0 4.81939)
(5.71488 0 4.30826)
(2.92859 0 3.90686)
(0.231249 0 3.75027)
(-2.47346 0 3.88879)
(-5.28708 0 4.29005)
(-8.25759 0 4.83899)
(-11.3155 0 5.34549)
(-14.2407 0 5.60636)
(-16.7282 0 5.48813)
(-18.5589 0 4.91658)
(-19.7362 0 3.9546)
(-20.4079 0 2.91107)
(-20.7304 0 1.97055)
(-20.816 0 1.15101)
(-20.697 0 0.442631)
(-20.364 0 -0.16084)
(-19.8046 0 -0.673803)
(-19.0164 0 -1.12303)
(-18.01 0 -1.5472)
(-16.8103 0 -1.99222)
(-15.4505 0 -2.49419)
(-13.9601 0 -3.05757)
(-12.356 0 -3.65527)
(-10.6446 0 -4.24493)
(-8.82921 0 -4.78545)
(-6.91654 0 -5.24471)
(-4.9199 0 -5.6004)
(-2.85923 0 -5.83822)
(-0.759731 0 -5.94983)
(1.28768 0 -8.04267)
(3.28545 0 -7.86616)
(5.24757 0 -7.5422)
(7.15516 0 -7.08455)
(8.99261 0 -6.51409)
(10.7472 0 -5.85914)
(12.4071 0 -5.15439)
(13.9574 0 -4.4369)
(15.3764 0 -3.73773)
(16.6352 0 -3.07095)
(17.7033 0 -2.427)
(18.5579 0 -1.77749)
(19.1879 0 -1.0891)
(19.5917 0 -0.33379)
(19.7741 0 0.508038)
(19.7421 0 1.44926)
(19.5001 0 2.5007)
(19.057 0 3.66651)
(18.4333 0 4.92393)
(17.5912 0 6.23044)
(16.3461 0 7.47056)
(14.4219 0 8.24833)
(11.7762 0 8.30819)
(8.65439 0 7.87087)
(5.38113 0 7.28919)
(2.11818 0 6.87127)
(-1.10909 0 6.78508)
(-4.32095 0 7.04948)
(-7.51421 0 7.53211)
(-10.5746 0 7.95063)
(-13.2157 0 7.94789)
(-15.164 0 7.25779)
(-16.4093 0 6.02994)
(-17.2071 0 4.69498)
(-17.7624 0 3.40066)
(-18.1261 0 2.19092)
(-18.2791 0 1.09072)
(-18.2117 0 0.0969452)
(-17.9212 0 -0.799787)
(-17.4026 0 -1.60919)
(-16.654 0 -2.34713)
(-15.6809 0 -3.03712)
(-14.4993 0 -3.70575)
(-13.1353 0 -4.37242)
(-11.6206 0 -5.03945)
(-9.98525 0 -5.6897)
(-8.25296 0 -6.29322)
(-6.44215 0 -6.81668)
(-4.569 0 -7.23025)
(-2.6502 0 -7.51101)
(-0.704154 0 -7.644)
(1.24925 0 -7.6223)
(3.18964 0 -7.44702)
(5.09748 0 -7.12734)
(6.95486 0 -6.68047)
(8.74544 0 -6.13142)
(10.4527 0 -5.5115)
(12.0571 0 -4.85395)
(13.533 0 -4.18611)
(14.8492 0 -3.52006)
(15.9749 0 -2.848)
(16.8864 0 -2.14731)
(17.5709 0 -1.39146)
(18.0255 0 -0.558914)
(18.2532 0 0.364088)
(18.2588 0 1.3866)
(18.0451 0 2.51797)
(17.6268 0 3.75511)
(17.0146 0 5.06605)
(16.1205 0 6.39632)
(14.6966 0 7.52429)
(12.5409 0 8.01095)
(9.74793 0 7.86137)
(6.62878 0 7.38959)
(3.42541 0 6.94542)
(0.211186 0 6.77172)
(-3.02455 0 6.95862)
(-6.2969 0 7.44577)
(-9.55204 0 8.02273)
(-12.577 0 8.35542)
(-15.035 0 8.10522)
(-16.7514 0 7.14692)
(-17.8549 0 5.86382)
(-18.6247 0 4.56571)
(-19.1989 0 3.32997)
(-19.5877 0 2.19522)
(-19.7713 0 1.17557)
(-19.744 0 0.263199)
(-19.5004 0 -0.553013)
(-19.0336 0 -1.28733)
(-18.3403 0 -1.96172)
(-17.4244 0 -2.60627)
(-16.3001 0 -3.25428)
(-14.9933 0 -3.93019)
(-13.5349 0 -4.63684)
(-11.9521 0 -5.35436)
(-10.2645 0 -6.04894)
(-8.48554 0 -6.68353)
(-6.62708 0 -7.22497)
(-4.70252 0 -7.64701)
(-2.7284 0 -7.93082)
(-0.7244 0 -8.06452)
(1.22231 0 -9.98846)
(3.12017 0 -9.79042)
(4.98783 0 -9.42739)
(6.80842 0 -8.91509)
(8.56646 0 -8.27624)
(10.2471 0 -7.53961)
(11.8345 0 -6.73782)
(13.309 0 -5.90292)
(14.6462 0 -5.05965)
(15.818 0 -4.21841)
(16.7975 0 -3.37231)
(17.5656 0 -2.5017)
(18.1126 0 -1.58345)
(18.437 0 -0.597935)
(18.5422 0 0.4683)
(18.4343 0 1.62277)
(18.1218 0 2.86947)
(17.6175 0 4.21215)
(16.9356 0 5.65268)
(16.0771 0 7.17857)
(15.0401 0 8.72186)
(13.7117 0 10.1192)
(11.7726 0 10.9997)
(9.04046 0 11.0765)
(5.79706 0 10.6875)
(2.34793 0 10.305)
(-1.14538 0 10.1977)
(-4.57262 0 10.3978)
(-7.80186 0 10.7001)
(-10.5796 0 10.6671)
(-12.5991 0 9.88529)
(-13.9401 0 8.50806)
(-14.9424 0 6.94247)
(-15.7497 0 5.37242)
(-16.3696 0 3.87771)
(-16.8003 0 2.47652)
(-17.0288 0 1.16879)
(-17.043 0 -0.0484198)
(-16.8363 0 -1.17702)
(-16.4049 0 -2.22098)
(-15.7482 0 -3.18943)
(-14.8712 0 -4.09693)
(-13.7872 0 -4.96036)
(-12.5187 0 -5.79208)
(-11.0938 0 -6.59284)
(-9.54203 0 -7.34905)
(-7.88929 0 -8.03611)
(-6.15749 0 -8.62477)
(-4.36559 0 -9.08706)
(-2.53133 0 -9.40011)
(-0.672435 0 -9.54828)
(1.19304 0 -9.5241)
(3.04686 0 -9.3288)
(4.87108 0 -8.9722)
(6.64802 0 -8.47207)
(8.35978 0 -7.853)
(9.98675 0 -7.14379)
(11.5059 0 -6.37306)
(12.8902 0 -5.56293)
(14.1099 0 -4.72308)
(15.138 0 -3.84896)
(15.9544 0 -2.92614)
(16.5485 0 -1.93784)
(16.9169 0 -0.870881)
(17.0613 0 0.282256)
(16.9864 0 1.52457)
(16.7 0 2.85807)
(16.2157 0 4.28575)
(15.5432 0 5.80475)
(14.6848 0 7.38527)
(13.6109 0 8.92379)
(12.1194 0 10.1849)
(9.87045 0 10.7399)
(6.93249 0 10.6277)
(3.62961 0 10.3186)
(0.172892 0 10.1937)
(-3.31985 0 10.3906)
(-6.73272 0 10.8128)
(-9.87017 0 11.1234)
(-12.3968 0 10.8355)
(-14.1251 0 9.75915)
(-15.3497 0 8.2962)
(-16.3337 0 6.74579)
(-17.1428 0 5.24057)
(-17.7759 0 3.82708)
(-18.2281 0 2.51158)
(-18.4845 0 1.29095)
(-18.5335 0 0.161589)
(-18.3676 0 -0.881171)
(-17.9811 0 -1.8463)
(-17.3718 0 -2.74905)
(-16.5433 0 -3.61047)
(-15.5076 0 -4.45359)
(-14.2867 0 -5.29543)
(-12.9083 0 -6.13814)
(-11.4 0 -6.96673)
(-9.78478 0 -7.75367)
(-8.08094 0 -8.46614)
(-6.30391 0 -9.07225)
(-4.46853 0 -9.54479)
(-2.59066 0 -9.86295)
(-0.687562 0 -10.013)
(1.15088 0 -11.8417)
(2.93808 0 -11.6236)
(4.69732 0 -11.2235)
(6.41219 0 -10.658)
(8.06662 0 -9.94991)
(9.64421 0 -9.12723)
(11.1269 0 -8.22011)
(12.4939 0 -7.25699)
(13.7213 0 -6.25968)
(14.784 0 -5.23888)
(15.6593 0 -4.19269)
(16.3309 0 -3.10957)
(16.7903 0 -1.97417)
(17.0356 0 -0.772244)
(17.0691 0 0.50674)
(16.896 0 1.8689)
(16.5234 0 3.31616)
(15.9618 0 4.8463)
(15.2254 0 6.45166)
(14.3301 0 8.11872)
(13.2886 0 9.82738)
(12.0882 0 11.5147)
(10.6109 0 12.9821)
(8.53821 0 13.8475)
(5.68608 0 13.9878)
(2.37215 0 13.8217)
(-1.09135 0 13.7135)
(-4.4292 0 13.7131)
(-7.35861 0 13.5408)
(-9.54983 0 12.7487)
(-11.0647 0 11.3079)
(-12.2488 0 9.59419)
(-13.2535 0 7.83658)
(-14.1004 0 6.11203)
(-14.7786 0 4.44378)
(-15.2725 0 2.84642)
(-15.5679 0 1.32933)
(-15.6551 0 -0.10331)
(-15.5286 0 -1.45055)
(-15.1854 0 -2.71456)
(-14.6256 0 -3.90106)
(-13.8541 0 -5.01876)
(-12.8825 0 -6.07684)
(-11.7297 0 -7.08036)
(-10.4202 0 -8.02589)
(-8.9804 0 -8.89966)
(-7.43579 0 -9.67956)
(-5.80919 0 -10.3394)
(-4.12106 0 -10.8535)
(-2.39028 0 -11.2)
(-0.635035 0 -11.3637)
(1.12668 0 -11.337)
(2.87692 0 -11.1212)
(4.59765 0 -10.7261)
(6.27057 0 -10.1689)
(7.87645 0 -9.47287)
(9.39425 0 -8.66424)
(10.8004 0 -7.76853)
(12.0688 0 -6.80589)
(13.1733 0 -5.78725)
(14.0906 0 -4.71332)
(14.8039 0 -3.57737)
(15.3034 0 -2.36998)
(15.586 0 -1.08311)
(15.6524 0 0.287938)
(15.5063 0 1.7444)
(15.1543 0 3.28451)
(14.6074 0 4.90288)
(13.8804 0 6.58839)
(12.9889 0 8.3256)
(11.9391 0 10.0832)
(10.6865 0 11.7525)
(9.02305 0 13.0483)
(6.60211 0 13.6342)
(3.52638 0 13.7128)
(0.126187 0 13.7289)
(-3.32379 0 13.872)
(-6.54443 0 14.0011)
(-9.19972 0 13.6874)
(-11.0648 0 12.6137)
(-12.4419 0 11.0534)
(-13.5933 0 9.34806)
(-14.5944 0 7.6476)
(-15.447 0 5.99621)
(-16.1361 0 4.41069)
(-16.6461 0 2.90316)
(-16.9638 0 1.47959)
(-17.0798 0 0.140991)
(-16.9875 0 -1.1157)
(-16.6824 0 -2.29783)
(-16.1632 0 -3.4171)
(-15.4335 0 -4.48842)
(-14.5039 0 -5.52665)
(-13.3926 0 -6.54122)
(-12.1236 0 -7.53059)
(-10.722 0 -8.48063)
(-9.21078 0 -9.36717)
(-7.60997 0 -10.1608)
(-5.93701 0 -10.8316)
(-4.20811 0 -11.353)
(-2.43937 0 -11.7035)
(-0.647349 0 -11.8688)
(1.0711 0 -13.5756)
(2.7339 0 -13.3384)
(4.36921 0 -12.9028)
(5.96047 0 -12.2852)
(7.49105 0 -11.5085)
(8.94371 0 -10.5995)
(10.2999 0 -9.58627)
(11.5394 0 -8.49511)
(12.6403 0 -7.34648)
(13.5811 0 -6.15221)
(14.3428 0 -4.91461)
(14.9117 0 -3.62849)
(15.2804 0 -2.28489)
(15.4465 0 -0.874641)
(15.4117 0 0.609198)
(15.1807 0 2.17012)
(14.7602 0 3.8077)
(14.1595 0 5.51746)
(13.3909 0 7.29008)
(12.469 0 9.10987)
(11.4092 0 10.9539)
(10.2235 0 12.7897)
(8.88978 0 14.5461)
(7.26086 0 16.0018)
(5.02562 0 16.8396)
(2.16525 0 17.0868)
(-0.934139 0 17.0063)
(-3.8645 0 16.6537)
(-6.23243 0 15.8146)
(-7.93214 0 14.3714)
(-9.2722 0 12.5795)
(-10.4364 0 10.6902)
(-11.4634 0 8.78625)
(-12.3424 0 6.90026)
(-13.0591 0 5.0555)
(-13.5989 0 3.2692)
(-13.9499 0 1.55296)
(-14.1034 0 -0.0860788)
(-14.0541 0 -1.644)
(-13.7993 0 -3.11997)
(-13.3394 0 -4.51579)
(-12.6789 0 -5.83487)
(-11.8282 0 -7.08009)
(-10.803 0 -8.25071)
(-9.62423 0 -9.33952)
(-8.31505 0 -10.3318)
(-6.89896 0 -11.2064)
(-5.39826 0 -11.9393)
(-3.8338 0 -12.5062)
(-2.22519 0 -12.8867)
(-0.591353 0 -13.066)
(1.04916 0 -13.0367)
(2.67783 0 -12.8003)
(4.27605 0 -12.366)
(5.82475 0 -11.7505)
(7.30401 0 -10.9756)
(8.69259 0 -10.0658)
(9.96778 0 -9.04469)
(11.106 0 -7.9319)
(12.0844 0 -6.74006)
(12.8834 0 -5.47436)
(13.4886 0 -4.1342)
(13.8915 0 -2.71626)
(14.0888 0 -1.21744)
(14.0811 0 0.363375)
(13.8718 0 2.02452)
(13.467 0 3.76121)
(12.8765 0 5.56523)
(12.1128 0 7.42345)
(11.1911 0 9.31717)
(10.1252 0 11.2211)
(8.92051 0 13.096)
(7.50675 0 14.8246)
(5.64684 0 16.1122)
(3.08734 0 16.7893)
(0.0693451 0 17.0526)
(-3.00508 0 17.0607)
(-5.7243 0 16.675)
(-7.76047 0 15.6464)
(-9.28188 0 14.0718)
(-10.5664 0 12.2805)
(-11.7175 0 10.4381)
(-12.7402 0 8.59785)
(-13.6209 0 6.78923)
(-14.344 0 5.03283)
(-14.8954 0 3.34247)
(-15.2638 0 1.72598)
(-15.4405 0 0.186666)
(-15.4194 0 -1.27613)
(-15.1967 0 -2.66696)
(-14.7716 0 -3.99356)
(-14.1478 0 -5.26532)
(-13.3344 0 -6.49054)
(-12.3467 0 -7.67269)
(-11.2048 0 -8.80685)
(-9.93055 0 -9.87859)
(-8.54539 0 -10.8655)
(-7.06913 0 -11.7403)
(-5.51989 0 -12.4751)
(-3.91464 0 -13.0438)
(-2.26996 0 -13.4253)
(-0.602461 0 -13.605)
(0.982549 0 -15.178)
(2.50691 0 -14.9217)
(4.00358 0 -14.4501)
(5.45573 0 -13.7799)
(6.84643 0 -12.9334)
(8.15835 0 -11.9366)
(9.37344 0 -10.8164)
(10.4729 0 -9.59827)
(11.4374 0 -8.30242)
(12.249 0 -6.94243)
(12.8921 0 -5.52434)
(13.3554 0 -4.048)
(13.6327 0 -2.50955)
(13.722 0 -0.904112)
(13.6249 0 0.772049)
(13.3456 0 2.51989)
(12.8905 0 4.33657)
(12.2685 0 6.21504)
(11.4907 0 8.14353)
(10.5702 0 10.1051)
(9.52097 0 12.0783)
(8.35663 0 14.0377)
(7.0898 0 15.9452)
(5.68027 0 17.7071)
(3.96356 0 19.07)
(1.76424 0 19.7713)
(-0.68959 0 19.7379)
(-2.97504 0 18.9921)
(-4.78323 0 17.6029)
(-6.22155 0 15.79)
(-7.48291 0 13.8165)
(-8.62931 0 11.7898)
(-9.65106 0 9.74655)
(-10.5348 0 7.70948)
(-11.2674 0 5.70003)
(-11.8357 0 3.73656)
(-12.2291 0 1.83327)
(-12.4396 0 0.000395171)
(-12.4617 0 -1.7553)
(-12.2927 0 -3.43014)
(-11.9328 0 -5.02242)
(-11.386 0 -6.53109)
(-10.6606 0 -7.95395)
(-9.76996 0 -9.28542)
(-8.7314 0 -10.5148)
(-7.56492 0 -11.6257)
(-6.29159 0 -12.5969)
(-4.93244 0 -13.4049)
(-3.50792 0 -14.0268)
(-2.0379 0 -14.4426)
(-0.541798 0 -14.6381)
(0.961203 0 -14.6063)
(2.45197 0 -14.3483)
(3.91126 0 -13.8732)
(5.31957 0 -13.1973)
(6.65687 0 -12.3413)
(7.90252 0 -11.3288)
(9.03541 0 -10.1829)
(10.0346 0 -8.92364)
(10.8807 0 -7.56583)
(11.5574 0 -6.11863)
(12.0527 0 -4.58646)
(12.3595 0 -2.97098)
(12.475 0 -1.27327)
(12.3999 0 0.504506)
(12.1377 0 2.35788)
(11.6945 0 4.27917)
(11.0791 0 6.25711)
(10.3029 0 8.27626)
(9.37931 0 10.3174)
(8.32134 0 12.3584)
(7.14296 0 14.3751)
(5.84363 0 16.3211)
(4.32712 0 18.0456)
(2.3782 0 19.2706)
(0.00392299 0 19.8199)
(-2.4206 0 19.6499)
(-4.48801 0 18.7477)
(-6.0944 0 17.2411)
(-7.45356 0 15.4211)
(-8.69191 0 13.4935)
(-9.82549 0 11.5274)
(-10.8401 0 9.55493)
(-11.7222 0 7.60052)
(-12.4577 0 5.68445)
(-13.034 0 3.8222)
(-13.4407 0 2.02416)
(-13.6697 0 0.296178)
(-13.715 0 -1.36001)
(-13.5732 0 -2.9463)
(-13.2435 0 -4.46693)
(-12.729 0 -5.92672)
(-12.0375 0 -7.32879)
(-11.1814 0 -8.67178)
(-10.1772 0 -9.9476)
(-9.04355 0 -11.1407)
(-7.7995 0 -12.229)
(-6.46376 0 -13.1865)
(-5.05414 0 -13.9862)
(-3.58784 0 -14.6029)
(-2.08173 0 -15.0156)
(-0.552639 0 -15.2097)
(0.885517 0 -16.6352)
(2.25817 0 -16.3595)
(3.60293 0 -15.8516)
(4.90288 0 -15.1281)
(6.14121 0 -14.2112)
(7.30106 0 -13.1265)
(8.36544 0 -11.9008)
(9.31741 0 -10.5592)
(10.1406 0 -9.12267)
(10.8199 0 -7.60685)
(11.3431 0 -6.02101)
(11.7014 0 -4.3691)
(11.8899 0 -2.65143)
(11.9075 0 -0.866758)
(11.7561 0 0.985708)
(11.4402 0 2.90453)
(10.9664 0 4.88473)
(10.3433 0 6.91715)
(9.58144 0 8.98793)
(8.69338 0 11.0785)
(7.69312 0 13.1664)
(6.59541 0 15.2272)
(5.41949 0 17.2335)
(4.18066 0 19.1284)
(2.8341 0 20.74)
(1.28232 0 21.718)
(-0.416508 0 21.722)
(-2.01948 0 20.7279)
(-3.4019 0 19.0591)
(-4.6467 0 17.0824)
(-5.81514 0 14.9956)
(-6.89847 0 12.8574)
(-7.87588 0 10.6904)
(-8.73288 0 8.51597)
(-9.45585 0 6.35612)
(-10.0325 0 4.23092)
(-10.4527 0 2.15682)
(-10.7082 0 0.146499)
(-10.7934 0 -1.79081)
(-10.705 0 -3.64877)
(-10.4424 0 -5.42247)
(-10.0083 0 -7.10707)
(-9.40938 0 -8.69611)
(-8.65623 0 -10.1799)
(-7.7631 0 -11.5446)
(-6.74689 0 -12.7716)
(-5.62618 0 -13.839)
(-4.42028 0 -14.7229)
(-3.14875 0 -15.4008)
(-1.83117 0 -15.8528)
(-0.487065 0 -16.0651)
(0.864068 0 -16.0305)
(2.20274 0 -15.7503)
(3.50944 0 -15.2336)
(4.76463 0 -14.4961)
(5.94873 0 -13.5586)
(7.0422 0 -12.4443)
(8.02588 0 -11.1768)
(8.88155 0 -9.77724)
(9.59294 0 -8.26283)
(10.1467 0 -6.6463)
(10.5334 0 -4.93623)
(10.7475 0 -3.13849)
(10.7873 0 -1.25779)
(10.6541 0 0.700697)
(10.3519 0 2.72991)
(9.88714 0 4.81973)
(9.26849 0 6.95643)
(8.50677 0 9.12249)
(7.61474 0 11.2971)
(6.60622 0 13.458)
(5.49661 0 15.5846)
(4.30817 0 17.6498)
(3.03468 0 19.5697)
(1.59446 0 21.0906)
(-0.058567 0 21.8284)
(-1.73782 0 21.5317)
(-3.22615 0 20.3366)
(-4.5334 0 18.6167)
(-5.75373 0 16.6808)
(-6.91027 0 14.6557)
(-7.9823 0 12.5848)
(-8.95267 0 10.4937)
(-9.80682 0 8.40644)
(-10.5311 0 6.34462)
(-11.1134 0 4.32553)
(-11.5439 0 2.36166)
(-11.8143 0 0.460982)
(-11.9188 0 -1.37259)
(-11.8535 0 -3.13843)
(-11.6173 0 -4.83765)
(-11.2122 0 -6.47127)
(-10.6443 0 -8.03815)
(-9.92337 0 -9.533)
(-9.06259 0 -10.9448)
(-8.07749 0 -12.2564)
(-6.98469 0 -13.4453)
(-5.80119 0 -14.4857)
(-4.54392 0 -15.351)
(-3.22974 0 -16.0162)
(-1.87547 0 -16.4606)
(-0.498047 0 -16.6693)
(0.780675 0 -17.9343)
(1.98957 0 -17.6391)
(3.17077 0 -17.0949)
(4.30767 0 -16.3183)
(5.38395 0 -15.3316)
(6.38366 0 -14.1609)
(7.29131 0 -12.8329)
(8.09205 0 -11.3735)
(8.77213 0 -9.80503)
(9.31954 0 -8.14507)
(9.72479 0 -6.40586)
(9.98145 0 -4.5948)
(10.0864 0 -2.71566)
(10.0398 0 -0.77035)
(9.84433 0 1.23927)
(9.50518 0 3.30951)
(9.02951 0 5.43341)
(8.42635 0 7.5999)
(7.70662 0 9.79324)
(6.8832 0 11.993)
(5.9712 0 14.1746)
(4.98841 0 16.3106)
(3.95849 0 18.3706)
(2.91651 0 20.3027)
(1.88636 0 21.9603)
(0.855262 0 23.0016)
(-0.189833 0 23.0172)
(-1.22948 0 21.9656)
(-2.26058 0 20.2385)
(-3.29664 0 18.2162)
(-4.31831 0 16.0688)
(-5.28835 0 13.8484)
(-6.181 0 11.5803)
(-6.97828 0 9.2892)
(-7.66512 0 6.99956)
(-8.22874 0 4.73328)
(-8.65843 0 2.50886)
(-8.94553 0 0.341097)
(-9.08345 0 -1.75855)
(-9.06788 0 -3.78122)
(-8.89707 0 -5.71915)
(-8.57225 0 -7.56414)
(-8.09802 0 -9.30609)
(-7.48244 0 -10.9318)
(-6.73686 0 -12.4242)
(-5.87532 0 -13.7627)
(-4.91388 0 -14.9236)
(-3.8699 0 -15.8824)
(-2.76166 0 -16.616)
(-1.60794 0 -17.1044)
(-0.427912 0 -17.3334)
(0.759107 0 -17.2961)
(1.93374 0 -16.9937)
(3.07668 0 -16.4352)
(4.16886 0 -15.6366)
(5.19162 0 -14.6189)
(6.12688 0 -13.4061)
(6.9576 0 -12.0224)
(7.6682 0 -10.4908)
(8.24534 0 -8.83109)
(8.67853 0 -7.05918)
(8.96066 0 -5.1873)
(9.08811 0 -3.22487)
(9.06054 0 -1.17985)
(8.88044 0 0.939848)
(8.55277 0 3.12474)
(8.08473 0 5.3625)
(7.48554 0 7.63733)
(6.76647 0 9.9297)
(5.94094 0 12.2169)
(5.02472 0 14.4741)
(4.03709 0 16.6769)
(3.00757 0 18.7972)
(1.97265 0 20.7627)
(0.94113 0 22.3473)
(-0.102064 0 23.1293)
(-1.14432 0 22.7992)
(-2.17244 0 21.541)
(-3.20612 0 19.7815)
(-4.24846 0 17.805)
(-5.26828 0 15.7202)
(-6.23328 0 13.5685)
(-7.12218 0 11.3791)
(-7.91804 0 9.17876)
(-8.60639 0 6.99097)
(-9.17492 0 4.83492)
(-9.61326 0 2.72501)
(-9.91288 0 0.671098)
(-10.0672 0 -1.32085)
(-10.0716 0 -3.24786)
(-9.92405 0 -5.10824)
(-9.62538 0 -6.89975)
(-9.17959 0 -8.61775)
(-8.59399 0 -10.2536)
(-7.87886 0 -11.7936)
(-7.04678 0 -13.2187)
(-6.11185 0 -14.5053)
(-5.08913 0 -15.6273)
(-3.99428 0 -16.5577)
(-2.84333 0 -17.2714)
(-1.65269 0 -17.7474)
(-0.439058 0 -17.9708)
(0.668799 0 -19.0638)
(1.70319 0 -18.7496)
(2.71076 0 -18.1697)
(3.6756 0 -17.3413)
(4.58233 0 -16.2872)
(5.4163 0 -15.0339)
(6.16374 0 -13.6093)
(6.81197 0 -12.04)
(7.34981 0 -10.3502)
(7.76797 0 -8.55956)
(8.05957 0 -6.68296)
(8.22046 0 -4.73077)
(8.24939 0 -2.7098)
(8.14784 0 -0.624685)
(7.9198 0 1.52029)
(7.57143 0 3.7193)
(7.11083 0 5.96348)
(6.54793 0 8.23991)
(5.89456 0 10.5309)
(5.16473 0 12.8136)
(4.37523 0 15.0604)
(3.54689 0 17.2389)
(2.70746 0 19.31)
(1.89791 0 21.2125)
(1.16632 0 22.8051)
(0.535373 0 23.7854)
(-0.0394877 0 23.7961)
(-0.657029 0 22.8)
(-1.37314 0 21.1383)
(-2.17081 0 19.1467)
(-3.00032 0 16.9865)
(-3.81642 0 14.719)
(-4.58914 0 12.38)
(-5.29699 0 9.99985)
(-5.92289 0 7.60644)
(-6.45273 0 5.22414)
(-6.87471 0 2.87355)
(-7.17905 0 0.571478)
(-7.35797 0 -1.6685)
(-7.40583 0 -3.83517)
(-7.31941 0 -5.91813)
(-7.09821 0 -7.90616)
(-6.74474 0 -9.78598)
(-6.26464 0 -11.5412)
(-5.66654 0 -13.1518)
(-4.96179 0 -14.5947)
(-4.16393 0 -15.8444)
(-3.28826 0 -16.8752)
(-2.35139 0 -17.6628)
(-1.3709 0 -18.1866)
(-0.365041 0 -18.4321)
(0.647567 0 -18.3922)
(1.64821 0 -18.0679)
(2.61834 0 -17.4688)
(3.53987 0 -16.6111)
(4.39545 0 -15.5167)
(5.16879 0 -14.2104)
(5.84505 0 -12.7182)
(6.41125 0 -11.065)
(6.85675 0 -9.27321)
(7.17372 0 -7.36165)
(7.35741 0 -5.34585)
(7.40617 0 -3.2384)
(7.3213 0 -1.05015)
(7.10672 0 1.20842)
(6.76867 0 3.52555)
(6.31551 0 5.88686)
(5.75757 0 8.27451)
(5.10726 0 10.6668)
(4.37942 0 13.0384)
(3.59219 0 15.3606)
(2.76878 0 17.6021)
(1.94293 0 19.7238)
(1.16361 0 21.6463)
(0.475841 0 23.1627)
(-0.120669 0 23.902)
(-0.702032 0 23.5963)
(-1.36011 0 22.4058)
(-2.11759 0 20.7038)
(-2.94044 0 18.7451)
(-3.78021 0 16.6393)
(-4.60008 0 14.4381)
(-5.37478 0 12.1782)
(-6.0848 0 9.89047)
(-6.71418 0 7.6014)
(-7.24959 0 5.33232)
(-7.67974 0 3.09957)
(-7.99521 0 0.914854)
(-8.18842 0 -1.21393)
(-8.25377 0 -3.28157)
(-8.18797 0 -5.28388)
(-7.99028 0 -7.21577)
(-7.66275 0 -9.0696)
(-7.21031 0 -10.8338)
(-6.64056 0 -12.4921)
(-5.96338 0 -14.0235)
(-5.19041 0 -15.403)
(-4.33466 0 -16.6033)
(-3.41016 0 -17.5968)
(-2.43179 0 -18.3578)
(-1.41509 0 -18.8648)
(-0.376105 0 -19.1027)
(0.550653 0 -20.0136)
(1.40104 0 -19.6811)
(2.22627 0 -19.0673)
(3.01157 0 -18.1899)
(3.74293 0 -17.0724)
(4.4073 0 -15.7423)
(4.99284 0 -14.2286)
(5.48908 0 -12.5596)
(5.88726 0 -10.7611)
(6.18059 0 -8.85486)
(6.36456 0 -6.85838)
(6.43717 0 -4.78464)
(6.39897 0 -2.64306)
(6.25297 0 -0.440791)
(6.00448 0 1.81566)
(5.66083 0 4.11845)
(5.23124 0 6.45686)
(4.7267 0 8.81609)
(4.16014 0 11.1763)
(3.54674 0 13.5121)
(2.90474 0 15.7921)
(2.25665 0 17.9782)
(1.6317 0 20.022)
(1.06964 0 21.8515)
(0.617399 0 23.3294)
(0.297779 0 24.2051)
(0.0518523 0 24.2057)
(-0.249083 0 23.3046)
(-0.681134 0 21.7608)
(-1.22872 0 19.8468)
(-1.84241 0 17.7143)
(-2.47857 0 15.4368)
(-3.10592 0 13.0606)
(-3.70099 0 10.6228)
(-4.24507 0 8.1552)
(-4.72267 0 5.68504)
(-5.12071 0 3.23514)
(-5.42815 0 0.824329)
(-5.63584 0 -1.5318)
(-5.7367 0 -3.8198)
(-5.72595 0 -6.02679)
(-5.60129 0 -8.13883)
(-5.36319 0 -10.1397)
(-5.01496 0 -12.01)
(-4.56273 0 -13.7271)
(-4.01527 0 -15.2653)
(-3.38367 0 -16.5971)
(-2.68098 0 -17.695)
(-1.92187 0 -18.5334)
(-1.12228 0 -19.0907)
(-0.299042 0 -19.3519)
(0.530501 0 -19.3094)
(1.34887 0 -18.9645)
(2.13882 0 -18.3269)
(2.88374 0 -17.4138)
(3.56801 0 -16.2479)
(4.17736 0 -14.8557)
(4.69926 0 -13.2649)
(5.12323 0 -11.5025)
(5.44122 0 -9.5936)
(5.64786 0 -7.55987)
(5.74064 0 -5.41977)
(5.7199 0 -3.18879)
(5.58864 0 -0.880421)
(5.35232 0 1.49245)
(5.0186 0 3.9159)
(4.59716 0 6.37353)
(4.09959 0 8.84547)
(3.53961 0 11.3077)
(2.93347 0 13.7317)
(2.30104 0 16.0843)
(1.66756 0 18.3266)
(1.06735 0 20.4075)
(0.54741 0 22.2384)
(0.153442 0 23.6345)
(-0.120079 0 24.3018)
(-0.374725 0 24.039)
(-0.729913 0 22.9644)
(-1.21708 0 21.3682)
(-1.80138 0 19.4689)
(-2.43626 0 17.3795)
(-3.08522 0 15.1629)
(-3.72126 0 12.8637)
(-4.32325 0 10.5181)
(-4.87389 0 8.1557)
(-5.35869 0 5.80042)
(-5.76528 0 3.47059)
(-6.08318 0 1.17975)
(-6.30367 0 -1.06231)
(-6.41996 0 -3.24832)
(-6.42737 0 -5.37175)
(-6.32356 0 -7.42501)
(-6.10869 0 -9.39776)
(-5.78547 0 -11.2758)
(-5.35909 0 -13.0405)
(-4.83691 0 -14.6689)
(-4.2282 0 -16.1341)
(-3.54383 0 -17.4076)
(-2.79602 0 -18.4606)
(-1.9981 0 -19.2665)
(-1.16432 0 -19.8031)
(-0.309618 0 -20.0547)
(0.426934 0 -20.7745)
(1.08493 0 -20.4252)
(1.72026 0 -19.7803)
(2.31976 0 -18.858)
(2.87118 0 -17.683)
(3.36339 0 -16.2839)
(3.78659 0 -14.6911)
(4.13256 0 -12.9345)
(4.39483 0 -11.0418)
(4.56889 0 -9.03689)
(4.65237 0 -6.93956)
(4.64521 0 -4.7652)
(4.54963 0 -2.52562)
(4.37011 0 -0.230211)
(4.11322 0 2.11241)
(3.78748 0 4.4925)
(3.4031 0 6.89758)
(2.97204 0 9.31098)
(2.50807 0 11.7108)
(2.0271 0 14.069)
(1.54782 0 16.3505)
(1.09264 0 18.5122)
(0.689025 0 20.4986)
(0.370854 0 22.2309)
(0.173557 0 23.5808)
(0.106996 0 24.3489)
(0.108759 0 24.3398)
(0.0589095 0 23.5362)
(-0.119281 0 22.1225)
(-0.422835 0 20.3101)
(-0.814923 0 18.2366)
(-1.25895 0 15.9825)
(-1.72571 0 13.6023)
(-2.19185 0 11.1389)
(-2.6381 0 8.62807)
(-3.04814 0 6.09975)
(-3.40788 0 3.57899)
(-3.70514 0 1.08658)
(-3.92958 0 -1.35996)
(-4.07272 0 -3.74508)
(-4.12827 0 -6.05355)
(-4.09225 0 -8.26894)
(-3.96319 0 -10.3723)
(-3.74227 0 -12.3416)
(-3.43329 0 -14.1515)
(-3.04255 0 -15.7738)
(-2.5787 0 -17.1788)
(-2.05244 0 -18.337)
(-1.47621 0 -19.2215)
(-0.863889 0 -19.8095)
(-0.230394 0 -20.0849)
(0.408757 0 -20.0401)
(1.03789 0 -19.6763)
(1.64159 0 -19.0037)
(2.20522 0 -18.0403)
(2.71525 0 -16.8103)
(3.15968 0 -15.3417)
(3.52837 0 -13.6641)
(3.8133 0 -11.807)
(4.00885 0 -9.79786)
(4.11194 0 -7.6611)
(4.12215 0 -5.41791)
(4.04165 0 -3.08641)
(3.87509 0 -0.682588)
(3.6294 0 1.77844)
(3.31359 0 4.28068)
(2.93852 0 6.80583)
(2.51688 0 9.33202)
(2.06333 0 11.8329)
(1.59493 0 14.2769)
(1.13195 0 16.6265)
(0.699184 0 18.8364)
(0.327827 0 20.8468)
(0.0560794 0 22.5651)
(-0.0837895 0 23.8318)
(-0.107884 0 24.4261)
(-0.114008 0 24.206)
(-0.214591 0 23.2526)
(-0.448536 0 21.7788)
(-0.794291 0 19.9653)
(-1.21542 0 17.9233)
(-1.67983 0 15.7231)
(-2.16164 0 13.4161)
(-2.6396 0 11.0431)
(-3.09587 0 8.63681)
(-3.51518 0 6.22368)
(-3.88429 0 3.82403)
(-4.19174 0 1.45323)
(-4.42776 0 -0.877167)
(-4.58437 0 -3.15789)
(-4.65558 0 -5.3803)
(-4.63752 0 -7.53448)
(-4.52859 0 -9.60771)
(-4.32953 0 -11.5834)
(-4.0433 0 -13.4407)
(-3.67499 0 -15.1544)
(-3.23158 0 -16.6961)
(-2.72176 0 -18.0355)
(-2.15572 0 -19.1426)
(-1.54491 0 -19.9896)
(-0.901879 0 -20.5533)
(-0.239988 0 -20.8176)
(0.298279 0 -21.3385)
(0.75649 0 -20.9745)
(1.19536 0 -20.3022)
(1.6038 0 -19.3408)
(1.97168 0 -18.116)
(2.29006 0 -16.6577)
(2.55135 0 -14.9978)
(2.74956 0 -13.1679)
(2.88039 0 -11.1974)
(2.94139 0 -9.11242)
(2.9321 0 -6.93471)
(2.85413 0 -4.68191)
(2.71119 0 -2.36798)
(2.509 0 -0.00439579)
(2.25524 0 2.39828)
(1.95934 0 4.82855)
(1.63231 0 7.27228)
(1.28666 0 9.71113)
(0.936539 0 12.1213)
(0.597831 0 14.4724)
(0.288531 0 16.7267)
(0.0291857 0 18.8374)
(-0.156773 0 20.7449)
(-0.243735 0 22.3692)
(-0.21003 0 23.595)
(-0.0594124 0 24.2677)
(0.148065 0 24.2509)
(0.311518 0 23.534)
(0.361018 0 22.2449)
(0.287145 0 20.5437)
(0.111778 0 18.5508)
(-0.137866 0 16.3477)
(-0.437111 0 13.9935)
(-0.7646 0 11.5352)
(-1.10177 0 9.01149)
(-1.43227 0 6.45481)
(-1.74158 0 3.89214)
(-2.01681 0 1.34602)
(-2.24667 0 -1.16423)
(-2.42161 0 -3.62112)
(-2.534 0 -6.00728)
(-2.57839 0 -8.30393)
(-2.55162 0 -10.4897)
(-2.45293 0 -12.54)
(-2.28396 0 -14.4269)
(-2.04869 0 -16.1199)
(-1.75332 0 -17.5873)
(-1.40605 0 -18.7975)
(-1.01685 0 -19.7219)
(-0.597154 0 -20.3366)
(-0.159478 0 -20.6246)
(0.283012 0 -20.5777)
(0.716975 0 -20.1973)
(1.12938 0 -19.4942)
(1.50796 0 -18.4874)
(1.84168 0 -17.2024)
(2.12101 0 -15.6688)
(2.33831 0 -13.9185)
(2.48796 0 -11.983)
(2.56664 0 -9.89225)
(2.57337 0 -7.67318)