/*--------------------------------*- C++ -*----------------------------------*\
| =========                 |                                                 |
| \\      /  F ield         | OpenFOAM: The Open Source CFD Toolbox           |
|  \\    /   O peration     | Version:  2.3.0                                 |
|   \\  /    A nd           | Web:      www.OpenFOAM.org                      |
|    \\/     M anipulation  |                                                 |
\*---------------------------------------------------------------------------*/
FoamFile
{
    version     2.0;
    format      ascii;
    class       volVectorField;
    location    "6000";
    object      U;
}
// * * * * * * * * * * * * * * * * * * * * * * * * * * * * * * * * * * * * * //

dimensions      [0 1 -1 0 0 0 0];

internalField   nonuniform List<vector> 
765
(
(46.3553 0 0.295457)
(47.1025 0 -0.402428)
(49.265 0 -1.25773)
(52.8479 0 -2.07315)
(57.2682 0 -2.44273)
(60.9597 0 -1.77123)
(61.3064 0 0.400305)
(54.8546 0 4.2268)
(38.3481 0 9.11932)
(10.3083 0 13.0805)
(-21.61 0 11.8868)
(-45.422 0 7.22454)
(-57.8203 0 2.60822)
(-61.2886 0 -0.610225)
(-59.3282 0 -2.17372)
(-55.1421 0 -2.37228)
(-50.9428 0 -1.78221)
(-47.8769 0 -0.929931)
(-46.26 0 -0.134967)
(-45.9516 0 0.47193)
(-46.6342 0 0.889685)
(-47.9896 0 1.18493)
(-49.8004 0 1.44763)
(-51.9757 0 1.75774)
(-54.5164 0 2.19326)
(-57.5058 0 2.8499)
(-61.1183 0 3.84016)
(-65.5821 0 5.21304)
(-70.9878 0 6.70657)
(-76.7906 0 7.1419)
(-80.0036 0 3.99281)
(-75.2778 0 -3.5645)
(-62.5697 0 -12.4179)
(-43.6474 0 -20.8664)
(-21.6258 0 -25.2255)
(0.59654 0 -25.7863)
(22.8366 0 -25.2479)
(44.9063 0 -20.6995)
(63.6735 0 -12.084)
(76.0482 0 -3.11655)
(80.2533 0 4.32068)
(76.709 0 7.24114)
(70.8245 0 6.67462)
(65.4272 0 5.15635)
(60.9776 0 3.79617)
(57.3702 0 2.82503)
(54.3778 0 2.18213)
(51.8382 0 1.75097)
(49.6859 0 1.43256)
(47.9473 0 1.143)
(46.7485 0 0.796751)
(82.187 0 -0.737008)
(84.4606 0 -2.68326)
(87.8412 0 -4.77088)
(92.0385 0 -6.3167)
(96.1239 0 -6.12717)
(98.2398 0 -2.57557)
(95.2822 0 5.82698)
(83.0123 0 19.7445)
(57.188 0 37.3623)
(15.3023 0 51.3386)
(-32.3602 0 47.2084)
(-68.2563 0 30.5618)
(-88.5476 0 13.8936)
(-96.7829 0 2.04071)
(-97.4207 0 -4.36112)
(-94.3111 0 -6.44734)
(-90.0477 0 -5.82895)
(-86.1116 0 -3.9913)
(-83.1549 0 -1.92758)
(-81.3048 0 -0.154866)
(-80.4149 0 1.1475)
(-80.2141 0 2.00956)
(-80.3891 0 2.5754)
(-80.6338 0 2.98054)
(-80.6534 0 3.32147)
(-80.1283 0 3.66677)
(-78.6891 0 4.0368)
(-75.8782 0 4.27039)
(-71.1602 0 3.73052)
(-64.0191 0 0.673913)
(-53.8215 0 -7.50049)
(-40.9327 0 -18.5968)
(-27.98 0 -23.1121)
(-17.7213 0 -24.8491)
(-8.7235 0 -26.3714)
(0.358173 0 -26.9093)
(9.42396 0 -26.3676)
(18.4144 0 -24.8232)
(28.7683 0 -23.023)
(41.8262 0 -18.1134)
(54.66 0 -6.90813)
(64.716 0 1.01049)
(71.7151 0 3.85178)
(76.3102 0 4.31882)
(79.0042 0 4.06974)
(80.3503 0 3.69649)
(80.8132 0 3.33909)
(80.7744 0 2.96481)
(80.5699 0 2.49275)
(80.5184 0 1.80996)
(80.9531 0 0.776002)
(86.7923 0 -3.18649)
(89.4766 0 -5.89847)
(92.5044 0 -8.53109)
(95.4689 0 -9.9396)
(97.5104 0 -8.22509)
(97.1326 0 -0.799998)
(91.9573 0 15.0285)
(78.6169 0 40.6795)
(53.5195 0 73.3099)
(14.1761 0 99.0782)
(-30.4647 0 91.5402)
(-64.3909 0 60.6757)
(-84.6519 0 29.9125)
(-94.4784 0 7.98617)
(-97.5293 0 -4.36652)
(-96.7807 0 -9.31783)
(-94.2696 0 -9.6019)
(-91.2316 0 -7.57325)
(-88.332 0 -4.83504)
(-85.8542 0 -2.28374)
(-83.8469 0 -0.309084)
(-82.2138 0 0.988088)
(-80.7468 0 1.66082)
(-79.1424 0 1.79843)
(-77.0187 0 1.45292)
(-73.9168 0 0.638351)
(-69.3087 0 -0.653632)
(-62.6777 0 -2.48456)
(-53.8576 0 -5.10868)
(-43.3284 0 -9.28219)
(-32.6277 0 -16.2967)
(-26.373 0 -25.2722)
(-20.2984 0 -30.9851)
(-13.7229 0 -33.9558)
(-6.75883 0 -35.4475)
(0.270132 0 -35.923)
(7.29112 0 -35.4504)
(14.242 0 -33.9291)
(20.7896 0 -30.8472)
(26.8745 0 -24.8998)
(33.2859 0 -15.8343)
(44.2042 0 -8.96944)
(54.6913 0 -4.89901)
(63.4138 0 -2.30584)
(69.9094 0 -0.492753)
(74.4001 0 0.766181)
(77.4274 0 1.52063)
(79.5324 0 1.76976)
(81.1824 0 1.48649)
(82.7626 0 0.605859)
(84.5712 0 -0.952401)
(77.6205 0 -5.55644)
(79.5793 0 -8.33808)
(81.2688 0 -10.7349)
(82.284 0 -11.321)
(81.9576 0 -7.78683)
(79.2645 0 3.02947)
(72.7414 0 24.5692)
(60.3881 0 58.8334)
(40.0529 0 102.445)
(10.3304 0 136.721)
(-22.8472 0 126.729)
(-48.9425 0 85.4835)
(-65.9614 0 44.4382)
(-75.8099 0 15.0577)
(-80.6617 0 -2.04416)
(-82.2962 0 -9.7118)
(-82.0164 0 -11.3726)
(-80.6969 0 -9.89647)
(-78.891 0 -7.24369)
(-76.9271 0 -4.55149)
(-74.9754 0 -2.3773)
(-73.0849 0 -0.947098)
(-71.1943 0 -0.326822)
(-69.1178 0 -0.545226)
(-66.5491 0 -1.65324)
(-63.0678 0 -3.71406)
(-58.1717 0 -6.73885)
(-51.3943 0 -10.581)
(-42.6894 0 -14.8986)
(-32.8563 0 -19.3334)
(-23.4493 0 -24.3491)
(-18.7803 0 -30.5529)
(-14.6423 0 -35.8738)
(-10.1088 0 -39.2821)
(-5.07939 0 -41.3279)
(0.20646 0 -42.0186)
(5.48288 0 -41.3078)
(10.4958 0 -39.2266)
(15.0094 0 -35.7397)
(19.167 0 -30.2612)
(23.9973 0 -24.1011)
(33.7297 0 -19.1487)
(43.5563 0 -14.6621)
(52.1814 0 -10.2959)
(58.8258 0 -6.45852)
(63.6084 0 -3.4954)
(67.0228 0 -1.54397)
(69.578 0 -0.588659)
(71.6895 0 -0.569467)
(73.6486 0 -1.43652)
(75.6154 0 -3.14311)
(61.4218 0 -7.0698)
(62.0436 0 -9.46636)
(62.0136 0 -11.1676)
(61.0158 0 -10.5973)
(58.6287 0 -5.24206)
(54.3044 0 8.31463)
(47.4149 0 33.7944)
(37.2681 0 73.372)
(23.2898 0 123.176)
(5.61746 0 161.769)
(-13.2237 0 150.537)
(-29.4379 0 103.745)
(-41.8047 0 56.7252)
(-50.5449 0 22.5848)
(-56.3287 0 2.04133)
(-59.8121 0 -7.96616)
(-61.6045 0 -11.15)
(-62.1964 0 -10.6226)
(-61.9606 0 -8.52302)
(-61.1781 0 -6.12065)
(-60.0553 0 -4.08257)
(-58.7244 0 -2.7364)
(-57.2327 0 -2.26041)
(-55.5241 0 -2.80833)
(-53.4185 0 -4.55791)
(-50.6045 0 -7.68859)
(-46.6693 0 -12.251)
(-41.1885 0 -17.9213)
(-34.0086 0 -23.7605)
(-25.9077 0 -28.2292)
(-17.4284 0 -30.8063)
(-13.0403 0 -34.6289)
(-9.89251 0 -39.7033)
(-6.79667 0 -43.3882)
(-3.40683 0 -45.6861)
(0.156197 0 -46.4701)
(3.71185 0 -45.6555)
(7.09282 0 -43.3213)
(10.1836 0 -39.5892)
(13.3715 0 -34.4458)
(18.0693 0 -30.8162)
(26.727 0 -28.1939)
(34.8117 0 -23.4945)
(41.8908 0 -17.5215)
(47.2334 0 -11.8483)
(51.0571 0 -7.38234)
(53.8039 0 -4.40917)
(55.8833 0 -2.8552)
(57.5904 0 -2.5333)
(59.0804 0 -3.2578)
(60.3821 0 -4.8512)
(40.0414 0 -7.25748)
(39.2496 0 -8.98149)
(37.6633 0 -9.77681)
(35.1099 0 -8.03201)
(31.4228 0 -1.20016)
(26.4927 0 14.1217)
(20.3856 0 41.568)
(13.4233 0 83.0936)
(6.47295 0 134.281)
(1.01674 0 173.057)
(-3.54506 0 161.772)
(-9.52091 0 114.275)
(-16.4671 0 65.607)
(-23.0593 0 29.5097)
(-28.6743 0 7.0921)
(-33.0923 0 -4.54637)
(-36.3228 0 -9.0694)
(-38.4948 0 -9.59816)
(-39.7719 0 -8.3042)
(-40.3229 0 -6.48906)
(-40.3122 0 -4.85987)
(-39.8886 0 -3.79838)
(-39.1646 0 -3.55962)
(-38.1894 0 -4.39971)
(-36.917 0 -6.62237)
(-35.1806 0 -10.5327)
(-32.6996 0 -16.2557)
(-29.1354 0 -23.388)
(-24.2568 0 -30.6199)
(-18.5317 0 -35.7252)
(-12.0373 0 -36.9995)
(-7.84707 0 -38.3068)
(-5.71639 0 -42.2985)
(-3.90746 0 -45.8728)
(-1.94581 0 -48.3444)
(0.124478 0 -49.2147)
(2.18944 0 -48.3058)
(4.14406 0 -45.8042)
(5.96323 0 -42.226)
(8.11229 0 -38.3164)
(12.6429 0 -37.2519)
(19.2042 0 -35.738)
(24.9018 0 -30.2759)
(29.6642 0 -22.8557)
(33.089 0 -15.7252)
(35.4561 0 -10.1342)
(37.1134 0 -6.41949)
(38.331 0 -4.41571)
(39.2536 0 -3.80072)
(39.9026 0 -4.26074)
(40.2074 0 -5.51767)
(15.1183 0 -6.14612)
(13.2237 0 -7.12911)
(10.5929 0 -7.07639)
(7.1983 0 -4.41192)
(3.09519 0 3.32145)
(-1.45636 0 19.3146)
(-5.85517 0 46.8751)
(-8.9326 0 87.39)
(-8.68201 0 135.849)
(-2.95596 0 171.467)
(5.12526 0 161.056)
(8.85156 0 116.9)
(7.71686 0 70.3225)
(4.05655 0 34.7801)
(-0.437332 0 12.025)
(-4.845 0 -0.373622)
(-8.69605 0 -5.80223)
(-11.8131 0 -7.21965)
(-14.1736 0 -6.73321)
(-15.821 0 -5.61207)
(-16.8393 0 -4.54423)
(-17.3435 0 -3.90857)
(-17.4631 0 -3.98351)
(-17.3118 0 -5.08211)
(-16.9465 0 -7.60024)
(-16.3333 0 -11.9552)
(-15.3421 0 -18.3655)
(-13.7771 0 -26.4316)
(-11.474 0 -34.6552)
(-8.62782 0 -40.4528)
(-5.14198 0 -41.4222)
(-2.71794 0 -41.0129)
(-1.93091 0 -43.7271)
(-1.3536 0 -47.113)
(-0.671089 0 -49.6815)
(0.108533 0 -50.6085)
(0.883261 0 -49.6364)
(1.55513 0 -47.044)
(2.13796 0 -43.6812)
(2.92078 0 -41.1397)
(5.5535 0 -41.8475)
(9.09187 0 -40.4806)
(11.905 0 -34.2312)
(14.1047 0 -25.7714)
(15.5416 0 -17.7086)
(16.4183 0 -11.455)
(16.9375 0 -7.31773)
(17.218 0 -5.02263)
(17.2728 0 -4.13025)
(17.0251 0 -4.23801)
(16.3499 0 -5.01909)
(-10.8162 0 -4.14166)
(-13.3307 0 -4.46792)
(-16.4527 0 -3.75884)
(-20.0909 0 -0.534128)
(-23.9734 0 7.46486)
(-27.5047 0 23.0763)
(-29.586 0 49.0517)
(-28.3279 0 86)
(-21.1544 0 128.589)
(-6.03195 0 158.882)
(12.1928 0 149.927)
(24.4205 0 111.919)
(29.1543 0 70.4402)
(28.9545 0 37.6661)
(26.1959 0 15.9988)
(22.4458 0 3.71901)
(18.6012 0 -2.10634)
(15.1278 0 -4.13184)
(12.2167 0 -4.30899)
(9.9231 0 -3.83353)
(8.22815 0 -3.34419)
(7.05735 0 -3.17898)
(6.28793 0 -3.59492)
(5.77598 0 -4.91998)
(5.40051 0 -7.60346)
(5.08888 0 -12.1359)
(4.80744 0 -18.8002)
(4.54316 0 -27.2145)
(4.23623 0 -35.8123)
(3.80374 0 -41.9109)
(3.54536 0 -42.8334)
(2.44587 0 -41.5178)
(1.73118 0 -43.7092)
(1.04366 0 -47.1248)
(0.514602 0 -49.8066)
(0.102855 0 -50.7821)
(-0.315083 0 -49.7527)
(-0.86133 0 -47.0452)
(-1.56816 0 -43.662)
(-2.29873 0 -41.6948)
(-3.35738 0 -43.3614)
(-3.56096 0 -41.9463)
(-4.03078 0 -35.3278)
(-4.39834 0 -26.4494)
(-4.75734 0 -18.0282)
(-5.13765 0 -11.5293)
(-5.54406 0 -7.22206)
(-6.01587 0 -4.75508)
(-6.6413 0 -3.61192)
(-7.5573 0 -3.3429)
(-8.91131 0 -3.61825)
(-34.968 0 -1.7311)
(-37.6694 0 -1.49009)
(-40.8875 0 -0.306881)
(-44.4038 0 3.1225)
(-47.7097 0 10.7439)
(-49.8583 0 24.9283)
(-49.2774 0 47.7096)
(-43.65 0 79.0237)
(-30.4061 0 113.794)
(-8.13035 0 137.751)
(17.3995 0 130.537)
(36.3856 0 100.136)
(46.522 0 65.8289)
(49.9658 0 37.7379)
(49.303 0 18.5361)
(46.5762 0 7.23319)
(43.1056 0 1.52719)
(39.6569 0 -0.828254)
(36.6121 0 -1.52892)
(34.1181 0 -1.62996)
(32.1962 0 -1.68818)
(30.7855 0 -1.97837)
(29.7518 0 -2.7094)
(28.9142 0 -4.19744)
(28.097 0 -6.91259)
(27.1353 0 -11.3615)
(25.8296 0 -17.8166)
(23.9374 0 -25.8671)
(21.1096 0 -33.9476)
(17.3071 0 -39.5711)
(12.9496 0 -40.3003)
(7.65865 0 -39.2812)
(5.46129 0 -42.1586)
(3.50357 0 -45.9226)
(1.74218 0 -48.7579)
(0.100582 0 -49.7756)
(-1.54749 0 -48.6906)
(-3.33004 0 -45.8116)
(-5.33465 0 -42.0598)
(-7.547 0 -39.4411)
(-13.0276 0 -40.8129)
(-17.3139 0 -39.5913)
(-21.1446 0 -33.4369)
(-23.9577 0 -25.0455)
(-25.8784 0 -16.9659)
(-27.2347 0 -10.6677)
(-28.2597 0 -6.43952)
(-29.1506 0 -3.92955)
(-30.0839 0 -2.59735)
(-31.2536 0 -1.97823)
(-32.842 0 -1.76891)
(-54.691 0 0.69082)
(-57.2598 0 1.45801)
(-60.2772 0 2.97781)
(-63.3941 0 6.28808)
(-65.8883 0 12.913)
(-66.5048 0 24.6511)
(-63.3394 0 42.8745)
(-53.9471 0 67.1599)
(-36.1253 0 93.2492)
(-9.25438 0 110.727)
(20.6316 0 105.331)
(44.1797 0 82.9253)
(58.5814 0 56.8973)
(65.292 0 34.9013)
(66.755 0 19.3925)
(65.2407 0 9.91139)
(62.4033 0 4.81347)
(59.2719 0 2.36546)
(56.4034 0 1.23618)
(54.0423 0 0.585895)
(52.2487 0 -0.0139096)
(50.965 0 -0.743637)
(50.021 0 -1.73401)
(49.1671 0 -3.27033)
(48.1523 0 -5.82224)
(46.7157 0 -9.85832)
(44.5073 0 -15.5673)
(41.12 0 -22.4711)
(35.9983 0 -29.0637)
(29.1877 0 -33.3753)
(20.8254 0 -33.8472)
(13.0444 0 -34.1335)
(9.48752 0 -39.1262)
(6.29308 0 -43.4783)
(3.16126 0 -46.4396)
(0.0941271 0 -47.4751)
(-2.97441 0 -46.3614)
(-6.12042 0 -43.334)
(-9.36312 0 -38.9688)
(-12.9214 0 -34.2707)
(-21.3675 0 -34.2212)
(-29.5575 0 -33.393)
(-36.3217 0 -28.6107)
(-41.3209 0 -21.6897)
(-44.6382 0 -14.7208)
(-46.8109 0 -9.14015)
(-48.2411 0 -5.30503)
(-49.2722 0 -2.93747)
(-50.1767 0 -1.51954)
(-51.2323 0 -0.591728)
(-52.6893 0 0.0963181)
(-67.2301 0 2.86043)
(-69.387 0 4.11965)
(-71.8793 0 5.85865)
(-74.2926 0 8.78035)
(-75.7936 0 13.9217)
(-74.9799 0 22.4782)
(-69.8479 0 35.2961)
(-58.0603 0 51.9338)
(-37.8829 0 69.3644)
(-9.38076 0 80.8047)
(21.6923 0 77.1609)
(47.0838 0 62.3833)
(63.8433 0 44.8622)
(72.7587 0 29.6856)
(75.955 0 18.6734)
(75.6848 0 11.6413)
(73.7238 0 7.53641)
(71.2324 0 5.19835)
(68.8555 0 3.72151)
(66.8862 0 2.54449)
(65.4108 0 1.41064)
(64.388 0 0.269436)
(63.6276 0 -0.886096)
(62.8191 0 -2.29284)
(61.6423 0 -4.42354)
(59.7522 0 -7.6922)
(56.6822 0 -12.2189)
(51.9738 0 -17.5425)
(45.0419 0 -22.216)
(36.0694 0 -24.7974)
(25.0477 0 -25.1164)
(18.6673 0 -28.0181)
(14.1608 0 -34.8948)
(9.61843 0 -39.6754)
(4.87768 0 -42.6045)
(0.0697824 0 -43.6051)
(-4.73334 0 -42.5251)
(-9.48153 0 -39.512)
(-14.0273 0 -34.6324)
(-18.5919 0 -27.5601)
(-25.7914 0 -25.267)
(-36.7678 0 -24.9001)
(-45.6102 0 -21.8954)
(-52.3404 0 -16.8749)
(-56.8851 0 -11.4636)
(-59.8201 0 -7.03683)
(-61.6185 0 -3.93807)
(-62.7415 0 -1.95878)
(-63.545 0 -0.613123)
(-64.3828 0 0.556761)
(-65.5618 0 1.71263)
(-69.6921 0 4.3647)
(-71.0973 0 5.91613)
(-72.6034 0 7.63328)
(-73.8634 0 9.88626)
(-74.1425 0 13.2265)
(-72.1803 0 18.2902)
(-66.1901 0 25.5282)
(-54.1587 0 34.6994)
(-34.7511 0 44.1709)
(-8.35646 0 50.3476)
(20.0642 0 48.3032)
(43.7725 0 40.313)
(60.1277 0 30.7711)
(69.528 0 22.3633)
(73.7107 0 16.0683)
(74.6395 0 11.792)
(73.8971 0 8.97742)
(72.5181 0 7.0109)
(71.0611 0 5.41313)
(69.763 0 3.89366)
(68.6879 0 2.35326)
(67.8184 0 0.881304)
(67.0171 0 -0.333636)
(66.0494 0 -1.42416)
(64.6051 0 -2.89945)
(62.2787 0 -5.10773)
(58.5206 0 -8.05711)
(53.0032 0 -11.2082)
(45.6697 0 -12.8208)
(37.7009 0 -12.7808)
(29.4722 0 -16.4495)
(24.786 0 -23.0361)
(19.6733 0 -29.7177)
(13.4258 0 -34.2308)
(6.8376 0 -36.901)
(0.0210384 0 -37.8053)
(-6.78918 0 -36.8285)
(-13.3717 0 -34.0724)
(-19.6067 0 -29.4107)
(-24.6754 0 -22.4713)
(-29.424 0 -16.0037)
(-38.095 0 -12.9016)
(-46.1112 0 -12.8251)
(-53.3826 0 -10.7877)
(-58.7144 0 -7.49098)
(-62.2623 0 -4.59939)
(-64.4331 0 -2.5218)
(-65.7816 0 -1.16474)
(-66.7151 0 -0.0575486)
(-67.5461 0 1.2695)
(-68.5046 0 2.80748)
(-61.1669 0 6.36364)
(-61.2822 0 8.14691)
(-61.0802 0 9.99912)
(-60.4162 0 11.9868)
(-58.8978 0 14.2059)
(-55.7805 0 16.7617)
(-49.9498 0 19.7198)
(-40.0984 0 22.9984)
(-25.3268 0 26.1852)
(-5.88302 0 28.2519)
(14.8691 0 27.5253)
(32.44 0 24.8617)
(45.126 0 21.6039)
(53.2062 0 18.4615)
(57.8236 0 15.6883)
(60.2264 0 13.2961)
(61.3799 0 11.1993)
(61.8759 0 9.29458)
(61.9947 0 7.49704)
(61.8171 0 5.75503)
(61.346 0 4.06489)
(60.6067 0 2.52282)
(59.6709 0 1.31045)
(58.7363 0 0.3714)
(57.6699 0 -0.537542)
(56.1241 0 -1.51979)
(53.672 0 -2.64085)
(49.9815 0 -4.08798)
(44.7466 0 -6.0296)
(40.5101 0 -8.52798)
(36.4575 0 -12.3912)
(31.6007 0 -18.0885)
(25.0399 0 -23.3736)
(17.1923 0 -27.1007)
(8.74459 0 -29.3724)
(-0.0402658 0 -30.1426)
(-8.8188 0 -29.3088)
(-17.2506 0 -26.9615)
(-25.0673 0 -23.1139)
(-31.5168 0 -17.6556)
(-36.2068 0 -11.9703)
(-40.2936 0 -8.19504)
(-44.7987 0 -5.67936)
(-49.932 0 -3.74382)
(-53.4034 0 -2.34136)
(-55.6745 0 -1.24464)
(-57.1067 0 -0.274485)
(-58.1393 0 0.635701)
(-59.1226 0 1.64256)
(-60.0564 0 2.99024)
(-60.7526 0 4.62568)
(-52.842 0 3.53815)
(-50.4085 0 4.34346)
(-47.3254 0 5.14321)
(-43.5735 0 5.95198)
(-39.1015 0 6.76395)
(-33.8227 0 7.54768)
(-27.6186 0 8.24365)
(-20.3542 0 8.77265)
(-11.9616 0 9.07206)
(-2.51447 0 9.15956)
(7.21293 0 9.14866)
(16.2143 0 8.97667)
(24.1297 0 8.57505)
(30.9408 0 7.96972)
(36.7536 0 7.23434)
(41.6968 0 6.44022)
(45.8776 0 5.63481)
(49.3689 0 4.83874)
(52.2103 0 4.04978)
(54.4118 0 3.24878)
(55.9636 0 2.4171)
(56.8401 0 1.59728)
(57.074 0 0.910706)
(56.8381 0 0.33008)
(56.2138 0 -0.246353)
(55.166 0 -0.844887)
(53.639 0 -1.46553)
(51.5969 0 -2.17323)
(48.9234 0 -3.18803)
(45.7545 0 -4.8796)
(41.8663 0 -7.60482)
(36.4448 0 -11.1823)
(29.002 0 -14.6037)
(20.0665 0 -17.1319)
(10.2248 0 -18.7025)
(-0.0965626 0 -19.2363)
(-10.4104 0 -18.6591)
(-20.2287 0 -17.0371)
(-29.1182 0 -14.4362)
(-36.4514 0 -10.9256)
(-41.7234 0 -7.33284)
(-45.542 0 -4.62332)
(-48.6491 0 -2.98588)
(-51.2146 0 -1.99786)
(-53.142 0 -1.29453)
(-54.5576 0 -0.67093)
(-55.4973 0 -0.0732599)
(-56.0195 0 0.501736)
(-56.1379 0 1.10689)
(-55.7216 0 1.85388)
(-54.6204 0 2.70366)
(-50.9923 0 3.02869)
(-48.3745 0 3.20648)
(-45.0925 0 3.37168)
(-41.1165 0 3.52778)
(-36.4093 0 3.67507)
(-30.9364 0 3.8101)
(-24.6849 0 3.92565)
(-17.6903 0 4.01271)
(-10.074 0 4.06442)
(-2.0456 0 4.08668)
(6.08032 0 4.0808)
(13.961 0 4.04847)
(21.3335 0 3.98234)
(28.0252 0 3.88364)
(33.9566 0 3.7603)
(39.1163 0 3.62075)
(43.5291 0 3.47067)
(47.2328 0 3.31215)
(50.263 0 3.14381)
(52.6453 0 2.96164)
(54.3942 0 2.76222)
(55.5306 0 2.54892)
(56.133 0 2.32703)
(56.3024 0 2.07319)
(56.0787 0 1.77187)
(55.4771 0 1.42238)
(54.5272 0 0.99462)
(53.2571 0 0.392419)
(51.5697 0 -0.58641)
(49.1979 0 -2.12256)
(45.586 0 -4.3284)
(39.9826 0 -7.01635)
(32.095 0 -9.53336)
(22.3782 0 -11.4688)
(11.4378 0 -12.7028)
(-0.146172 0 -13.1192)
(-11.7196 0 -12.65)
(-22.6259 0 -11.3614)
(-32.2763 0 -9.36593)
(-40.0386 0 -6.7851)
(-45.4749 0 -4.07447)
(-48.9317 0 -1.88476)
(-51.1737 0 -0.391729)
(-52.7552 0 0.545097)
(-53.9266 0 1.12098)
(-54.7714 0 1.53506)
(-55.2579 0 1.8741)
(-55.3609 0 2.1625)
(-55.063 0 2.4035)
(-54.3005 0 2.62272)
(-52.9629 0 2.83384)
)
;

boundaryField
{
    top
    {
        type            directionMixed;
        refValue        uniform (0 0 0);
        refGradient     uniform (0 0 0);
        valueFraction   uniform (0 0 0 0 0 1);
        value           nonuniform List<vector> 
51
(
(-50.9923 0 0)
(-48.3745 0 0)
(-45.0925 0 0)
(-41.1165 0 0)
(-36.4093 0 0)
(-30.9364 0 0)
(-24.6849 0 0)
(-17.6903 0 0)
(-10.074 0 0)
(-2.0456 0 0)
(6.08032 0 0)
(13.961 0 0)
(21.3335 0 0)
(28.0252 0 0)
(33.9566 0 0)
(39.1163 0 0)
(43.5291 0 0)
(47.2328 0 0)
(50.263 0 0)
(52.6453 0 0)
(54.3942 0 0)
(55.5306 0 0)
(56.133 0 0)
(56.3024 0 0)
(56.0787 0 0)
(55.4771 0 0)
(54.5272 0 0)
(53.2571 0 0)
(51.5697 0 0)
(49.1979 0 0)
(45.586 0 0)
(39.9826 0 0)
(32.095 0 0)
(22.3782 0 0)
(11.4378 0 0)
(-0.146172 0 0)
(-11.7196 0 0)
(-22.6259 0 0)
(-32.2763 0 0)
(-40.0386 0 0)
(-45.4749 0 0)
(-48.9317 0 0)
(-51.1737 0 0)
(-52.7552 0 0)
(-53.9266 0 0)
(-54.7714 0 0)
(-55.2579 0 0)
(-55.3609 0 0)
(-55.063 0 0)
(-54.3005 0 0)
(-52.9629 0 0)
)
;
    }
    bottom
    {
        type            fixedValue;
        value           uniform (0 0 0);
    }
    frontAndBack
    {
        type            empty;
    }
    left_cyc
    {
        type            cyclic;
    }
    right_cyc
    {
        type            cyclic;
    }
}


// ************************************************************************* //
