/*--------------------------------*- C++ -*----------------------------------*\
| =========                 |                                                 |
| \\      /  F ield         | OpenFOAM: The Open Source CFD Toolbox           |
|  \\    /   O peration     | Version:  2.3.0                                 |
|   \\  /    A nd           | Web:      www.OpenFOAM.org                      |
|    \\/     M anipulation  |                                                 |
\*---------------------------------------------------------------------------*/
FoamFile
{
    version     2.0;
    format      ascii;
    class       volScalarField;
    location    "24000";
    object      p_rgh;
}
// * * * * * * * * * * * * * * * * * * * * * * * * * * * * * * * * * * * * * //

dimensions      [0 2 -2 0 0 0 0];

internalField   nonuniform List<scalar> 
192
(
-1753.47
-1762.43
-1770.98
-1779.93
-1790.37
-1803.5
-1820
-1838.8
-1857.95
-1873.62
-1879.11
-1868.73
-1851.22
-1722.6
-1732.37
-1741.62
-1751.02
-1761.5
-1774.13
-1789.41
-1807.97
-1829.09
-1849.94
-1859.32
-1842.85
-1821.39
-1679.2
-1689.92
-1700.23
-1710.52
-1721.41
-1733.89
-1749.49
-1771.67
-1801.3
-1835.34
-1852.21
-1823.22
-1789.77
-1650.67
-1661.65
-1672.41
-1682.91
-1693.23
-1704.15
-1719
-1743.15
-1780.62
-1828.5
-1852.93
-1811.18
-1765.38
-1649.46
-1659.18
-1668.89
-1677.99
-1686.01
-1693.71
-1705.52
-1728.71
-1771.65
-1831.11
-1861.41
-1809.59
-1753.59
-1669.34
-1677.28
-1684.95
-1691.31
-1695.57
-1699.14
-1705.97
-1726.91
-1773.59
-1841.06
-1874.66
-1816.96
-1753.54
-1699.82
-1705.79
-1710.71
-1713.42
-1713.46
-1712.79
-1716.89
-1737.76
-1785.54
-1853.77
-1888.08
-1829.81
-1765.35
-1732.77
-1736.32
-1738.12
-1737.84
-1736.49
-1734.91
-1739.62
-1759.67
-1803.34
-1865.57
-1898.84
-1844.02
-1785.32
-1762.39
-1764.58
-1765.46
-1765.19
-1763.96
-1763.95
-1769.63
-1787.46
-1823.81
-1875.71
-1906.12
-1858.17
-1809.34
-1785.33
-1788.89
-1791.22
-1792.49
-1793.38
-1795.42
-1801.52
-1816.13
-1843.87
-1883.53
-1909.43
-1870.82
-1833.5
-1787.09
-1795.41
-1802.53
-1808.57
-1813.86
-1819.26
-1826.55
-1838.6
-1858.62
-1886.61
-1906.89
-1878.55
-1852.03
-1732.95
-1750.61
-1766.85
-1781.78
-1795.49
-1808.25
-1820.74
-1834.39
-1851.07
-1871.19
-1886.06
-1866.41
-1846.67
-1549.76
-1579.12
-1606.59
-1632.53
-1657.16
-1680.56
-1702.75
-1723.91
-1744.29
-1763.34
-1774.86
-1759.42
-1151.77
-1185.84
-1218.4
-1249.64
-1279.46
-1307.55
-1333.46
-1356.74
-1377.03
-1393.41
-1401.13
-1390.13
-427.546
-458.313
-489.789
-522.063
-555.226
-589.186
-623.453
-656.807
-686.818
-709.298
-717.146
-704.049
)
;

boundaryField
{
    top
    {
        type            fixedValue;
        value           uniform 0;
    }
    bottom
    {
        type            fixedFluxPressure;
        gradient        uniform 0;
        value           nonuniform List<scalar> 
13
(
-1753.47
-1762.43
-1770.98
-1779.93
-1790.37
-1803.5
-1820
-1838.8
-1857.95
-1873.62
-1879.11
-1868.73
-1851.22
)
;
    }
    frontAndBack
    {
        type            empty;
    }
    left_cyc
    {
        type            cyclic;
    }
    right_cyc
    {
        type            cyclic;
    }
    procBoundary0to1
    {
        type            processor;
        value           nonuniform List<scalar> 
16
(
-1831.76
-1800.98
-1762.59
-1732.77
-1718.26
-1716.77
-1727.58
-1750.3
-1779.68
-1810.39
-1834.73
-1830.94
-1739.41
-1739.41
-1372.14
-678.406
)
;
    }
    procBoundary0to3throughleft_cyc
    {
        type            processorCyclic;
        value           nonuniform List<scalar> 
15
(
-1743.64
-1711.77
-1667.88
-1639.5
-1640.1
-1661.93
-1693.87
-1728.28
-1759.01
-1780.57
-1777.52
-1713.76
-1518.28
-1115.87
-397.464
)
;
    }
}


// ************************************************************************* //
