/*--------------------------------*- C++ -*----------------------------------*\
| =========                 |                                                 |
| \\      /  F ield         | OpenFOAM: The Open Source CFD Toolbox           |
|  \\    /   O peration     | Version:  2.3.0                                 |
|   \\  /    A nd           | Web:      www.OpenFOAM.org                      |
|    \\/     M anipulation  |                                                 |
\*---------------------------------------------------------------------------*/
FoamFile
{
    version     2.0;
    format      ascii;
    class       surfaceScalarField;
    location    "24000";
    object      phi;
}
// * * * * * * * * * * * * * * * * * * * * * * * * * * * * * * * * * * * * * //

dimensions      [0 3 -1 0 0 0 0];

internalField   nonuniform List<scalar> 
356
(
0.308006
0.00235234
0.313069
-0.00506276
0.327248
-0.0141792
0.350404
-0.0231559
0.378508
-0.0281041
0.401366
-0.0228582
0.401682
-0.000316291
0.35735
0.0443326
0.247604
0.109746
0.0681784
0.179426
-0.139286
0.207464
-0.295895
0.156609
0.0848141
0.547187
-0.00589187
0.562197
-0.0200728
0.584291
-0.0362732
0.611349
-0.0502141
0.637006
-0.0537617
0.648663
-0.0345149
0.626183
0.0221636
0.541982
0.128534
0.368713
0.283015
0.100164
0.447975
-0.205382
0.513009
-0.442863
0.394091
0.224048
0.578452
-0.0205026
0.59606
-0.0376807
0.615775
-0.0559877
0.634772
-0.0692118
0.647226
-0.0662156
0.642993
-0.0302811
0.606167
0.058989
0.514954
0.219747
0.34604
0.451929
0.093274
0.700741
-0.191349
0.797633
-0.416835
0.619577
0.36316
0.517364
-0.0336386
0.53014
-0.0504569
0.541034
-0.0668818
0.547312
-0.0754897
0.544525
-0.0634279
0.525811
-0.0115671
0.481149
0.103651
0.397559
0.303337
0.261146
0.588342
0.0695125
0.892375
-0.14215
1.0093
-0.316216
0.793642
0.479679
0.409288
-0.0403778
0.413227
-0.0543958
0.412813
-0.0664676
0.405963
-0.0686396
0.389933
-0.0473975
0.361122
0.0172437
0.315232
0.14954
0.247677
0.370892
0.154965
0.681054
0.0401716
1.00717
-0.0811955
1.13066
-0.189838
0.902285
0.563739
0.266825
-0.0391536
0.261442
-0.0490121
0.2508
-0.0558256
0.233805
-0.0516452
0.209462
-0.0230546
0.177156
0.0495496
0.137303
0.189393
0.0921906
0.416004
0.0474659
0.725779
0.0109686
1.04367
-0.0204362
1.16207
-0.0611587
0.943007
0.610165
0.100788
-0.0309067
0.0881522
-0.036376
0.0706708
-0.0383442
0.048219
-0.0291933
0.0212956
0.00386879
-0.00816822
0.0790134
-0.0360518
0.217277
-0.0544248
0.434377
-0.0507169
0.722071
-0.0151409
1.00809
0.0337541
1.11317
0.0573433
0.919418
0.616673
-0.0721803
-0.0182284
-0.088873
-0.0196832
-0.109528
-0.0176894
-0.133462
-0.00525917
-0.158743
0.0291503
-0.181188
0.101458
-0.193236
0.229326
-0.182532
0.423673
-0.133012
0.672551
-0.0366133
0.91169
0.0777309
0.998829
0.157695
0.839453
0.583404
-0.233534
-0.00409752
-0.251416
-0.00180122
-0.272606
0.0035002
-0.295555
0.0176899
-0.316763
0.0503584
-0.329796
0.114491
-0.32408
0.223609
-0.284703
0.384297
-0.195613
0.58346
-0.052772
0.76885
0.109807
0.83625
0.234754
0.714507
0.51388
-0.36552
0.0091868
-0.382449
0.0151285
-0.402177
0.023228
-0.422299
0.037812
-0.437939
0.0659982
-0.440706
0.117258
-0.418058
0.200961
-0.354427
0.320667
-0.236
0.465033
-0.0632007
0.59605
0.129147
0.643902
0.284773
0.558881
0.415888
-0.449667
0.0202167
-0.463801
0.0292627
-0.479962
0.0393888
-0.495325
0.053175
-0.504316
0.0749894
-0.49768
0.110621
-0.462393
0.165674
-0.383708
0.241981
-0.250704
0.332028
-0.0671215
0.412468
0.134515
0.442265
0.303009
0.390387
0.302152
-0.466678
0.027998
-0.475811
0.0383955
-0.485449
0.0490266
-0.493221
0.0609469
-0.494233
0.0760011
-0.480232
0.0966205
-0.439705
0.125147
-0.360038
0.162315
-0.232817
0.204807
-0.0627023
0.242354
0.122945
0.256618
0.280962
0.23237
-0.410491
0.0306096
-0.411124
0.0390284
-0.409578
0.0474808
-0.404835
0.0562045
-0.394276
0.065442
-0.373042
0.0753857
-0.333982
0.0860872
-0.26896
0.0972937
-0.172325
0.108172
-0.0468823
0.116911
0.0896007
0.120135
0.114714
-0.355398
0.0187973
-0.339246
0.0228768
-0.318785
0.0270196
-0.293879
0.0312978
-0.264189
0.035752
-0.229153
0.04035
-0.188009
0.0449432
-0.139941
0.0492261
-0.0845056
0.0527367
-0.0225615
0.0549664
0.042007
0.0555663
0.0544464
-0.343166
-0.325787
-0.304006
-0.277627
-0.24641
-0.210132
-0.168718
-0.122411
-0.0719733
-0.0188068
0.0351195
)
;

boundaryField
{
    top
    {
        type            calculated;
        value           nonuniform List<scalar> 
12
(
0.00569397
0.00549795
0.00523856
0.00491944
0.00453433
0.00407273
0.00352915
0.00291826
0.00229944
0.00179986
0.00164005
0.00193018
)
;
    }
    bottom
    {
        type            calculated;
        value           uniform 0;
    }
    frontAndBack
    {
        type            empty;
        value           nonuniform 0();
    }
    left_cyc
    {
        type            cyclic;
        value           nonuniform 0();
    }
    right_cyc
    {
        type            cyclic;
        value           nonuniform 0();
    }
    procBoundary0to1
    {
        type            processor;
        value           nonuniform List<scalar> 
16
(
-0.380709
-0.582097
-0.555947
-0.432735
-0.273898
-0.107585
0.0508355
0.190964
0.304278
0.382765
0.416745
0.392017
0.191097
0.207257
0.102275
0.0876357
)
;
    }
    procBoundary0to3throughleft_cyc
    {
        type            processorCyclic;
        value           nonuniform List<scalar> 
15
(
-0.310358
-0.538942
-0.563841
-0.504228
-0.402549
-0.26805
-0.109035
0.059502
0.219403
0.352235
0.438637
0.458897
0.407879
0.36721
0.356269
)
;
    }
}


// ************************************************************************* //
