/*--------------------------------*- C++ -*----------------------------------*\
| =========                 |                                                 |
| \\      /  F ield         | OpenFOAM: The Open Source CFD Toolbox           |
|  \\    /   O peration     | Version:  2.3.0                                 |
|   \\  /    A nd           | Web:      www.OpenFOAM.org                      |
|    \\/     M anipulation  |                                                 |
\*---------------------------------------------------------------------------*/
FoamFile
{
    version     2.0;
    format      ascii;
    class       volScalarField;
    location    "10000";
    object      NUEff;
}
// * * * * * * * * * * * * * * * * * * * * * * * * * * * * * * * * * * * * * //

dimensions      [0 2 -1 0 0 0 0];

internalField   nonuniform List<scalar> 
765
(
0.285619
0.274632
0.257936
0.239213
0.221035
0.204775
0.191177
0.181404
0.173664
0.167463
0.162722
0.159553
0.158225
0.159086
0.161867
0.166265
0.17213
0.17949
0.18875
0.201462
0.217158
0.234992
0.253791
0.271293
0.284027
0.288072
0.281349
0.266957
0.248818
0.230117
0.212785
0.19781
0.186159
0.17743
0.170466
0.164972
0.160974
0.158656
0.158363
0.1602
0.163793
0.168917
0.175501
0.183732
0.194414
0.208703
0.225516
0.243998
0.262502
0.278135
0.287052
0.964057
0.961992
0.957926
0.951122
0.939835
0.919784
0.878604
0.77163
0.502145
0.296379
0.224856
0.196794
0.187537
0.193425
0.216255
0.273381
0.437127
0.725676
0.862013
0.913011
0.93632
0.949073
0.956688
0.961292
0.96379
0.96448
0.96331
0.960301
0.955021
0.946335
0.931571
0.903677
0.839225
0.659718
0.37621
0.25277
0.208136
0.190441
0.188453
0.201745
0.237074
0.330512
0.582536
0.810202
0.892513
0.926157
0.943296
0.953181
0.959178
0.962693
0.964301
0.985526
0.984718
0.983189
0.980795
0.977199
0.971695
0.962719
0.946324
0.910809
0.805251
0.478557
0.284743
0.243661
0.268632
0.409729
0.754875
0.896947
0.940759
0.959899
0.970065
0.976169
0.980114
0.982742
0.984452
0.985422
0.985695
0.985233
0.984075
0.982146
0.979221
0.974816
0.967898
0.956036
0.932844
0.875562
0.674194
0.350983
0.255479
0.24728
0.3113
0.57548
0.846373
0.923119
0.951591
0.965478
0.973339
0.978257
0.981499
0.983652
0.98499
0.985622
0.9912
0.990628
0.989564
0.987946
0.985616
0.98223
0.977047
0.968315
0.951787
0.914447
0.801627
0.501922
0.362198
0.447069
0.750204
0.899722
0.946107
0.965558
0.975516
0.981271
0.984971
0.987497
0.989257
0.990441
0.991126
0.991319
0.990991
0.990177
0.988851
0.986913
0.984128
0.980001
0.973431
0.961722
0.937876
0.876739
0.671758
0.401496
0.373944
0.582733
0.845255
0.927577
0.957193
0.971045
0.978602
0.983221
0.98629
0.988415
0.989882
0.990819
0.991268
0.993492
0.992976
0.992023
0.990603
0.988623
0.985851
0.981772
0.975161
0.963384
0.939613
0.882188
0.730164
0.572965
0.682994
0.859496
0.931136
0.959553
0.973149
0.980608
0.985086
0.988085
0.990215
0.991749
0.992805
0.993424
0.993598
0.993302
0.992567
0.99139
0.989714
0.987389
0.984074
0.978996
0.970359
0.954122
0.918606
0.824997
0.630716
0.591587
0.781282
0.902643
0.947577
0.967136
0.977192
0.982976
0.986649
0.989186
0.99101
0.992306
0.993148
0.993553
0.99462
0.994091
0.993113
0.991675
0.989713
0.987054
0.983283
0.977395
0.967401
0.948655
0.909365
0.826956
0.744021
0.803322
0.895612
0.942378
0.964262
0.975645
0.982216
0.986332
0.989187
0.991283
0.992831
0.993912
0.994547
0.994724
0.994422
0.993667
0.992465
0.990782
0.988513
0.985388
0.980767
0.973247
0.959883
0.933408
0.875981
0.776174
0.754716
0.852779
0.922524
0.954737
0.970521
0.979171
0.984379
0.987808
0.990264
0.992083
0.993402
0.994267
0.994681
0.995287
0.994714
0.993648
0.992081
0.989965
0.987159
0.983312
0.977589
0.96836
0.952179
0.922029
0.870403
0.827464
0.857506
0.912474
0.94704
0.965552
0.975928
0.982239
0.986405
0.989399
0.991651
0.993336
0.994517
0.995207
0.995396
0.99507
0.994249
0.992936
0.991109
0.988683
0.985434
0.980821
0.973688
0.961699
0.939908
0.899535
0.843303
0.832599
0.885252
0.931603
0.957275
0.971184
0.979282
0.984412
0.987944
0.990554
0.992524
0.993962
0.994905
0.995353
0.995777
0.99515
0.993974
0.992234
0.98988
0.986782
0.982643
0.97684
0.968031
0.953724
0.930042
0.896051
0.872011
0.888501
0.923196
0.949428
0.965446
0.975205
0.981524
0.985954
0.989247
0.991752
0.993625
0.99493
0.995687
0.995893
0.995538
0.994634
0.99318
0.991146
0.988453
0.9849
0.980071
0.973037
0.961968
0.943638
0.914328
0.880464
0.874665
0.905101
0.937171
0.95808
0.970661
0.978521
0.983806
0.987643
0.990533
0.992725
0.994321
0.995359
0.995848
0.996213
0.995536
0.994267
0.992379
0.989807
0.986435
0.982043
0.976202
0.967903
0.955536
0.937362
0.91498
0.901033
0.910459
0.932534
0.952035
0.965565
0.974606
0.980884
0.985538
0.98911
0.991849
0.993887
0.995297
0.996113
0.996335
0.995952
0.994978
0.993404
0.991186
0.98824
0.984408
0.979402
0.972529
0.962491
0.947453
0.926508
0.905748
0.902463
0.920549
0.942549
0.95916
0.970309
0.977853
0.983252
0.987361
0.990518
0.992912
0.994642
0.995761
0.99629
0.996661
0.995967
0.994672
0.992744
0.990108
0.986655
0.982244
0.976639
0.969207
0.959128
0.946017
0.931961
0.924059
0.929336
0.942801
0.956447
0.967205
0.975152
0.981099
0.985736
0.989388
0.992198
0.994282
0.99572
0.996557
0.996788
0.996391
0.995394
0.993788
0.991518
0.988493
0.984588
0.979657
0.973258
0.964638
0.953046
0.938915
0.926637
0.924811
0.935247
0.94956
0.961957
0.97129
0.978182
0.98343
0.987595
0.990836
0.993288
0.995053
0.996197
0.996741
0.997158
0.996495
0.995275
0.993473
0.991026
0.98785
0.983874
0.979023
0.973021
0.965647
0.957159
0.949145
0.945013
0.947745
0.955228
0.963806
0.971478
0.977772
0.982854
0.987006
0.990358
0.992963
0.994908
0.99626
0.997056
0.997279
0.996897
0.995952
0.994445
0.99233
0.98953
0.985961
0.98159
0.976214
0.969556
0.961546
0.952962
0.946317
0.945377
0.950913
0.959329
0.967624
0.974646
0.980328
0.984927
0.988709
0.9917
0.99398
0.995633
0.996714
0.997235
0.997712
0.997139
0.996105
0.994611
0.992629
0.990121
0.987075
0.983507
0.979388
0.974796
0.970084
0.966106
0.964195
0.965447
0.969082
0.973718
0.978379
0.982613
0.986303
0.989461
0.992093
0.994193
0.995796
0.996937
0.997622
0.997818
0.997484
0.996675
0.995411
0.993677
0.991436
0.988656
0.985363
0.981528
0.977157
0.972436
0.967937
0.964781
0.964353
0.966941
0.971229
0.975974
0.980468
0.984447
0.987877
0.990795
0.993171
0.995028
0.996406
0.997327
0.997781
0.998321
0.997888
0.997131
0.996079
0.994741
0.993121
0.991233
0.989111
0.986823
0.984486
0.982311
0.980631
0.979867
0.980364
0.981873
0.983967
0.986287
0.988597
0.990761
0.992704
0.994388
0.99579
0.996909
0.997738
0.998252
0.998403
0.998147
0.997544
0.996636
0.995441
0.993962
0.992205
0.990198
0.987986
0.985656
0.983366
0.981384
0.980097
0.979927
0.980971
0.982818
0.985064
0.987405
0.98966
0.991729
0.993553
0.995102
0.996369
0.997349
0.998029
0.998374
0.998971
0.99871
0.998274
0.997699
0.997011
0.996225
0.995346
0.99439
0.993418
0.992495
0.991697
0.991119
0.990866
0.991029
0.991542
0.992298
0.993199
0.994165
0.995128
0.996029
0.996836
0.997547
0.99815
0.998622
0.998929
0.999021
0.998865
0.998509
0.998
0.997366
0.996629
0.995798
0.994873
0.993903
0.992948
0.992076
0.991373
0.990941
0.990885
0.991233
0.991878
0.992717
0.993659
0.994634
0.995579
0.996433
0.997194
0.997855
0.998397
0.998794
0.999003
0.999645
0.999562
0.999431
0.99927
0.999092
0.998901
0.998691
0.998459
0.998232
0.998028
0.997859
0.997742
0.997692
0.997725
0.997828
0.997985
0.998183
0.998405
0.998637
0.998855
0.999048
0.999229
0.999395
0.999535
0.999631
0.999662
0.999611
0.9995
0.999352
0.999182
0.998998
0.998801
0.998576
0.998344
0.998127
0.997938
0.997793
0.997707
0.997696
0.997765
0.997897
0.998076
0.998288
0.998518
0.99875
0.998951
0.999138
0.999312
0.999467
0.999588
0.999656
)
;

boundaryField
{
    top
    {
        type            calculated;
        value           uniform 1;
    }
    bottom
    {
        type            calculated;
        value           uniform 0.148957;
    }
    frontAndBack
    {
        type            empty;
    }
    left_cyc
    {
        type            cyclic;
    }
    right_cyc
    {
        type            cyclic;
    }
}


// ************************************************************************* //
