/*--------------------------------*- C++ -*----------------------------------*\
| =========                 |                                                 |
| \\      /  F ield         | OpenFOAM: The Open Source CFD Toolbox           |
|  \\    /   O peration     | Version:  2.3.0                                 |
|   \\  /    A nd           | Web:      www.OpenFOAM.org                      |
|    \\/     M anipulation  |                                                 |
\*---------------------------------------------------------------------------*/
FoamFile
{
    version     2.0;
    format      ascii;
    class       volScalarField;
    location    "10000";
    object      NUEff;
}
// * * * * * * * * * * * * * * * * * * * * * * * * * * * * * * * * * * * * * //

dimensions      [0 2 -1 0 0 0 0];

internalField   nonuniform List<scalar> 
3060
(
0.175007
0.17482
0.174478
0.173994
0.17338
0.172651
0.171818
0.170894
0.169887
0.168805
0.167655
0.166443
0.16518
0.163897
0.16263
0.161382
0.160153
0.158954
0.1578
0.156714
0.155718
0.154839
0.154103
0.153538
0.153173
0.153032
0.153131
0.153458
0.153991
0.1547
0.155559
0.156541
0.157619
0.158769
0.159971
0.161206
0.162463
0.163742
0.165039
0.166318
0.167545
0.168707
0.169797
0.170807
0.17173
0.172554
0.173269
0.173862
0.174319
0.174627
0.174775
0.174752
0.174562
0.174214
0.173721
0.173095
0.17235
0.171499
0.170553
0.169522
0.168412
0.167232
0.16599
0.164701
0.163408
0.162136
0.160884
0.159656
0.158466
0.157331
0.156276
0.155323
0.1545
0.153834
0.153353
0.153083
0.153046
0.153247
0.153667
0.154279
0.155055
0.155967
0.156989
0.158095
0.159263
0.160471
0.161705
0.162958
0.164228
0.165512
0.166764
0.167961
0.169094
0.170157
0.171143
0.172044
0.172851
0.173552
0.174133
0.174582
0.174884
0.175029
0.63029
0.622777
0.608722
0.588143
0.561185
0.528394
0.490963
0.450793
0.41021
0.371414
0.335996
0.304765
0.277885
0.255125
0.236367
0.221112
0.208507
0.198036
0.18935
0.182188
0.176348
0.171677
0.168069
0.165465
0.163848
0.163235
0.163664
0.165107
0.16754
0.170977
0.175472
0.181125
0.188087
0.196559
0.206803
0.219166
0.23416
0.252617
0.275102
0.301717
0.33269
0.367854
0.406382
0.446659
0.486451
0.523399
0.555577
0.581766
0.601394
0.614275
0.620336
0.61942
0.611581
0.596944
0.575586
0.547766
0.514204
0.476307
0.436157
0.396137
0.35836
0.324237
0.294402
0.268897
0.247422
0.229994
0.215743
0.203964
0.194206
0.186146
0.17954
0.174199
0.169986
0.166813
0.164637
0.163454
0.163295
0.164173
0.166047
0.168909
0.172786
0.17775
0.183918
0.191456
0.200581
0.211572
0.22481
0.240865
0.260693
0.28448
0.31248
0.344839
0.381247
0.420694
0.461399
0.501072
0.537451
0.568808
0.594136
0.613019
0.625371
0.631171
0.94014
0.939405
0.938013
0.935921
0.933045
0.929248
0.924315
0.917919
0.909546
0.89837
0.883016
0.861073
0.8281
0.775725
0.690037
0.565848
0.434485
0.338027
0.277917
0.240636
0.21659
0.200551
0.189733
0.18264
0.178494
0.176966
0.178033
0.181702
0.188241
0.198345
0.213372
0.235861
0.270587
0.326454
0.417131
0.546067
0.675341
0.767094
0.823118
0.858037
0.881039
0.896991
0.908513
0.917085
0.923587
0.928564
0.93236
0.935199
0.937222
0.938515
0.939116
0.939025
0.938246
0.93677
0.934545
0.931474
0.927397
0.922064
0.915088
0.905853
0.893357
0.875892
0.850401
0.81115
0.747518
0.645005
0.510467
0.389595
0.309231
0.260002
0.229095
0.208884
0.195318
0.186237
0.18049
0.17751
0.177116
0.179313
0.184178
0.192143
0.204136
0.221919
0.24877
0.290854
0.359156
0.466431
0.601154
0.71637
0.791927
0.838126
0.867621
0.887527
0.901615
0.911957
0.919752
0.925726
0.930337
0.933877
0.936538
0.938441
0.939659
0.940226
0.971672
0.971373
0.97081
0.969975
0.968846
0.967389
0.965548
0.963246
0.960365
0.956735
0.952093
0.946032
0.93789
0.92653
0.909851
0.883926
0.839804
0.756925
0.604285
0.425602
0.314058
0.256773
0.225828
0.208383
0.199084
0.195801
0.198081
0.206212
0.221963
0.249958
0.301315
0.401399
0.57327
0.737808
0.830337
0.878902
0.906928
0.924702
0.936679
0.945188
0.951478
0.956265
0.959987
0.962923
0.965255
0.967106
0.968559
0.969669
0.970474
0.970994
0.971237
0.971201
0.970886
0.970293
0.969412
0.968216
0.966666
0.9647
0.962225
0.959106
0.955139
0.950012
0.943232
0.933976
0.920797
0.900944
0.868934
0.811951
0.702163
0.523875
0.368649
0.284654
0.241064
0.216954
0.203474
0.196958
0.196121
0.200872
0.211994
0.232241
0.26833
0.336339
0.467374
0.651039
0.784086
0.853909
0.891964
0.914915
0.929895
0.940263
0.947778
0.953418
0.957765
0.96118
0.963896
0.966069
0.967803
0.969171
0.97022
0.970983
0.971476
0.971707
0.982501
0.982312
0.981959
0.981437
0.980736
0.979839
0.97872
0.977342
0.975648
0.973561
0.970964
0.967688
0.963471
0.957902
0.950299
0.939463
0.923105
0.896418
0.847997
0.74906
0.562642
0.383172
0.291833
0.249161
0.229137
0.222486
0.227072
0.244292
0.281728
0.361488
0.525909
0.723608
0.836215
0.890522
0.919792
0.937433
0.948976
0.956998
0.962829
0.967215
0.970603
0.973274
0.97541
0.977134
0.97853
0.979654
0.980547
0.981236
0.981739
0.982065
0.982219
0.982195
0.981997
0.981626
0.981076
0.980336
0.979386
0.978195
0.976721
0.974899
0.972638
0.969801
0.966186
0.961477
0.955165
0.946392
0.933589
0.913648
0.87969
0.814576
0.678847
0.473929
0.334464
0.26922
0.238339
0.224798
0.223125
0.232848
0.257436
0.309224
0.42075
0.617798
0.782327
0.863821
0.904802
0.928089
0.94269
0.952523
0.959512
0.964679
0.968619
0.971698
0.974148
0.976123
0.977729
0.979035
0.980093
0.980937
0.98159
0.982067
0.982377
0.982523
0.987734
0.98759
0.987321
0.986926
0.986397
0.985726
0.984894
0.983879
0.982646
0.981147
0.97931
0.977035
0.974169
0.970482
0.965613
0.958933
0.949388
0.93499
0.911615
0.869571
0.783856
0.610802
0.418197
0.317382
0.274956
0.261831
0.270806
0.306621
0.393497
0.572553
0.760799
0.85902
0.906248
0.931929
0.94749
0.957685
0.964754
0.96987
0.973719
0.976693
0.979044
0.980931
0.982465
0.983719
0.984746
0.985582
0.986251
0.98677
0.987151
0.987399
0.987516
0.987498
0.987347
0.987065
0.986649
0.986092
0.985382
0.984499
0.983417
0.982096
0.980478
0.978483
0.975989
0.972814
0.96868
0.963137
0.955398
0.94409
0.926518
0.896783
0.840264
0.7206
0.517664
0.363478
0.293876
0.266322
0.263072
0.282493
0.336068
0.460143
0.664644
0.812808
0.883264
0.918937
0.93937
0.952227
0.960885
0.967012
0.971535
0.974982
0.977677
0.979826
0.981566
0.982991
0.984163
0.985127
0.985915
0.986548
0.987041
0.987404
0.98764
0.987751
0.990675
0.990553
0.990325
0.98999
0.989545
0.988982
0.98829
0.987452
0.986444
0.98523
0.98376
0.981961
0.979727
0.976897
0.973227
0.968298
0.96146
0.951569
0.936445
0.911525
0.866116
0.773947
0.601168
0.430291
0.346986
0.321986
0.338967
0.409033
0.565256
0.749148
0.854363
0.905566
0.933075
0.949495
0.960104
0.96737
0.972569
0.976417
0.979367
0.981684
0.983541
0.985051
0.986293
0.987319
0.988167
0.988862
0.989423
0.989861
0.990183
0.990393
0.990492
0.990477
0.990349
0.99011
0.989758
0.98929
0.988695
0.987962
0.987071
0.985993
0.984687
0.983096
0.981132
0.978669
0.975514
0.971366
0.965715
0.957737
0.945927
0.927312
0.895341
0.834007
0.707643
0.516079
0.383892
0.33043
0.32432
0.361623
0.466322
0.652552
0.804805
0.880948
0.91937
0.941069
0.954527
0.96347
0.969726
0.974276
0.977701
0.980358
0.982467
0.984171
0.985569
0.986725
0.987686
0.988484
0.989141
0.989672
0.990088
0.990395
0.990595
0.990689
0.99247
0.992359
0.99215
0.991845
0.991441
0.990933
0.990312
0.989565
0.988675
0.987613
0.986341
0.984799
0.982904
0.980531
0.977489
0.973462
0.967981
0.960255
0.948867
0.931079
0.901119
0.845915
0.739312
0.578038
0.455296
0.413401
0.441957
0.549698
0.712548
0.83146
0.893706
0.926947
0.946368
0.958645
0.966892
0.972698
0.976938
0.980123
0.982595
0.984559
0.98615
0.987458
0.988544
0.98945
0.990205
0.990829
0.991336
0.991733
0.992026
0.992218
0.992309
0.992295
0.992178
0.99196
0.99164
0.991215
0.990679
0.990023
0.98923
0.988281
0.987142
0.985767
0.984089
0.982007
0.979372
0.97595
0.971364
0.965028
0.955928
0.942187
0.920041
0.881241
0.807182
0.670984
0.513466
0.42765
0.417361
0.47904
0.62093
0.773633
0.863915
0.910613
0.93656
0.952298
0.962543
0.969581
0.974625
0.978362
0.981205
0.983438
0.985231
0.986695
0.987909
0.988922
0.989773
0.990485
0.991076
0.991556
0.991934
0.992214
0.992397
0.992484
0.993625
0.993517
0.993316
0.993022
0.992634
0.992149
0.99156
0.990857
0.990026
0.989044
0.987878
0.98648
0.984778
0.982666
0.979981
0.976469
0.971757
0.965238
0.955869
0.941759
0.919251
0.880916
0.812593
0.701568
0.585442
0.534548
0.569905
0.678272
0.795512
0.871323
0.913864
0.938546
0.953834
0.963884
0.970821
0.975802
0.979493
0.982302
0.984501
0.986265
0.987709
0.988907
0.989911
0.990757
0.991468
0.99206
0.992543
0.992924
0.993206
0.993392
0.993479
0.993466
0.993353
0.993143
0.992835
0.992428
0.991917
0.991295
0.990551
0.989667
0.988616
0.98736
0.985842
0.983977
0.981638
0.97863
0.97465
0.96924
0.961632
0.950482
0.933274
0.905015
0.855577
0.768412
0.64578
0.552549
0.539634
0.611459
0.733892
0.834274
0.893055
0.92623
0.946043
0.958663
0.967155
0.973127
0.977481
0.98075
0.983264
0.985256
0.98687
0.988202
0.989316
0.990256
0.991052
0.991724
0.992285
0.992745
0.993108
0.993377
0.993554
0.993638
0.994399
0.99429
0.994088
0.993793
0.993405
0.992922
0.992339
0.991648
0.990838
0.98989
0.988775
0.987451
0.985854
0.98389
0.981414
0.97821
0.973964
0.968177
0.960024
0.948086
0.929812
0.900539
0.852462
0.778607
0.695321
0.65301
0.682901
0.762834
0.840952
0.893508
0.925557
0.945413
0.95827
0.966982
0.973125
0.977605
0.980969
0.983557
0.985601
0.987256
0.988622
0.989768
0.990738
0.991562
0.992261
0.992846
0.993327
0.993708
0.993991
0.994177
0.994265
0.994251
0.994138
0.993927
0.993619
0.993212
0.992705
0.992091
0.991361
0.990501
0.989489
0.988291
0.986857
0.985112
0.982945
0.98018
0.976565
0.971715
0.965012
0.955412
0.941081
0.918682
0.882204
0.822927
0.740237
0.668524
0.657463
0.715269
0.800123
0.867297
0.909586
0.935383
0.951669
0.962437
0.969869
0.975194
0.979131
0.982121
0.984445
0.986301
0.987819
0.989084
0.990152
0.991062
0.991839
0.992501
0.993057
0.993516
0.993879
0.99415
0.994328
0.994412
0.994939
0.994827
0.994618
0.994313
0.993913
0.993416
0.99282
0.992118
0.991302
0.990354
0.989251
0.987953
0.986404
0.984516
0.982157
0.979137
0.975181
0.969861
0.962496
0.951966
0.936396
0.912691
0.876431
0.824925
0.768879
0.73977
0.760439
0.814304
0.868152
0.907206
0.932864
0.94965
0.960932
0.968775
0.974408
0.978576
0.981743
0.984207
0.98617
0.987775
0.989114
0.990248
0.991217
0.992047
0.992757
0.993355
0.993849
0.994241
0.994533
0.994725
0.994815
0.994801
0.994684
0.994467
0.994149
0.99373
0.99321
0.992584
0.991844
0.990979
0.989971
0.988788
0.987387
0.9857
0.983622
0.980997
0.977604
0.973108
0.966987
0.958395
0.945925
0.927219
0.898525
0.855402
0.799134
0.750558
0.742877
0.782355
0.839584
0.887319
0.919868
0.941077
0.955096
0.964661
0.971409
0.976322
0.980001
0.982827
0.985047
0.986836
0.988313
0.989555
0.990615
0.991526
0.992312
0.992985
0.993555
0.994026
0.994402
0.994681
0.994865
0.994952
0.995335
0.995217
0.994996
0.994675
0.994254
0.993732
0.993108
0.992378
0.991534
0.990561
0.989439
0.988133
0.986588
0.984726
0.982421
0.979504
0.975727
0.970715
0.963889
0.954345
0.940666
0.92075
0.892128
0.854416
0.815899
0.796458
0.810261
0.846998
0.885893
0.916309
0.937646
0.95229
0.962467
0.96971
0.975004
0.978976
0.982031
0.984436
0.986373
0.987972
0.989319
0.990471
0.991465
0.992324
0.993061
0.993686
0.994204
0.994616
0.994923
0.995125
0.99522
0.995206
0.995083
0.994854
0.994519
0.99408
0.993535
0.992881
0.992113
0.991221
0.990189
0.98899
0.987584
0.985907
0.983863
0.981309
0.978046
0.973776
0.968047
0.960154
0.948991
0.932848
0.90935
0.87641
0.836494
0.803651
0.79852
0.825002
0.864865
0.900514
0.926671
0.944726
0.957157
0.965883
0.972166
0.976811
0.980335
0.983072
0.985248
0.987018
0.988493
0.989748
0.990828
0.991765
0.992579
0.993281
0.993878
0.994373
0.994769
0.995064
0.995257
0.995348
0.995642
0.995517
0.995282
0.99494
0.994492
0.993937
0.993274
0.992501
0.991611
0.990594
0.989428
0.988084
0.986512
0.984635
0.982339
0.97947
0.9758
0.970995
0.964559
0.955754
0.943503
0.92639
0.903134
0.874504
0.847085
0.83379
0.843227
0.869146
0.898298
0.922718
0.940882
0.953908
0.963251
0.970057
0.97512
0.978972
0.981973
0.984366
0.986315
0.987942
0.989327
0.990522
0.991561
0.992464
0.993244
0.993907
0.994457
0.994895
0.995222
0.995436
0.995536
0.995521
0.995391
0.995148
0.994792
0.994325
0.993746
0.993053
0.992242
0.991305
0.990228
0.988987
0.987545
0.985844
0.983792
0.98126
0.978065
0.973938
0.968482
0.961106
0.950931
0.936717
0.916987
0.890997
0.861597
0.838692
0.835182
0.853429
0.882237
0.909798
0.931392
0.947095
0.958326
0.966427
0.972379
0.976849
0.980284
0.982985
0.985159
0.986947
0.988454
0.989748
0.990872
0.991855
0.992713
0.993457
0.994092
0.994619
0.99504
0.995354
0.99556
0.995657
0.995898
0.995764
0.995514
0.995148
0.994668
0.994074
0.993365
0.992539
0.991591
0.990512
0.989284
0.987879
0.986251
0.98433
0.982011
0.979149
0.975536
0.970874
0.964739
0.95653
0.945441
0.930552
0.911331
0.889069
0.868962
0.85958
0.866252
0.88511
0.90752
0.92749
0.943156
0.954868
0.963535
0.969998
0.974897
0.978681
0.981669
0.984083
0.986076
0.987758
0.989204
0.990462
0.991562
0.992522
0.993354
0.994062
0.994649
0.995117
0.995465
0.995693
0.9958
0.995784
0.995646
0.995387
0.995007
0.994508
0.99389
0.99315
0.992286
0.99129
0.990151
0.988848
0.987346
0.985592
0.983502
0.980956
0.977785
0.973746
0.968491
0.961525
0.952155
0.939497
0.922698
0.90177
0.879524
0.863038
0.860548
0.873522
0.894942
0.916729
0.934836
0.948655
0.958907
0.966507
0.97221
0.976564
0.979957
0.982661
0.984865
0.986701
0.988265
0.98962
0.990807
0.991851
0.992766
0.993561
0.99424
0.994805
0.995255
0.995591
0.99581
0.995913
0.996125
0.995983
0.995716
0.995326
0.994813
0.994177
0.993418
0.992533
0.991519
0.990366
0.98906
0.987577
0.985873
0.983884
0.981517
0.978636
0.975051
0.970491
0.964608
0.956925
0.946856
0.933853
0.917858
0.900303
0.885213
0.878397
0.883264
0.897335
0.914847
0.931305
0.944873
0.955437
0.963507
0.969678
0.974454
0.978202
0.981204
0.983663
0.985722
0.987479
0.989004
0.990339
0.991511
0.992537
0.993426
0.994183
0.99481
0.995309
0.995679
0.995922
0.996035
0.996018
0.995871
0.995596
0.995192
0.99466
0.993999
0.993208
0.992285
0.991222
0.990009
0.988628
0.987048
0.98522
0.983068
0.980483
0.97731
0.973325
0.968227
0.961616
0.952956
0.941649
0.927274
0.910265
0.89311
0.880917
0.879092
0.888578
0.904844
0.922265
0.937537
0.949739
0.959129
0.966291
0.97179
0.976065
0.979446
0.982177
0.984436
0.986342
0.987983
0.989417
0.990681
0.991796
0.992776
0.993628
0.994355
0.994959
0.99544
0.995798
0.996032
0.996141
0.996338
0.996187
0.995905
0.995491
0.994946
0.99427
0.99346
0.992515
0.991431
0.9902
0.988808
0.987234
0.985441
0.983371
0.980941
0.978027
0.974458
0.970005
0.964373
0.957194
0.948069
0.936721
0.923372
0.90941
0.897915
0.892866
0.896494
0.907172
0.920997
0.934617
0.946368
0.955881
0.963381
0.969266
0.973914
0.977632
0.980661
0.98318
0.985319
0.987164
0.988777
0.990197
0.991448
0.992542
0.993488
0.994293
0.994959
0.995488
0.99588
0.996136
0.996256
0.996238
0.996083
0.995792
0.995364
0.9948
0.994098
0.993257
0.992272
0.991139
0.989846
0.988378
0.98671
0.984795
0.982567
0.97993
0.976741
0.972807
0.96787
0.961604
0.953617
0.943531
0.93122
0.917318
0.903929
0.894746
0.893375
0.900441
0.912959
0.926987
0.939889
0.950651
0.959234
0.965972
0.971265
0.975462
0.978841
0.981615
0.983941
0.985932
0.987664
0.989187
0.990536
0.991728
0.992775
0.993684
0.994459
0.995101
0.995612
0.995991
0.996239
0.996355
0.996546
0.996388
0.996092
0.995657
0.995084
0.99437
0.993515
0.992515
0.991366
0.99006
0.988585
0.986922
0.98504
0.982888
0.980394
0.977448
0.973901
0.969562
0.964192
0.957522
0.949302
0.93945
0.928337
0.91721
0.908389
0.90461
0.907351
0.915528
0.926482
0.937739
0.94787
0.956386
0.963319
0.968906
0.973419
0.977102
0.980155
0.982733
0.98495
0.986883
0.988583
0.990084
0.991406
0.992563
0.993563
0.994411
0.995112
0.995667
0.996079
0.996347
0.996472
0.996454
0.996291
0.995986
0.995537
0.994944
0.994206
0.993318
0.992278
0.99108
0.989712
0.988162
0.986405
0.984404
0.982102
0.979413
0.976213
0.972335
0.967569
0.961659
0.954333
0.945386
0.934884
0.923523
0.913021
0.906032
0.904986
0.910303
0.919993
0.931299
0.942161
0.9516
0.959398
0.965703
0.97078
0.974893
0.978266
0.981082
0.983477
0.985554
0.987376
0.988987
0.990416
0.99168
0.99279
0.993752
0.99457
0.995247
0.995784
0.996183
0.996443
0.996564
0.996756
0.996593
0.996286
0.995835
0.99524
0.994498
0.993608
0.992564
0.991362
0.989994
0.988448
0.986708
0.984747
0.982526
0.979983
0.977022
0.97352
0.969321
0.964245
0.95811
0.950785
0.942318
0.933142
0.924312
0.917545
0.914711
0.916794
0.923064
0.931719
0.940959
0.949612
0.957157
0.963502
0.968759
0.973108
0.976732
0.979791
0.982412
0.984694
0.986702
0.988476
0.990044
0.991426
0.992633
0.993674
0.994555
0.995282
0.995857
0.996283
0.996561
0.996691
0.996671
0.996503
0.996187
0.995722
0.995108
0.994342
0.993419
0.992336
0.991085
0.989656
0.988036
0.986204
0.98413
0.981767
0.979043
0.975851
0.972055
0.967488
0.961965
0.955314
0.947459
0.938581
0.929351
0.921127
0.915795
0.91499
0.918997
0.926489
0.935552
0.944617
0.952808
0.959818
0.965661
0.970491
0.974492
0.97784
0.980681
0.983133
0.985282
0.987182
0.988869
0.990367
0.991691
0.992851
0.993855
0.994706
0.995409
0.995966
0.996379
0.996649
0.996775
0.996973
0.996806
0.996492
0.996033
0.995426
0.994669
0.993758
0.992688
0.991453
0.990045
0.988452
0.986661
0.98465
0.98239
0.979829
0.97689
0.973475
0.969466
0.964738
0.959182
0.952761
0.9456
0.938129
0.9312
0.926051
0.923941
0.925519
0.930298
0.937069
0.944557
0.951835
0.958415
0.964132
0.969007
0.973143
0.976664
0.979689
0.98232
0.984635
0.986687
0.988508
0.99012
0.991538
0.992775
0.993839
0.994739
0.99548
0.996065
0.996499
0.996783
0.996915
0.996896
0.996724
0.996401
0.995928
0.995303
0.994521
0.99358
0.992471
0.991188
0.989721
0.988057
0.986178
0.984059
0.981669
0.978945
0.975801
0.972133
0.967817
0.962731
0.956786
0.949999
0.942603
0.935195
0.928811
0.924765
0.924145
0.927145
0.932887
0.940063
0.947517
0.954512
0.960712
0.966045
0.970574
0.974417
0.977698
0.980529
0.983005
0.985197
0.987149
0.988886
0.990429
0.991792
0.992983
0.99401
0.994881
0.995598
0.996167
0.996588
0.996864
0.996993
0.997199
0.997031
0.996717
0.996257
0.99565
0.994893
0.993981
0.992908
0.991668
0.990252
0.98865
0.986848
0.984832
0.982583
0.980059
0.977201
0.973938
0.97019
0.965881
0.960963
0.955462
0.949543
0.943588
0.938253
0.934397
0.93285
0.934032
0.937624
0.942832
0.948778
0.954768
0.960378
0.965415
0.969839
0.97369
0.977041
0.979973
0.982557
0.984854
0.986905
0.988731
0.990348
0.99177
0.993009
0.994074
0.994973
0.995713
0.996298
0.996732
0.997016
0.997149
0.997129
0.996956
0.996634
0.996161
0.995536
0.994756
0.993815
0.992705
0.99142
0.989948
0.988277
0.986394
0.984281
0.981915
0.979247
0.976214
0.972741
0.968747
0.964166
0.958971
0.953237
0.947207
0.941375
0.936501
0.933471
0.932997
0.935209
0.939536
0.945109
0.951107
0.956944
0.962302
0.96706
0.971217
0.974832
0.977982
0.980747
0.983194
0.98538
0.987338
0.989086
0.990639
0.992008
0.993204
0.994234
0.995105
0.995822
0.996391
0.996813
0.997089
0.997219
0.997435
0.99727
0.996962
0.996511
0.995917
0.995177
0.994287
0.99324
0.992029
0.990646
0.989081
0.987325
0.985366
0.983195
0.980782
0.978086
0.97506
0.97166
0.967851
0.963632
0.959065
0.954318
0.949708
0.945708
0.942891
0.941783
0.942652
0.945292
0.949198
0.953791
0.958577
0.963216
0.96752
0.971414
0.974894
0.977989
0.980745
0.983208
0.985418
0.987405
0.989181
0.990756
0.992142
0.99335
0.994388
0.995265
0.995987
0.996558
0.996983
0.997261
0.997392
0.997372
0.997203
0.996887
0.996424
0.995814
0.995053
0.994135
0.993054
0.991801
0.990366
0.98874
0.98691
0.984865
0.982594
0.98006
0.97722
0.974029
0.970443
0.96644
0.962038
0.957338
0.952563
0.948095
0.944462
0.942242
0.941886
0.943479
0.946659
0.950871
0.955556
0.96028
0.964768
0.968883
0.972584
0.975883
0.978818
0.981437
0.983784
0.985898
0.987802
0.989507
0.991024
0.992361
0.993528
0.994534
0.995384
0.996086
0.996642
0.997056
0.997327
0.997455
0.997681
0.997522
0.997227
0.996796
0.99623
0.995526
0.994681
0.99369
0.992545
0.99124
0.989768
0.988119
0.98629
0.984277
0.98206
0.979616
0.976922
0.973961
0.970728
0.967251
0.963607
0.959946
0.956505
0.953607
0.951614
0.950846
0.951468
0.953349
0.956184
0.959608
0.963291
0.96698
0.970514
0.973807
0.976828
0.979575
0.982065
0.98432
0.986364
0.988216
0.989878
0.991358
0.992664
0.993804
0.994785
0.995616
0.996302
0.996847
0.997252
0.997519
0.997645
0.997626
0.997463
0.99716
0.996719
0.996138
0.995415
0.994546
0.993524
0.992342
0.990992
0.989465
0.987754
0.985853
0.983756
0.981442
0.978887
0.97607
0.972978
0.969617
0.966032
0.962326
0.958683
0.955377
0.952755
0.951177
0.950916
0.952027
0.954289
0.957363
0.960889
0.964565
0.968176
0.971595
0.974758
0.97765
0.980277
0.982659
0.984822
0.986786
0.988567
0.990169
0.991597
0.992859
0.993963
0.994916
0.995723
0.996391
0.996921
0.997317
0.997577
0.9977
0.997937
0.997788
0.997512
0.997112
0.996587
0.995939
0.995163
0.994257
0.993215
0.992032
0.990704
0.989226
0.987596
0.985817
0.983879
0.981772
0.97949
0.977037
0.974426
0.971699
0.968928
0.96623
0.963772
0.961756
0.9604
0.959888
0.960316
0.961608
0.963585
0.966032
0.968741
0.97154
0.974304
0.976956
0.97945
0.98177
0.983911
0.985879
0.987681
0.989328
0.990816
0.992149
0.993331
0.994367
0.995264
0.996027
0.996659
0.997163
0.99754
0.997789
0.997906
0.997889
0.997736
0.997454
0.997044
0.996507
0.995842
0.995045
0.994112
0.993039
0.991818
0.990446
0.988916
0.98723
0.985385
0.983373
0.981185
0.978819
0.976281
0.973595
0.970813
0.968023
0.965364
0.963018
0.961199
0.960117
0.959933
0.960679
0.962226
0.964378
0.966917
0.969648
0.972417
0.975119
0.977692
0.980102
0.982338
0.9844
0.986297
0.988037
0.989627
0.991065
0.992355
0.9935
0.994506
0.995378
0.99612
0.996736
0.997228
0.997596
0.997839
0.997954
0.998201
0.998065
0.997816
0.997455
0.996986
0.996409
0.995723
0.994927
0.994019
0.992996
0.991855
0.990597
0.989221
0.987734
0.986132
0.984417
0.982595
0.980678
0.978688
0.976666
0.974669
0.972781
0.971107
0.969768
0.968883
0.968555
0.968838
0.969688
0.971008
0.972675
0.97457
0.976583
0.978629
0.980645
0.982591
0.98444
0.986178
0.987801
0.989305
0.990693
0.99196
0.993103
0.994125
0.995029
0.995816
0.996491
0.997053
0.997505
0.997844
0.998069
0.998176
0.99816
0.998022
0.997767
0.997398
0.996918
0.996327
0.995623
0.994806
0.993872
0.992819
0.991644
0.990346
0.988928
0.987392
0.985739
0.98397
0.982094
0.980128
0.978099
0.976055
0.974063
0.972216
0.970627
0.969419
0.968708
0.968583
0.969064
0.970077
0.971516
0.973257
0.975182
0.977193
0.979211
0.981185
0.98308
0.984875
0.986561
0.988133
0.989592
0.990937
0.992164
0.993274
0.994267
0.995145
0.995912
0.99657
0.997119
0.99756
0.997892
0.998112
0.998217
0.998471
0.998353
0.998135
0.997823
0.997419
0.996927
0.996347
0.99568
0.994926
0.994087
0.99316
0.992149
0.991056
0.989887
0.988644
0.987336
0.985971
0.984566
0.983142
0.98173
0.980373
0.979122
0.978039
0.97719
0.976638
0.976437
0.976616
0.977151
0.97799
0.979071
0.980326
0.981693
0.983119
0.98456
0.985984
0.987367
0.988692
0.989949
0.991131
0.992233
0.99325
0.994179
0.995018
0.995768
0.996428
0.996999
0.997479
0.997868
0.998162
0.998358
0.998452
0.998438
0.998317
0.998095
0.997776
0.997364
0.99686
0.996266
0.995583
0.99481
0.993947
0.992995
0.991956
0.990833
0.989631
0.988355
0.987013
0.985618
0.984187
0.982746
0.981331
0.979987
0.978771
0.977747
0.976981
0.976534
0.976454
0.97675
0.977385
0.978301
0.979434
0.980718
0.982094
0.983513
0.984935
0.986331
0.987683
0.988975
0.990199
0.991349
0.992421
0.99341
0.994314
0.995131
0.995862
0.996506
0.997064
0.997533
0.997913
0.998201
0.998394
0.998485
0.998747
0.998648
0.998467
0.998209
0.997879
0.99748
0.997015
0.996486
0.995897
0.995249
0.994543
0.993783
0.992971
0.992113
0.991214
0.990283
0.98933
0.988368
0.987415
0.986492
0.985625
0.984843
0.984179
0.983667
0.983339
0.983221
0.983329
0.983649
0.984157
0.98482
0.985605
0.986479
0.987411
0.988374
0.989347
0.990312
0.991254
0.992164
0.993031
0.993849
0.994614
0.995322
0.995971
0.996558
0.997082
0.99754
0.997929
0.998248
0.998491
0.998654
0.998732
0.99872
0.998619
0.998435
0.998172
0.997835
0.997427
0.996952
0.996412
0.995809
0.995145
0.994422
0.993643
0.992811
0.991932
0.991013
0.990063
0.989095
0.988122
0.987165
0.986245
0.985391
0.984635
0.984009
0.983547
0.98328
0.983231
0.983406
0.983784
0.984339
0.985036
0.985844
0.986728
0.987661
0.988618
0.989579
0.990528
0.991452
0.992341
0.993187
0.993986
0.994732
0.995423
0.996057
0.99663
0.997142
0.99759
0.997972
0.998284
0.998522
0.998682
0.998759
0.999026
0.998948
0.998807
0.998608
0.998355
0.998052
0.997705
0.997316
0.996888
0.996424
0.995927
0.995399
0.994843
0.994262
0.993662
0.99305
0.992435
0.991827
0.991236
0.990675
0.990158
0.989701
0.989319
0.989028
0.988844
0.988778
0.988839
0.98902
0.989309
0.989691
0.990151
0.990672
0.991238
0.991835
0.99245
0.993072
0.993692
0.994299
0.994886
0.995447
0.995978
0.996478
0.996942
0.997369
0.997756
0.998098
0.998394
0.998638
0.998826
0.998954
0.999015
0.999006
0.998927
0.998783
0.99858
0.998322
0.998014
0.99766
0.997262
0.996825
0.996352
0.995844
0.995305
0.994737
0.994143
0.993532
0.992911
0.99229
0.991678
0.991087
0.990531
0.990025
0.989584
0.989224
0.988962
0.988811
0.988783
0.988881
0.989094
0.98941
0.989813
0.990288
0.990818
0.991388
0.991984
0.992595
0.99321
0.993819
0.994416
0.994991
0.99554
0.99606
0.996548
0.997003
0.997421
0.997799
0.998136
0.998425
0.998665
0.99885
0.998975
0.999035
0.999306
0.999251
0.999151
0.999011
0.998836
0.998629
0.998395
0.998137
0.997857
0.99756
0.997246
0.996919
0.996578
0.996224
0.995864
0.995503
0.995146
0.994799
0.994467
0.994158
0.993878
0.993634
0.993432
0.993281
0.993186
0.993152
0.993184
0.993277
0.993428
0.99363
0.993876
0.994158
0.99447
0.994805
0.995156
0.995517
0.995883
0.996247
0.996604
0.996949
0.997279
0.997595
0.997893
0.998173
0.998429
0.998661
0.998863
0.999033
0.999165
0.999255
0.999299
0.999292
0.999236
0.999134
0.998992
0.998814
0.998604
0.998365
0.998102
0.997818
0.997515
0.997195
0.996861
0.996513
0.996153
0.995788
0.995423
0.995064
0.994716
0.994387
0.994081
0.993808
0.993573
0.993384
0.993247
0.993169
0.993154
0.993205
0.993315
0.99348
0.993693
0.993948
0.994236
0.994552
0.994888
0.995238
0.995596
0.995958
0.996317
0.996667
0.997005
0.997329
0.997639
0.997932
0.998206
0.998458
0.998686
0.998885
0.999051
0.999181
0.99927
0.999313
0.999585
0.999553
0.999494
0.999413
0.999312
0.999195
0.999065
0.998923
0.998773
0.998616
0.998454
0.998286
0.998114
0.997936
0.997757
0.99758
0.997408
0.997243
0.997088
0.996945
0.996818
0.996708
0.996618
0.996551
0.996509
0.996495
0.996508
0.99655
0.996616
0.996706
0.996817
0.996945
0.99709
0.997246
0.997413
0.997588
0.997767
0.997948
0.998128
0.998302
0.998471
0.998635
0.998793
0.998943
0.999084
0.999213
0.999328
0.999426
0.999502
0.999555
0.999581
0.999577
0.999544
0.999485
0.999402
0.9993
0.999181
0.999049
0.998905
0.998753
0.998593
0.998427
0.998257
0.998082
0.997901
0.99772
0.997542
0.997369
0.997205
0.997051
0.99691
0.996786
0.996681
0.996597
0.996537
0.996502
0.996496
0.996518
0.996566
0.996639
0.996734
0.996849
0.996981
0.997127
0.997285
0.997452
0.997626
0.997804
0.997983
0.998159
0.99833
0.998496
0.998658
0.998813
0.998961
0.9991
0.999227
0.99934
0.999436
0.999512
0.999564
0.999589
0.999862
0.999851
0.999832
0.999806
0.999775
0.999738
0.999699
0.999656
0.999612
0.999567
0.999521
0.999475
0.999428
0.999378
0.999329
0.99928
0.999234
0.99919
0.999149
0.999112
0.999079
0.999051
0.999028
0.999012
0.999001
0.998997
0.999001
0.999011
0.999028
0.999051
0.999079
0.999112
0.99915
0.999191
0.999235
0.999282
0.999331
0.999381
0.999431
0.999479
0.999526
0.999573
0.999618
0.999662
0.999704
0.999744
0.99978
0.99981
0.999835
0.999852
0.99986
0.999859
0.999848
0.999829
0.999803
0.999771
0.999734
0.999694
0.999651
0.999606
0.999561
0.999514
0.999467
0.999419
0.999368
0.999319
0.99927
0.999224
0.99918
0.999139
0.999103
0.999071
0.999044
0.999023
0.999008
0.998999
0.998998
0.999003
0.999015
0.999034
0.999058
0.999087
0.999121
0.999159
0.999201
0.999246
0.999293
0.999342
0.999391
0.99944
0.999487
0.999533
0.999579
0.999624
0.999668
0.999709
0.999748
0.999783
0.999814
0.999838
0.999855
0.999863
)
;

boundaryField
{
    top
    {
        type            calculated;
        value           uniform 1;
    }
    bottom
    {
        type            calculated;
        value           uniform 0.148957;
    }
    frontAndBack
    {
        type            empty;
    }
    left_cyc
    {
        type            cyclic;
    }
    right_cyc
    {
        type            cyclic;
    }
}


// ************************************************************************* //
