/*--------------------------------*- C++ -*----------------------------------*\
| =========                 |                                                 |
| \\      /  F ield         | OpenFOAM: The Open Source CFD Toolbox           |
|  \\    /   O peration     | Version:  2.3.0                                 |
|   \\  /    A nd           | Web:      www.OpenFOAM.org                      |
|    \\/     M anipulation  |                                                 |
\*---------------------------------------------------------------------------*/
FoamFile
{
    version     2.0;
    format      ascii;
    class       volScalarField;
    location    "10000";
    object      p;
}
// * * * * * * * * * * * * * * * * * * * * * * * * * * * * * * * * * * * * * //

dimensions      [0 2 -2 0 0 0 0];

internalField   nonuniform List<scalar> 
3060
(
0
-3.05637
-8.78576
-17.144
-28.0857
-41.5754
-57.5886
-76.097
-97.0384
-120.284
-145.614
-172.696
-201.066
-230.103
-258.997
-286.785
-312.483
-335.193
-354.159
-369.023
-379.968
-387.464
-392.232
-395.03
-396.469
-396.927
-396.542
-395.212
-392.601
-388.132
-381.055
-370.627
-356.33
-337.915
-315.654
-290.266
-262.654
-233.824
-204.775
-176.358
-149.23
-123.884
-100.675
-79.8355
-61.5056
-45.7524
-32.6069
-22.0929
-14.243
-9.09707
-6.69235
-7.05144
-10.1704
-16.0218
-24.5666
-35.7662
-49.5907
-66.0167
-85.0069
-106.479
-130.27
-156.118
-183.635
-212.285
-241.369
-269.981
-297.108
-321.765
-343.083
-360.43
-373.687
-383.181
-389.505
-393.425
-395.657
-396.719
-396.885
-396.194
-394.447
-391.205
-385.802
-377.471
-365.543
-349.611
-329.614
-306.046
-279.714
-251.542
-222.521
-193.589
-165.5
-138.834
-114.019
-91.3555
-71.0381
-53.1753
-37.8171
-24.9883
-14.7156
-7.03763
-2.00075
0.353302
38.5259
35.9349
31.0538
23.88
14.4059
2.62665
-11.4458
-27.7632
-46.2254
-66.67
-88.8605
-112.46
-136.989
-161.798
-186.177
-209.665
-232.053
-252.652
-270.218
-283.929
-293.966
-300.862
-305.313
-307.989
-309.404
-309.866
-309.486
-308.184
-305.684
-301.506
-294.995
-285.446
-272.297
-255.265
-235.025
-212.83
-189.486
-165.241
-140.513
-116.018
-92.437
-70.279
-49.9041
-31.5639
-15.4304
-1.60793
9.85504
18.9489
25.6823
30.0668
32.1069
31.8027
29.1542
24.1612
16.8164
7.10806
-4.96949
-19.3986
-36.1177
-55.0058
-75.8719
-98.4397
-122.315
-146.943
-171.608
-195.639
-218.717
-240.514
-260.037
-276.08
-288.248
-296.944
-302.781
-306.466
-308.617
-309.661
-309.822
-309.13
-307.425
-304.345
-299.326
-291.676
-280.73
-265.999
-247.528
-226.353
-203.646
-179.908
-155.355
-130.548
-106.204
-82.9312
-61.167
-41.2187
-23.3017
-7.56131
5.91686
17.096
25.9701
32.5461
36.8307
38.8247
68.4353
65.8913
61.122
54.173
45.1194
34.0775
21.2108
6.72288
-9.16625
-26.2486
-44.3454
-63.309
-83.0207
-103.384
-124.214
-144.863
-164.069
-180.62
-194.141
-205.211
-213.786
-219.475
-222.907
-224.85
-225.832
-226.142
-225.879
-224.971
-223.167
-219.984
-214.682
-206.552
-195.831
-182.749
-166.723
-147.927
-127.514
-106.796
-86.5209
-66.9085
-48.0576
-30.09
-13.161
2.54151
16.8008
29.3901
40.1019
48.7711
55.2815
59.5589
61.5591
61.2604
58.6662
53.8041
46.7248
37.5123
26.2953
13.2512
-1.40469
-17.4455
-34.661
-52.8717
-71.9305
-91.7252
-112.147
-132.889
-153.018
-171.181
-186.402
-198.827
-208.939
-216.302
-220.975
-223.739
-225.274
-225.998
-226.111
-225.643
-224.447
-222.18
-218.239
-211.832
-202.543
-190.88
-176.612
-159.284
-139.568
-118.768
-98.0263
-77.8214
-58.2949
-39.5442
-21.6959
-4.9054
10.6401
24.7271
37.1369
47.6749
56.1897
62.5767
66.7698
68.7292
115.417
112.946
108.326
101.623
92.9368
82.4118
70.2414
56.6627
41.9384
26.3291
10.0655
-6.67023
-23.756
-41.1202
-58.6307
-75.8317
-91.9968
-106.734
-119.584
-129.327
-135.806
-140.18
-142.508
-143.489
-143.849
-143.93
-143.84
-143.503
-142.632
-140.576
-136.536
-130.479
-121.385
-109.026
-94.637
-78.7785
-61.8083
-44.443
-27.2074
-10.2608
6.32444
22.4257
37.8563
52.3777
65.7203
77.6131
87.8128
96.1228
102.397
106.536
108.476
108.186
105.671
100.971
94.1567
85.3402
74.68
62.3859
48.7107
33.9281
18.3023
2.05996
-14.6278
-31.6549
-48.9483
-66.2837
-83.0253
-98.5265
-112.473
-124.097
-132.277
-137.774
-141.272
-142.932
-143.62
-143.876
-143.921
-143.784
-143.309
-142.065
-139.232
-134.348
-127.145
-116.479
-103.051
-87.9184
-71.4265
-54.073
-36.5757
-19.2774
-2.27444
14.3528
30.4659
45.8688
60.3207
73.5576
85.3208
95.3836
103.565
109.734
113.799
115.703
162.658
160.437
156.288
150.278
142.503
133.095
122.216
110.058
96.8274
82.7362
67.9911
52.7916
37.3405
21.8707
6.70611
-7.66615
-20.7869
-32.7834
-43.9549
-53.243
-59.3392
-62.2885
-63.2389
-63.2378
-62.9692
-62.8254
-62.907
-63.1461
-63.2281
-62.5074
-60.0391
-54.5963
-45.8729
-34.9673
-23.1662
-10.2986
3.84038
18.8309
34.1549
49.4667
64.5224
79.1117
93.028
106.058
117.983
128.59
137.685
145.103
150.712
154.417
156.155
155.895
153.642
149.436
143.347
135.48
125.975
115.006
102.773
89.4925
75.3812
60.6511
45.508
30.167
14.8898
0.0629153
-13.767
-26.3136
-37.9073
-48.4176
-56.336
-60.9194
-62.806
-63.251
-63.0735
-62.8604
-62.8371
-63.0287
-63.284
-63.1059
-61.7645
-58.0797
-51.1019
-41.152
-29.7409
-17.4975
-4.03361
10.6006
25.8851
41.3766
56.7829
71.8834
86.4778
100.365
113.337
125.182
135.694
144.692
152.018
157.552
161.203
162.915
204.317
202.297
198.529
193.081
186.054
177.577
167.808
156.927
145.128
132.611
119.577
106.223
92.7507
79.3821
66.3883
54.1219
42.9847
33.2627
25.1796
18.8739
14.5749
13.2483
14.1603
15.8678
17.0804
17.5017
17.2137
16.147
14.4234
13.2108
13.9635
17.7253
23.719
31.4881
40.9317
51.8138
63.8629
76.6784
89.8891
103.211
116.412
129.283
141.621
153.218
163.869
173.375
181.552
188.241
193.312
196.668
198.244
198.008
195.966
192.158
186.656
179.567
171.029
161.208
150.291
138.481
125.986
113.009
99.7557
86.4388
73.2999
60.6429
48.8614
38.3326
29.2979
22.0017
16.4752
13.4974
13.4057
14.8859
16.5118
17.3617
17.466
16.8523
15.4345
13.7984
13.3235
15.4273
20.3598
27.112
35.6473
45.7574
57.2229
69.7185
82.8405
96.2599
109.722
123.012
135.93
148.279
159.858
170.468
179.917
188.031
194.658
199.676
202.994
204.551
242.907
241.084
237.688
232.788
226.484
218.902
210.193
200.527
190.086
179.057
167.632
156.002
144.367
132.94
121.964
111.719
102.509
94.594
88.2603
83.917
82.1068
83.588
87.7579
92.1318
95.1731
96.2228
95.4829
92.7426
88.4548
83.98
81.8649
83.1391
87.1001
93.1186
100.771
109.749
119.791
130.591
141.858
153.341
164.817
176.081
186.933
197.178
206.622
215.079
222.378
228.365
232.915
235.931
237.349
237.137
235.3
231.878
226.945
220.604
212.99
204.259
194.589
184.168
173.189
161.851
150.353
138.904
127.732
117.099
107.305
98.6474
91.3829
85.859
82.5124
82.0865
85.0285
89.6658
93.6491
95.857
96.1326
94.5749
91.0873
86.5592
82.8806
82.2872
84.8376
89.7375
96.5188
104.794
114.302
124.767
135.885
147.388
159.042
170.637
181.977
192.871
203.128
212.562
220.992
228.255
234.205
238.721
241.713
243.118
279.001
277.358
274.303
269.904
264.262
257.502
249.77
241.231
232.058
222.429
212.528
202.537
192.642
183.041
173.946
165.595
158.24
152.13
147.537
144.818
144.482
147.533
154.556
162.668
168.346
170.5
168.944
163.782
155.83
148.259
144.477
144.322
146.682
150.981
156.843
163.978
172.137
181.061
190.506
200.25
210.09
219.834
229.293
238.278
246.607
254.101
260.595
265.942
270.017
272.724
273.998
273.807
272.157
269.088
264.673
259.015
252.246
244.519
236.003
226.877
217.326
207.539
197.705
188.018
178.687
169.937
162.019
155.19
149.703
145.869
144.088
145.059
149.953
158.043
165.453
169.708
170.3
167.198
160.704
152.458
146.343
144.299
145.327
148.572
153.591
160.049
167.688
176.258
185.505
195.202
205.14
215.125
224.972
234.499
243.525
251.87
259.363
265.846
271.175
275.232
277.925
279.191
313.461
311.987
309.247
305.313
300.283
294.283
287.456
279.96
271.962
263.635
255.149
246.679
238.396
230.48
223.116
216.507
210.864
206.406
203.38
202.101
202.991
206.759
214.37
224.542
232.746
235.997
233.637
226.098
215.864
207.559
203.184
201.871
202.821
205.575
209.802
215.243
221.672
228.875
236.641
244.78
253.107
261.443
269.61
277.431
284.73
291.336
297.089
301.845
305.482
307.903
309.044
308.874
307.396
304.652
300.715
295.687
289.698
282.896
275.445
267.518
259.29
250.939
242.644
234.584
226.946
219.923
213.729
208.581
204.709
202.389
201.973
203.985
209.342
218.528
228.479
234.787
235.689
231.034
221.901
212.019
205.448
202.524
202.251
204.019
207.445
212.233
218.148
224.974
232.5
240.528
248.876
257.367
265.828
274.086
281.969
289.306
295.933
301.693
306.448
310.079
312.495
313.632
346.867
345.548
343.102
339.599
335.137
329.841
323.851
317.321
310.412
303.288
296.112
289.046
282.248
275.876
270.092
265.067
260.972
257.99
256.321
256.215
257.985
262.077
269.079
278.595
287.254
291.005
288.267
280.157
270.423
262.875
258.327
256.207
256.029
257.457
260.233
264.144
269.006
274.641
280.873
287.538
294.471
301.507
308.483
315.228
321.577
327.363
332.433
336.644
339.875
342.032
343.05
342.898
341.58
339.137
335.641
331.195
325.925
319.978
313.51
306.689
299.682
292.657
285.778
279.211
273.117
267.667
263.034
259.399
256.951
255.913
256.558
259.254
264.538
272.853
282.614
289.59
290.641
285.351
276.021
266.964
260.761
257.327
256.081
256.621
258.653
261.943
266.297
271.536
277.488
283.986
290.87
297.98
305.157
312.24
319.066
325.471
331.294
336.386
340.609
343.845
346.003
347.02
379.664
378.493
376.324
373.227
369.301
364.666
359.459
353.831
347.936
341.929
335.964
330.191
324.752
319.788
315.435
311.833
309.117
307.423
306.9
307.715
310.067
314.184
320.279
328.023
335.278
338.609
336.162
329.294
321.388
314.946
310.511
307.889
306.842
307.164
308.679
311.236
314.692
318.91
323.749
329.066
334.718
340.557
346.429
352.176
357.639
362.661
367.09
370.789
373.64
375.548
376.45
376.315
375.148
372.988
369.907
366.007
361.41
356.259
350.707
344.912
339.034
333.23
327.651
322.444
317.754
313.72
310.484
308.184
306.963
306.979
308.413
311.482
316.429
323.366
331.327
337.335
338.28
333.64
325.934
318.506
312.934
309.3
307.369
306.919
307.762
309.735
312.695
316.505
321.03
326.131
331.67
337.508
343.498
349.49
355.331
360.864
365.935
370.398
374.119
376.982
378.896
379.8
412.131
411.102
409.202
406.499
403.087
399.086
394.628
389.855
384.915
379.955
375.118
370.539
366.349
362.667
359.608
357.28
355.78
355.203
355.639
357.179
359.912
363.902
369.122
375.175
380.642
383.163
381.306
376.134
370.026
364.619
360.426
357.502
355.786
355.189
355.619
356.983
359.187
362.128
365.699
369.782
374.253
378.978
383.819
388.627
393.253
397.546
401.364
404.572
407.055
408.723
409.513
409.395
408.373
406.487
403.806
400.428
396.474
392.08
387.392
382.562
377.738
373.065
368.683
364.722
361.303
358.543
356.549
355.418
355.245
356.124
358.146
361.396
365.918
371.591
377.666
382.194
382.913
379.409
373.58
367.661
362.747
359.087
356.672
355.427
355.263
356.089
357.814
360.342
363.574
367.399
371.702
376.361
381.243
386.212
391.122
395.827
400.179
404.039
407.276
409.778
411.456
412.25
444.419
443.534
441.902
439.59
436.688
433.311
429.582
425.639
421.617
417.654
413.88
410.419
407.383
404.875
402.989
401.8
401.375
401.765
403.008
405.131
408.13
411.958
416.454
421.206
425.235
427.042
425.712
421.93
417.206
412.635
408.698
405.577
403.332
401.968
401.463
401.778
402.862
404.65
407.062
410.006
413.374
417.051
420.911
424.818
428.634
432.218
435.435
438.158
440.278
441.707
442.385
442.284
441.407
439.792
437.507
434.644
431.319
427.662
423.809
419.901
416.076
412.468
409.199
406.385
404.126
402.514
401.624
401.517
402.242
403.834
406.308
409.65
413.777
418.453
423.066
426.35
426.865
424.341
419.991
415.24
410.892
407.271
404.498
402.605
401.586
401.413
402.042
403.419
405.475
408.129
411.286
414.84
418.675
422.666
426.681
430.581
434.231
437.496
440.253
442.396
443.839
444.522
476.58
475.842
474.486
472.573
470.191
467.444
464.448
461.327
458.208
455.213
452.461
450.06
448.107
446.687
445.872
445.712
446.241
447.475
449.41
452.016
455.225
458.917
462.872
466.705
469.735
471.042
470.086
467.273
463.521
459.569
455.838
452.565
449.884
447.867
446.548
445.934
446.01
446.745
448.086
449.961
452.285
454.956
457.863
460.886
463.899
466.773
469.384
471.615
473.364
474.549
475.112
475.028
474.3
472.963
471.08
468.74
466.049
463.127
460.1
457.095
454.238
451.647
449.431
447.687
446.497
445.929
446.029
446.826
448.328
450.523
453.366
456.773
460.59
464.541
468.134
470.547
470.916
469.078
465.755
461.839
457.923
454.341
451.28
448.844
447.09
446.039
445.691
446.026
447.004
448.57
450.648
453.151
455.977
459.015
462.147
465.246
468.189
470.852
473.121
474.896
476.096
476.666
508.586
508.003
506.937
505.444
503.603
501.508
499.264
496.981
494.77
492.738
490.988
489.613
488.694
488.298
488.476
489.255
490.644
492.629
495.168
498.19
501.587
505.194
508.777
511.996
514.377
515.364
514.649
512.465
509.36
505.833
502.239
498.827
495.768
493.18
491.139
489.689
488.846
488.605
488.938
489.795
491.107
492.791
494.753
496.887
499.083
501.229
503.213
504.932
506.292
507.22
507.663
507.597
507.025
505.979
504.518
502.721
500.685
498.515
496.325
494.225
492.326
490.73
489.529
488.802
488.614
489.009
490.01
491.617
493.806
496.524
499.688
503.166
506.77
510.227
513.146
514.996
515.269
513.872
511.22
507.866
504.25
500.678
497.366
494.46
492.06
490.227
488.996
488.375
488.35
488.887
489.932
491.413
493.246
495.335
497.575
499.859
502.074
504.112
505.871
507.259
508.204
508.654
540.35
539.933
539.177
538.133
536.867
535.462
534.006
532.592
531.313
530.259
529.514
529.154
529.242
529.828
530.944
532.598
534.776
537.439
540.519
543.918
547.498
551.077
554.425
557.256
559.235
560.027
559.461
557.665
554.968
551.71
548.182
544.623
541.222
538.122
535.427
533.209
531.511
530.348
529.714
529.578
529.89
530.585
531.585
532.805
534.154
535.536
536.859
538.034
538.98
539.633
539.948
539.901
539.496
538.761
537.749
536.528
535.182
533.799
532.475
531.303
530.375
529.772
529.571
529.832
530.601
531.903
533.739
536.086
538.895
542.085
545.542
549.112
552.595
555.738
558.235
559.738
559.951
558.824
556.588
553.593
550.16
546.56
543.012
539.685
536.705
534.162
532.118
530.604
529.627
529.174
529.209
529.676
530.509
531.629
532.952
534.386
535.838
537.215
538.43
539.405
540.076
540.398
571.735
571.499
571.08
570.52
569.874
569.206
568.587
568.088
567.783
567.739
568.02
568.683
569.772
571.322
573.343
575.829
578.747
582.039
585.62
589.372
593.143
596.749
599.971
602.575
604.32
604.999
604.518
602.95
600.491
597.38
593.853
590.13
586.402
582.825
579.522
576.583
574.069
572.016
570.433
569.309
568.612
568.295
568.302
568.568
569.024
569.595
570.21
570.799
571.298
571.654
571.828
571.802
571.578
571.181
570.654
570.052
569.442
568.894
568.481
568.275
568.347
568.757
569.561
570.802
572.507
574.682
577.31
580.351
583.735
587.364
591.107
594.798
598.239
601.204
603.453
604.755
604.934
603.962
601.971
599.184
595.84
592.172
588.389
584.668
581.152
577.95
575.14
572.773
570.875
569.447
568.472
567.914
567.723
567.841
568.204
568.74
569.379
570.048
570.677
571.205
571.58
571.763
602.567
602.529
602.477
602.443
602.466
602.591
602.866
603.34
604.06
605.071
606.415
608.126
610.23
612.744
615.661
618.958
622.591
626.487
630.548
634.646
638.626
642.306
645.488
647.978
649.598
650.218
649.782
648.332
645.993
642.935
639.351
635.44
631.385
627.348
623.458
619.82
616.509
613.573
611.039
608.912
607.18
605.815
604.783
604.043
603.549
603.253
603.106
603.062
603.075
603.107
603.129
603.125
603.099
603.069
603.068
603.134
603.315
603.658
604.212
605.023
606.138
607.596
609.428
611.66
614.3
617.337
620.739
624.45
628.389
632.445
636.478
640.323
643.789
646.678
648.801
649.996
650.158
649.269
647.408
644.72
641.389
637.612
633.585
629.483
625.454
621.618
618.067
614.865
612.052
609.645
607.645
606.032
604.779
603.847
603.196
602.778
602.546
602.452
602.448
602.491
602.542
602.572
632.636
632.813
633.159
633.693
634.438
635.414
636.646
638.155
639.962
642.084
644.54
647.34
650.49
653.987
657.81
661.921
666.265
670.759
675.299
679.751
683.962
687.761
690.97
693.426
694.994
695.586
695.168
693.766
691.462
688.385
684.693
680.564
676.169
671.667
667.193
662.857
658.743
654.913
651.406
648.244
645.434
642.97
640.843
639.036
637.53
636.306
635.341
634.613
634.1
633.78
633.636
633.657
633.846
634.215
634.782
635.569
636.599
637.895
639.477
641.366
643.58
646.132
649.034
652.286
655.88
659.789
663.967
668.348
672.841
677.328
681.67
685.702
689.25
692.141
694.221
695.373
695.528
694.677
692.868
690.202
686.822
682.899
678.609
674.12
669.581
665.117
660.827
656.786
653.045
649.638
646.578
643.869
641.501
639.462
637.735
636.3
635.137
634.223
633.535
633.052
632.751
632.616
661.698
662.107
662.881
664.026
665.542
667.428
669.679
672.287
675.245
678.542
682.167
686.108
690.349
694.865
699.622
704.569
709.64
714.746
719.778
724.605
729.078
733.036
736.325
738.804
740.368
740.952
740.534
739.132
736.804
733.649
729.803
725.421
720.661
715.676
710.6
705.546
700.606
695.85
691.331
687.088
683.147
679.526
676.24
673.301
670.719
668.505
666.666
665.207
664.129
663.43
663.107
663.155
663.575
664.373
665.55
667.109
669.046
671.356
674.032
677.063
680.437
684.143
688.165
692.482
697.067
701.876
706.853
711.922
716.986
721.926
726.602
730.86
734.541
737.492
739.588
740.738
740.895
740.052
738.243
735.541
732.064
727.956
723.377
718.483
713.419
708.313
703.267
698.364
693.666
689.218
685.053
681.193
677.652
674.442
671.574
669.058
666.901
665.111
663.692
662.644
661.965
661.651
689.486
690.14
691.369
693.16
695.493
698.339
701.666
705.434
709.606
714.139
718.996
724.136
729.521
735.106
740.839
746.658
752.488
758.236
763.791
769.023
773.792
777.952
781.364
783.911
785.503
786.093
785.663
784.226
781.827
778.547
774.501
769.825
764.666
759.165
753.454
747.646
741.84
736.114
730.533
725.153
720.021
715.18
710.672
706.538
702.82
699.56
696.797
694.563
692.886
691.785
691.271
691.348
692.015
693.267
695.09
697.465
700.362
703.744
707.574
711.81
716.409
721.33
726.531
731.968
737.591
743.345
749.159
754.951
760.62
766.045
771.092
775.618
779.477
782.538
784.693
785.871
786.036
785.183
783.336
780.554
776.935
772.602
767.699
762.37
756.753
750.974
745.139
739.335
733.635
728.098
722.773
717.702
712.925
708.482
704.412
700.755
697.55
694.834
692.64
690.994
689.914
689.41
715.71
716.621
718.323
720.787
723.969
727.816
732.262
737.24
742.677
748.503
754.648
761.045
767.629
774.336
781.095
787.835
794.469
800.901
807.019
812.697
817.805
822.21
825.788
828.438
830.086
830.691
830.239
828.74
826.231
822.781
818.489
813.474
807.869
801.808
795.415
788.807
782.084
775.335
768.637
762.063
755.681
749.562
743.775
738.393
733.491
729.141
725.413
722.372
720.071
718.551
717.839
717.945
718.869
720.595
723.093
726.318
730.213
734.714
739.749
745.243
751.123
757.318
763.756
770.37
777.088
783.837
790.539
797.101
803.419
809.374
814.838
819.677
823.762
826.975
829.226
830.455
830.633
829.754
827.841
824.941
821.137
816.537
811.267
805.462
799.251
792.756
786.086
779.333
772.581
765.9
759.358
753.02
746.951
741.22
735.895
731.049
726.753
723.073
720.073
717.804
716.306
715.605
740.065
741.238
743.422
746.572
750.622
755.489
761.081
767.296
774.033
781.189
788.665
796.364
804.197
812.075
819.912
827.623
835.113
842.279
849.01
855.185
860.68
865.376
869.163
871.952
873.678
874.305
873.822
872.238
869.583
865.919
861.331
855.925
849.822
843.147
836.02
828.557
820.863
813.037
805.17
797.351
789.673
782.232
775.128
768.464
762.347
756.881
752.17
748.305
745.367
743.419
742.504
742.64
743.826
746.036
749.222
753.315
758.232
763.876
770.146
776.935
784.136
791.649
799.373
807.213
815.078
822.878
830.521
837.907
844.928
851.467
857.4
862.604
866.962
870.371
872.752
874.052
874.246
873.331
871.324
868.268
864.235
859.32
853.636
847.304
840.449
833.188
825.631
817.878
810.021
802.147
794.34
786.69
779.289
772.232
765.621
759.558
754.146
749.484
745.662
742.757
740.833
739.929
762.237
763.67
766.334
770.167
775.078
780.962
787.695
795.149
803.19
811.686
820.508
829.533
838.643
847.728
856.685
865.413
873.807
881.759
889.157
895.882
901.819
906.857
910.896
913.858
915.685
916.343
915.821
914.128
911.292
907.367
902.431
896.579
889.922
882.576
874.66
866.29
857.579
848.632
839.558
830.463
821.465
812.685
804.252
796.301
788.968
782.39
776.697
772.012
768.44
766.067
764.95
765.117
766.564
769.255
773.124
778.082
784.017
790.804
798.311
806.4
814.936
823.785
832.82
841.921
850.972
859.867
868.501
876.763
884.542
891.72
898.179
903.803
908.485
912.133
914.676
916.067
916.282
915.318
913.192
909.943
905.635
900.353
894.2
887.288
879.735
871.657
863.165
854.368
845.368
836.265
827.167
818.183
809.434
801.044
793.143
785.864
779.34
773.699
769.059
765.524
763.176
762.071
781.912
783.595
786.721
791.21
796.953
803.816
811.654
820.309
829.619
839.426
849.572
859.908
870.293
880.593
890.687
900.458
909.792
918.572
926.684
934.01
940.439
945.867
950.202
953.37
955.318
956.014
955.446
953.622
950.572
946.344
941.01
934.659
927.395
919.33
910.581
901.268
891.509
881.423
871.133
860.764
850.457
840.359
830.627
821.423
812.91
805.254
798.615
793.139
788.957
786.174
784.862
785.058
786.756
789.911
794.44
800.231
807.149
815.042
823.75
833.108
842.95
853.117
863.454
873.816
884.065
894.078
903.732
912.911
921.493
929.361
936.398
942.494
947.548
951.476
954.212
955.711
955.95
954.927
952.657
949.179
944.552
938.855
932.182
924.64
916.343
907.407
897.947
888.081
877.922
867.587
857.202
846.901
836.829
827.137
817.982
809.525
801.927
795.341
789.914
785.771
783.015
781.717
798.782
800.697
804.25
809.347
815.858
823.631
832.494
842.266
852.763
863.8
875.198
886.783
898.392
909.87
921.079
931.886
942.165
951.791
960.642
968.601
975.559
981.413
986.076
989.477
991.563
992.302
991.683
989.713
986.422
981.858
976.089
969.203
961.298
952.487
942.887
932.624
921.824
910.619
899.148
887.555
876.001
864.658
853.705
843.327
833.716
825.059
817.541
811.333
806.585
803.422
801.93
802.154
804.085
807.669
812.808
819.372
827.202
836.124
845.953
856.497
867.569
878.984
890.564
902.141
913.557
924.67
935.343
945.446
954.853
963.44
971.09
977.695
983.158
987.398
990.349
991.97
992.236
991.144
988.712
984.977
979.997
973.846
966.618
958.415
949.351
939.543
929.114
918.189
906.897
895.37
883.752
872.2
860.88
849.966
839.641
830.088
821.492
814.032
807.876
803.171
800.037
798.56
812.559
814.678
818.607
824.238
831.425
839.996
849.761
860.519
872.065
884.195
896.711
909.421
922.143
934.705
946.951
958.735
969.914
980.357
989.934
998.524
1006.01
1012.31
1017.31
1020.95
1023.18
1023.97
1023.3
1021.18
1017.63
1012.72
1006.51
999.081
990.539
980.995
970.572
959.401
947.62
935.374
922.816
910.109
897.432
884.975
872.936
861.521
850.94
841.402
833.112
826.259
821.014
817.517
815.866
816.113
818.25
822.211
827.888
835.131
843.764
853.592
864.409
876.006
888.172
900.705
913.407
926.093
938.585
950.726
962.363
973.353
983.56
992.855
1001.12
1008.24
1014.12
1018.68
1021.86
1023.61
1023.9
1022.74
1020.13
1016.13
1010.78
1004.17
996.385
987.527
977.713
967.065
955.715
943.796
931.453
918.833
906.097
893.42
880.987
868.99
857.63
847.111
837.638
829.41
822.613
817.413
813.948
812.313
822.975
825.262
829.499
835.567
843.307
852.531
863.033
874.596
886.999
900.025
913.461
927.104
940.758
954.239
967.376
980.007
991.979
1003.15
1013.38
1022.54
1030.53
1037.22
1042.55
1046.42
1048.79
1049.62
1048.9
1046.63
1042.86
1037.62
1030.99
1023.06
1013.94
1003.74
992.581
980.613
967.979
954.838
941.358
927.717
914.108
900.733
887.804
875.54
864.166
853.908
844.985
837.605
831.952
828.18
826.4
826.666
828.971
833.243
839.359
847.159
856.448
867.017
878.643
891.1
904.166
917.622
931.258
944.876
958.285
971.31
983.786
995.558
1006.48
1016.41
1025.24
1032.84
1039.11
1043.97
1047.36
1049.23
1049.55
1048.32
1045.55
1041.29
1035.61
1028.56
1020.26
1010.81
1000.32
988.929
976.771
963.994
950.751
937.207
923.538
909.93
896.58
883.696
871.491
860.184
849.995
841.138
833.817
828.212
824.474
822.71
829.811
832.221
836.683
843.071
851.213
860.91
871.944
884.087
897.107
910.779
924.88
939.2
953.538
967.702
981.507
994.781
1007.36
1019.09
1029.83
1039.45
1047.83
1054.85
1060.43
1064.49
1066.98
1067.85
1067.08
1064.7
1060.73
1055.23
1048.27
1039.95
1030.37
1019.65
1007.92
995.342
982.061
968.247
954.082
939.757
925.47
911.431
897.859
884.984
873.038
862.259
852.877
845.112
839.162
835.189
833.312
833.593
836.021
840.52
846.959
855.163
864.928
876.032
888.242
901.32
915.034
929.158
943.475
957.778
971.87
985.562
998.678
1011.05
1022.53
1032.96
1042.23
1050.21
1056.8
1061.91
1065.47
1067.43
1067.77
1066.48
1063.58
1059.12
1053.15
1045.77
1037.06
1027.14
1016.12
1004.16
991.382
977.953
964.037
949.81
935.458
921.175
907.164
893.641
880.827
868.951
858.244
848.932
841.229
835.328
831.39
829.532
832.784
835.272
839.878
846.466
854.855
864.837
876.185
888.662
902.032
916.063
930.529
945.219
959.929
974.469
988.647
1002.28
1015.2
1027.26
1038.3
1048.18
1056.8
1064.02
1069.76
1073.94
1076.5
1077.39
1076.6
1074.15
1070.06
1064.4
1057.24
1048.68
1038.82
1027.8
1015.75
1002.82
989.178
974.989
960.444
945.742
931.083
916.677
902.745
889.519
877.24
866.151
856.49
848.487
842.348
838.247
836.308
836.598
839.106
843.75
850.391
858.844
868.898
880.319
892.867
906.298
920.375
934.868
949.558
964.238
978.71
992.776
1006.25
1018.97
1030.77
1041.5
1051.02
1059.23
1066.01
1071.27
1074.94
1076.96
1077.31
1075.98
1073
1068.41
1062.27
1054.68
1045.72
1035.53
1024.21
1011.91
998.789
984.997
970.707
956.105
941.381
926.729
912.355
898.474
885.314
873.108
862.094
852.506
844.567
838.48
834.415
832.494
)
;

boundaryField
{
    top
    {
        type            calculated;
        value           nonuniform List<scalar> 
102
(
833.056
835.577
840.242
846.91
855.396
865.489
876.957
889.562
903.064
917.228
931.829
946.654
961.501
976.182
990.501
1004.27
1017.32
1029.5
1040.65
1050.64
1059.34
1066.64
1072.44
1076.67
1079.25
1080.15
1079.36
1076.87
1072.74
1067.02
1059.78
1051.13
1041.18
1030.04
1017.87
1004.81
991.025
976.693
962.005
947.165
932.369
917.826
903.759
890.402
877.995
866.786
857.016
848.919
842.704
838.549
836.584
836.878
839.42
844.123
850.845
859.397
869.563
881.106
893.783
907.347
921.56
936.189
951.017
965.836
980.451
994.659
1008.27
1021.12
1033.03
1043.88
1053.5
1061.8
1068.65
1073.97
1077.67
1079.72
1080.08
1078.73
1075.72
1071.08
1064.88
1057.2
1048.15
1037.85
1026.42
1014
1000.74
986.815
972.384
957.641
942.781
927.994
913.485
899.471
886.18
873.848
862.716
853.02
844.988
838.826
834.709
832.763
)
;
    }
    bottom
    {
        type            calculated;
        value           nonuniform List<scalar> 
102
(
-38.8674
-41.9363
-47.6887
-56.0798
-67.0639
-80.6048
-96.6777
-115.254
-136.271
-159.601
-185.023
-212.206
-240.684
-269.836
-298.848
-326.757
-352.578
-375.413
-394.506
-409.492
-420.554
-428.157
-433.017
-435.887
-437.373
-437.85
-437.451
-436.08
-433.4
-428.842
-421.661
-411.117
-396.697
-378.155
-355.768
-330.256
-302.521
-273.571
-244.406
-215.878
-188.648
-163.209
-139.914
-118.999
-100.601
-84.7886
-71.5928
-61.0378
-53.1567
-47.9899
-45.5753
-45.9359
-49.0676
-54.9426
-63.5212
-74.7642
-88.6415
-105.129
-124.189
-145.74
-169.618
-195.562
-223.183
-251.946
-281.147
-309.879
-337.129
-361.912
-383.357
-400.829
-414.207
-423.815
-430.24
-434.244
-436.538
-437.635
-437.806
-437.088
-435.288
-431.967
-426.468
-418.028
-405.981
-389.925
-369.802
-346.109
-319.654
-291.362
-262.224
-233.178
-204.983
-178.219
-153.313
-130.568
-110.177
-92.248
-76.8323
-63.9545
-53.6419
-45.9336
-40.8764
-38.5127
)
;
    }
    frontAndBack
    {
        type            empty;
    }
    left_cyc
    {
        type            cyclic;
    }
    right_cyc
    {
        type            cyclic;
    }
}


// ************************************************************************* //
