/*--------------------------------*- C++ -*----------------------------------*\
| =========                 |                                                 |
| \\      /  F ield         | OpenFOAM: The Open Source CFD Toolbox           |
|  \\    /   O peration     | Version:  2.3.0                                 |
|   \\  /    A nd           | Web:      www.OpenFOAM.org                      |
|    \\/     M anipulation  |                                                 |
\*---------------------------------------------------------------------------*/
FoamFile
{
    version     2.0;
    format      ascii;
    class       volScalarField;
    location    "10000";
    object      p;
}
// * * * * * * * * * * * * * * * * * * * * * * * * * * * * * * * * * * * * * //

dimensions      [0 2 -2 0 0 0 0];

internalField   nonuniform List<scalar> 
3060
(
-922.785
-926.934
-934.513
-945.122
-958.194
-973.076
-989.279
-1006.93
-1027.18
-1051.72
-1081.57
-1116.04
-1153.46
-1192.13
-1230.36
-1266.5
-1299.21
-1327.61
-1350.93
-1368.16
-1379.42
-1385.63
-1388.14
-1388.48
-1387.99
-1387.53
-1387.47
-1387.66
-1387.44
-1385.66
-1380.81
-1371.42
-1356.38
-1335.09
-1308.2
-1276.72
-1241.43
-1203.63
-1165.01
-1127.38
-1092.46
-1061.88
-1036.46
-1015.62
-997.914
-982.133
-967.956
-955.738
-946.064
-939.47
-936.331
-936.826
-940.926
-948.398
-958.818
-971.619
-986.245
-1002.47
-1020.87
-1042.83
-1069.67
-1101.56
-1137.36
-1175.45
-1214.04
-1251.3
-1285.67
-1315.97
-1341.45
-1361.06
-1374.47
-1382.5
-1386.36
-1387.57
-1387.59
-1387.43
-1387.6
-1388.12
-1388.49
-1387.7
-1384.33
-1376.86
-1364.06
-1345.12
-1320.29
-1290.66
-1256.9
-1220.04
-1181.53
-1143.03
-1106.24
-1072.88
-1044.48
-1021.29
-1001.91
-984.72
-968.854
-954.405
-941.942
-932.113
-925.443
-922.279
-986.049
-985.885
-985.577
-985.161
-984.801
-984.976
-986.735
-991.873
-1002.55
-1020.08
-1043.79
-1071.57
-1101.27
-1131.24
-1159.94
-1186.29
-1211.02
-1235.27
-1257.37
-1274.25
-1285.39
-1291.92
-1295.19
-1296.47
-1296.76
-1296.69
-1296.52
-1296.14
-1295.09
-1292.51
-1287.22
-1277.86
-1263.23
-1242.79
-1218.89
-1194.21
-1168.57
-1140.76
-1111.38
-1082
-1054.27
-1030.2
-1011.83
-1000.09
-994.1
-991.876
-991.546
-991.922
-992.415
-992.789
-992.972
-992.942
-992.703
-992.283
-991.787
-991.521
-992.215
-995.246
-1002.61
-1016.15
-1036.23
-1061.5
-1089.86
-1119.41
-1148.5
-1175.7
-1200.92
-1225.51
-1248.81
-1267.78
-1280.86
-1288.97
-1293.4
-1295.46
-1296.26
-1296.55
-1296.7
-1296.71
-1296.23
-1294.52
-1290.5
-1282.83
-1270.23
-1251.73
-1228.71
-1204.3
-1179.31
-1152.29
-1123.1
-1093.06
-1063.71
-1036.8
-1014.6
-998.982
-990.016
-986.017
-984.836
-984.882
-985.286
-985.679
-985.947
-986.07
-947.708
-948.307
-949.498
-951.426
-954.344
-958.643
-964.867
-973.644
-985.487
-1000.45
-1017.89
-1036.77
-1056.3
-1076.18
-1096.63
-1118.26
-1141.21
-1163
-1180.48
-1193.63
-1203.37
-1208.84
-1210.92
-1211.25
-1210.99
-1210.71
-1210.66
-1210.73
-1210.51
-1209.14
-1205.12
-1196.96
-1185.09
-1169.54
-1149.4
-1126.76
-1104.93
-1084.6
-1065.12
-1046.05
-1027.55
-1010.28
-995.189
-982.993
-973.813
-967.252
-962.723
-959.683
-957.719
-956.558
-956.047
-956.126
-956.801
-958.159
-960.38
-963.775
-968.794
-976.008
-985.982
-999.003
-1014.78
-1032.47
-1051.17
-1070.34
-1089.99
-1110.67
-1132.91
-1155.25
-1174.19
-1188.61
-1199.58
-1206.55
-1209.68
-1210.62
-1210.69
-1210.63
-1210.75
-1211.05
-1211.23
-1210.56
-1207.73
-1201.07
-1190.36
-1176.18
-1157.37
-1134.88
-1112.19
-1090.95
-1070.71
-1050.92
-1031.52
-1012.93
-996.072
-981.933
-970.961
-962.944
-957.307
-953.433
-950.818
-949.11
-948.089
-947.637
-890.911
-891.922
-893.877
-896.892
-901.164
-906.977
-914.683
-924.605
-936.844
-951.069
-966.547
-982.489
-998.44
-1014.28
-1030.15
-1046.36
-1063.26
-1080.11
-1095.85
-1109.73
-1119.1
-1124.43
-1126.22
-1125.72
-1124.79
-1124.25
-1124.34
-1124.99
-1125.68
-1125.07
-1121.18
-1113.83
-1101.83
-1086.94
-1070.83
-1054.07
-1037.88
-1022.23
-1006.75
-991.218
-975.673
-960.462
-946.276
-933.855
-923.646
-915.667
-909.658
-905.287
-902.266
-900.393
-899.546
-899.677
-900.793
-902.96
-906.32
-911.102
-917.611
-926.175
-937.002
-949.964
-964.507
-979.864
-995.423
-1010.93
-1026.43
-1042.18
-1058.58
-1075.3
-1091.09
-1105.49
-1116.22
-1122.56
-1125.46
-1125.52
-1124.75
-1124.23
-1124.31
-1125
-1125.93
-1126.04
-1123.28
-1117.01
-1106.27
-1091.64
-1075.59
-1058.58
-1041.86
-1025.79
-1009.96
-994.091
-978.118
-962.241
-947.019
-933.279
-921.663
-912.371
-905.218
-899.859
-895.955
-893.245
-891.556
-890.79
-844.497
-845.531
-847.515
-850.53
-854.705
-860.209
-867.236
-875.952
-886.406
-898.435
-911.655
-925.585
-939.814
-954.033
-968.004
-981.494
-994.323
-1006.52
-1018.47
-1029.53
-1037.37
-1041.62
-1042.06
-1040.42
-1038.7
-1037.87
-1038.13
-1039.4
-1041.22
-1042.04
-1039.74
-1033.72
-1024.15
-1012.45
-1000.5
-988
-974.846
-961.195
-947.277
-933.325
-919.614
-906.517
-894.487
-883.926
-875.054
-867.88
-862.275
-858.063
-855.081
-853.202
-852.345
-852.478
-853.604
-855.771
-859.07
-863.64
-869.652
-877.276
-886.614
-897.605
-909.969
-923.274
-937.082
-951.047
-964.913
-978.452
-991.437
-1003.76
-1015.64
-1027.06
-1035.68
-1040.74
-1042.02
-1040.72
-1038.94
-1037.92
-1037.97
-1039.08
-1040.92
-1042.22
-1040.84
-1035.57
-1026.76
-1015.2
-1003.23
-990.88
-977.862
-964.218
-950.159
-935.912
-921.732
-907.95
-895.008
-883.381
-873.398
-865.155
-858.563
-853.441
-849.598
-846.875
-845.157
-844.374
-801.861
-802.951
-805.025
-808.134
-812.349
-817.762
-824.46
-832.495
-841.831
-852.305
-863.633
-875.475
-887.529
-899.553
-911.345
-922.707
-933.377
-942.968
-951.063
-957.45
-962.047
-963.237
-960.88
-956.475
-952.92
-951.6
-952.066
-954.575
-959.147
-962.945
-963.781
-960.654
-954.971
-947.562
-938.562
-928.323
-917.292
-905.784
-894.019
-882.192
-870.528
-859.311
-848.864
-839.485
-831.373
-824.6
-819.144
-814.934
-811.89
-809.945
-809.052
-809.19
-810.364
-812.599
-815.95
-820.487
-826.293
-833.429
-841.896
-851.588
-862.275
-873.644
-885.375
-897.204
-908.917
-920.32
-931.173
-941.123
-949.718
-956.652
-961.834
-963.916
-962.104
-957.814
-953.623
-951.74
-951.752
-953.631
-957.725
-961.774
-963.281
-961.037
-955.856
-949.003
-940.472
-930.542
-919.651
-908.15
-896.277
-884.226
-872.203
-860.47
-849.343
-839.156
-830.166
-822.498
-816.159
-811.083
-807.178
-804.359
-802.557
-801.73
-762.714
-763.804
-765.862
-768.91
-772.975
-778.088
-784.268
-791.503
-799.724
-808.784
-818.464
-828.511
-838.679
-848.748
-858.516
-867.779
-876.304
-883.803
-889.908
-894.115
-895.699
-893.181
-886.198
-877.323
-870.258
-867.501
-868.542
-873.938
-882.758
-891.453
-896.218
-896.216
-892.958
-887.544
-880.567
-872.442
-863.501
-854.003
-844.164
-834.188
-824.289
-814.704
-805.684
-797.459
-790.198
-783.997
-778.888
-774.867
-771.913
-770.003
-769.12
-769.257
-770.415
-772.605
-775.844
-780.156
-785.56
-792.053
-799.586
-808.045
-817.242
-826.936
-836.877
-846.835
-856.6
-865.969
-874.717
-882.567
-889.166
-894.058
-896.595
-895.391
-889.329
-880.179
-871.976
-867.862
-867.82
-871.789
-879.673
-888.433
-894.316
-895.584
-893.174
-888.39
-881.866
-874.054
-865.303
-855.881
-846.012
-835.897
-825.74
-815.769
-806.234
-797.385
-789.422
-782.472
-776.585
-771.761
-767.977
-765.202
-763.41
-762.583
-725.863
-726.93
-728.934
-731.87
-735.731
-740.502
-746.156
-752.638
-759.856
-767.669
-775.898
-784.338
-792.787
-801.052
-808.947
-816.275
-822.817
-828.311
-832.434
-834.752
-834.634
-830.596
-820.492
-806.63
-795.156
-790.053
-792.149
-801.369
-815.325
-827.977
-834.572
-836.055
-834.609
-831.13
-826.133
-819.98
-812.963
-805.325
-797.271
-788.993
-780.684
-772.547
-764.787
-757.594
-751.125
-745.49
-740.758
-736.972
-734.152
-732.312
-731.456
-731.589
-732.71
-734.815
-737.897
-741.94
-746.92
-752.789
-759.465
-766.828
-774.71
-782.913
-791.232
-799.466
-807.426
-814.917
-821.724
-827.594
-832.22
-835.204
-835.981
-833.389
-825.004
-811.336
-798.194
-790.833
-790.709
-797.726
-810.412
-823.801
-832.21
-834.947
-834.314
-831.452
-826.92
-821.112
-814.332
-806.83
-798.816
-790.483
-782.017
-773.615
-765.481
-757.815
-750.787
-744.524
-739.108
-734.583
-730.974
-728.293
-726.545
-725.734
-690.433
-691.462
-693.382
-696.17
-699.791
-704.2
-709.333
-715.109
-721.419
-728.128
-735.075
-742.089
-748.998
-755.631
-761.824
-767.399
-772.163
-775.882
-778.272
-778.944
-777.354
-772.497
-762.247
-746.505
-731.733
-724.651
-727.684
-740.014
-756.679
-769.867
-776.742
-779.487
-779.621
-777.832
-774.577
-770.181
-764.902
-758.95
-752.513
-745.763
-738.872
-732.016
-725.371
-719.107
-713.371
-708.285
-703.945
-700.421
-697.766
-696.019
-695.203
-695.33
-696.398
-698.393
-701.285
-705.035
-709.584
-714.855
-720.746
-727.128
-733.847
-740.729
-747.599
-754.28
-760.603
-766.39
-771.452
-775.565
-778.457
-779.775
-779.018
-775.363
-766.921
-752.161
-735.903
-725.826
-725.6
-735.18
-751.029
-765.676
-774.225
-778.036
-778.943
-777.757
-774.973
-770.944
-765.939
-760.178
-753.848
-747.124
-740.17
-733.158
-726.259
-719.645
-713.469
-707.859
-702.917
-698.719
-695.322
-692.769
-691.091
-690.309
-655.82
-656.796
-658.61
-661.224
-664.583
-668.618
-673.242
-678.356
-683.839
-689.56
-695.37
-701.118
-706.654
-711.831
-716.503
-720.518
-723.711
-725.891
-726.822
-726.19
-723.553
-718.228
-708.926
-694.855
-680.3
-672.693
-676.056
-688.737
-704.155
-715.703
-722.505
-726.109
-727.445
-727.048
-725.289
-722.434
-718.694
-714.248
-709.254
-703.867
-698.237
-692.519
-686.871
-681.448
-676.394
-671.837
-667.89
-664.644
-662.175
-660.538
-659.77
-659.89
-660.894
-662.759
-665.444
-668.886
-673.007
-677.709
-682.876
-688.374
-694.055
-699.764
-705.343
-710.638
-715.499
-719.769
-723.287
-725.866
-727.284
-727.252
-725.362
-721.01
-713.072
-700.135
-684.659
-674.027
-673.74
-683.849
-699.021
-711.931
-719.986
-724.488
-726.525
-726.694
-725.397
-722.92
-719.486
-715.277
-710.453
-705.164
-699.555
-693.776
-687.976
-682.307
-676.912
-671.922
-667.449
-663.592
-660.431
-658.032
-656.444
-655.701
-621.622
-622.535
-624.224
-626.64
-629.716
-633.366
-637.488
-641.971
-646.69
-651.512
-656.301
-660.919
-665.235
-669.119
-672.447
-675.093
-676.927
-677.801
-677.54
-675.917
-672.628
-667.25
-659.15
-647.978
-636.237
-629.743
-632.699
-643.216
-655.384
-664.897
-671.307
-675.347
-677.544
-678.258
-677.75
-676.217
-673.82
-670.699
-666.986
-662.81
-658.306
-653.61
-648.865
-644.216
-639.805
-635.763
-632.212
-629.259
-626.991
-625.478
-624.767
-624.878
-625.808
-627.529
-629.989
-633.112
-636.806
-640.96
-645.448
-650.136
-654.881
-659.538
-663.967
-668.029
-671.595
-674.532
-676.708
-677.98
-678.177
-677.089
-674.433
-669.811
-662.629
-652.223
-639.912
-630.937
-630.657
-639.168
-651.252
-661.654
-668.939
-673.697
-676.496
-677.723
-677.655
-676.504
-674.435
-671.591
-668.099
-664.085
-659.674
-654.997
-650.186
-645.379
-640.712
-636.316
-632.313
-628.811
-625.909
-623.686
-622.206
-621.511
-587.609
-588.447
-589.99
-592.183
-594.951
-598.197
-601.814
-605.682
-609.675
-613.664
-617.52
-621.117
-624.34
-627.076
-629.221
-630.677
-631.348
-631.132
-629.914
-627.558
-623.895
-618.725
-611.835
-603.311
-594.772
-590.028
-592.236
-599.914
-608.917
-616.585
-622.415
-626.612
-629.403
-630.982
-631.503
-631.09
-629.854
-627.895
-625.316
-622.224
-618.735
-614.97
-611.061
-607.143
-603.352
-599.822
-596.678
-594.035
-591.989
-590.616
-589.968
-590.069
-590.915
-592.476
-594.691
-597.479
-600.737
-604.35
-608.188
-612.116
-615.999
-619.701
-623.094
-626.057
-628.479
-630.251
-631.274
-631.444
-630.649
-628.757
-625.605
-620.989
-614.671
-606.527
-597.513
-590.931
-590.696
-596.898
-605.736
-613.879
-620.283
-625.022
-628.31
-630.341
-631.274
-631.238
-630.343
-628.689
-626.373
-623.494
-620.159
-616.479
-612.575
-608.572
-604.601
-600.79
-597.264
-594.138
-591.52
-589.498
-588.145
-587.508
-553.675
-554.424
-555.797
-557.738
-560.165
-562.981
-566.074
-569.324
-572.608
-575.802
-578.785
-581.445
-583.676
-585.385
-586.486
-586.908
-586.588
-585.465
-583.484
-580.589
-576.726
-571.864
-566.045
-559.569
-553.56
-550.336
-551.861
-557.188
-563.763
-569.927
-575.152
-579.351
-582.548
-584.798
-586.161
-586.695
-586.461
-585.524
-583.956
-581.845
-579.287
-576.39
-573.274
-570.064
-566.891
-563.885
-561.17
-558.862
-557.061
-555.846
-555.27
-555.36
-556.111
-557.491
-559.437
-561.864
-564.669
-567.732
-570.927
-574.124
-577.192
-580.007
-582.454
-584.427
-585.831
-586.584
-586.616
-585.863
-584.265
-581.763
-578.299
-573.821
-568.324
-561.962
-555.505
-550.965
-550.782
-555.027
-561.348
-567.707
-573.278
-577.867
-581.462
-584.102
-585.844
-586.742
-586.853
-586.239
-584.965
-583.105
-580.748
-577.99
-574.937
-571.707
-568.421
-565.202
-562.174
-559.454
-557.152
-555.36
-554.154
-553.584
-519.804
-520.448
-521.625
-523.277
-525.325
-527.671
-530.207
-532.819
-535.389
-537.802
-539.947
-541.724
-543.039
-543.814
-543.984
-543.5
-542.329
-540.45
-537.855
-534.556
-530.589
-526.036
-521.077
-516.077
-511.822
-509.661
-510.692
-514.372
-519.239
-524.26
-528.951
-533.089
-536.57
-539.348
-541.405
-542.744
-543.383
-543.353
-542.702
-541.494
-539.81
-537.745
-535.405
-532.905
-530.365
-527.909
-525.656
-523.717
-522.19
-521.154
-520.661
-520.738
-521.381
-522.556
-524.202
-526.235
-528.554
-531.043
-533.584
-536.052
-538.328
-540.3
-541.863
-542.927
-543.415
-543.267
-542.441
-540.908
-538.655
-535.684
-532.017
-527.715
-522.906
-517.862
-513.188
-510.089
-509.953
-512.833
-517.402
-522.445
-527.319
-531.724
-535.515
-538.624
-541.024
-542.709
-543.689
-543.991
-543.651
-542.721
-541.272
-539.385
-537.157
-534.69
-532.097
-529.495
-527
-524.727
-522.779
-521.251
-520.216
-519.725
-486.046
-486.569
-487.519
-488.842
-490.461
-492.287
-494.221
-496.156
-497.987
-499.61
-500.927
-501.848
-502.296
-502.206
-501.529
-500.238
-498.326
-495.804
-492.704
-489.091
-485.062
-480.771
-476.457
-472.475
-469.365
-467.879
-468.586
-471.195
-474.913
-479.109
-483.376
-487.444
-491.138
-494.342
-496.984
-499.02
-500.433
-501.226
-501.422
-501.067
-500.227
-498.981
-497.423
-495.653
-493.78
-491.916
-490.169
-488.642
-487.424
-486.591
-486.193
-486.255
-486.774
-487.717
-489.025
-490.621
-492.41
-494.286
-496.141
-497.864
-499.347
-500.491
-501.207
-501.418
-501.063
-500.104
-498.521
-496.318
-493.518
-490.172
-486.363
-482.22
-477.942
-473.828
-470.338
-468.173
-468.075
-470.082
-473.496
-477.612
-481.949
-486.187
-490.115
-493.596
-496.542
-498.9
-500.643
-501.765
-502.278
-502.216
-501.632
-500.594
-499.184
-497.495
-495.626
-493.681
-491.768
-489.989
-488.444
-487.217
-486.38
-485.982
-452.503
-452.886
-453.575
-454.521
-455.657
-456.903
-458.174
-459.379
-460.428
-461.231
-461.707
-461.778
-461.382
-460.466
-459.001
-456.975
-454.402
-451.319
-447.792
-443.919
-439.839
-435.744
-431.887
-428.58
-426.184
-425.103
-425.609
-427.552
-430.528
-434.156
-438.113
-442.132
-446.002
-449.567
-452.716
-455.372
-457.488
-459.045
-460.047
-460.521
-460.518
-460.103
-459.353
-458.353
-457.197
-455.98
-454.793
-453.727
-452.86
-452.259
-451.969
-452.014
-452.391
-453.069
-453.997
-455.103
-456.307
-457.517
-458.639
-459.58
-460.247
-460.558
-460.437
-459.824
-458.673
-456.964
-454.698
-451.902
-448.632
-444.971
-441.043
-437.018
-433.121
-429.637
-426.901
-425.313
-425.244
-426.721
-429.404
-432.894
-436.844
-440.956
-444.996
-448.786
-452.2
-455.149
-457.575
-459.448
-460.762
-461.531
-461.794
-461.605
-461.032
-460.154
-459.054
-457.823
-456.55
-455.327
-454.237
-453.356
-452.748
-452.456
-419.316
-419.538
-419.928
-420.446
-421.035
-421.634
-422.174
-422.584
-422.793
-422.731
-422.332
-421.537
-420.296
-418.572
-416.349
-413.633
-410.453
-406.866
-402.959
-398.853
-394.713
-390.743
-387.187
-384.305
-382.337
-381.488
-381.872
-383.421
-385.939
-389.199
-392.956
-396.96
-400.996
-404.886
-408.493
-411.718
-414.494
-416.783
-418.574
-419.877
-420.727
-421.173
-421.275
-421.101
-420.723
-420.216
-419.653
-419.105
-418.635
-418.298
-418.132
-418.158
-418.373
-418.75
-419.247
-419.806
-420.36
-420.839
-421.169
-421.275
-421.086
-420.536
-419.567
-418.135
-416.209
-413.786
-410.882
-407.546
-403.851
-399.907
-395.86
-391.899
-388.253
-385.17
-382.895
-381.646
-381.599
-382.77
-385.008
-388.098
-391.792
-395.83
-399.979
-404.044
-407.874
-411.357
-414.415
-416.998
-419.083
-420.673
-421.788
-422.469
-422.77
-422.752
-422.482
-422.03
-421.468
-420.866
-420.291
-419.804
-419.458
-419.288
-386.662
-386.7
-386.752
-386.786
-386.764
-386.643
-386.377
-385.918
-385.219
-384.231
-382.908
-381.21
-379.103
-376.564
-373.592
-370.205
-366.445
-362.381
-358.117
-353.787
-349.563
-345.65
-342.272
-339.638
-337.911
-337.186
-337.503
-338.831
-341.086
-344.133
-347.783
-351.819
-356.029
-360.23
-364.273
-368.045
-371.464
-374.48
-377.065
-379.218
-380.956
-382.31
-383.323
-384.041
-384.512
-384.788
-384.917
-384.948
-384.924
-384.885
-384.86
-384.864
-384.896
-384.934
-384.946
-384.893
-384.729
-384.405
-383.872
-383.079
-381.978
-380.523
-378.676
-376.407
-373.704
-370.575
-367.054
-363.199
-359.1
-354.881
-350.698
-346.746
-343.239
-340.39
-338.376
-337.316
-337.283
-338.286
-340.272
-343.127
-346.672
-350.69
-354.962
-359.289
-363.51
-367.498
-371.162
-374.439
-377.293
-379.712
-381.705
-383.297
-384.524
-385.429
-386.059
-386.461
-386.684
-386.774
-386.777
-386.736
-386.686
-386.656
-354.751
-354.584
-354.257
-353.753
-353.053
-352.137
-350.986
-349.579
-347.893
-345.908
-343.598
-340.945
-337.931
-334.55
-330.813
-326.749
-322.411
-317.877
-313.257
-308.692
-304.354
-300.438
-297.141
-294.633
-293.026
-292.362
-292.645
-293.865
-295.991
-298.939
-302.564
-306.678
-311.085
-315.605
-320.086
-324.406
-328.476
-332.234
-335.643
-338.686
-341.364
-343.69
-345.684
-347.369
-348.767
-349.901
-350.794
-351.466
-351.94
-352.234
-352.366
-352.346
-352.171
-351.831
-351.306
-350.576
-349.62
-348.417
-346.943
-345.177
-343.095
-340.675
-337.899
-334.757
-331.251
-327.404
-323.259
-318.885
-314.38
-309.874
-305.528
-301.527
-298.068
-295.332
-293.447
-292.479
-292.453
-293.375
-295.233
-297.969
-301.453
-305.503
-309.921
-314.516
-319.124
-323.613
-327.883
-331.861
-335.502
-338.783
-341.698
-344.256
-346.475
-348.377
-349.985
-351.321
-352.406
-353.261
-353.906
-354.361
-354.644
-354.77
-323.825
-323.431
-322.687
-321.593
-320.151
-318.368
-316.253
-313.814
-311.061
-307.998
-304.628
-300.952
-296.975
-292.705
-288.168
-283.402
-278.467
-273.447
-268.457
-263.635
-259.148
-255.173
-251.884
-249.419
-247.856
-247.216
-247.488
-248.672
-250.758
-253.692
-257.36
-261.601
-266.238
-271.101
-276.04
-280.932
-285.681
-290.219
-294.498
-298.488
-302.172
-305.544
-308.598
-311.331
-313.737
-315.807
-317.533
-318.907
-319.926
-320.587
-320.892
-320.845
-320.444
-319.687
-318.572
-317.102
-315.283
-313.121
-310.627
-307.806
-304.665
-301.208
-297.44
-293.37
-289.018
-284.417
-279.622
-274.706
-269.775
-264.957
-260.41
-256.307
-252.824
-250.111
-248.267
-247.331
-247.306
-248.196
-250.008
-252.708
-256.198
-260.33
-264.925
-269.807
-274.818
-279.823
-284.719
-289.427
-293.893
-298.085
-301.981
-305.574
-308.861
-311.84
-314.508
-316.86
-318.886
-320.577
-321.925
-322.924
-323.573
-323.872
-294.151
-293.512
-292.318
-290.587
-288.346
-285.629
-282.476
-278.928
-275.026
-270.804
-266.293
-261.52
-256.511
-251.293
-245.904
-240.392
-234.824
-229.288
-223.897
-218.786
-214.11
-210.029
-206.693
-204.212
-202.648
-202.01
-202.286
-203.479
-205.587
-208.572
-212.34
-216.756
-221.664
-226.906
-232.34
-237.843
-243.319
-248.69
-253.901
-258.906
-263.672
-268.169
-272.365
-276.227
-279.717
-282.795
-285.419
-287.551
-289.157
-290.214
-290.707
-290.63
-289.985
-288.778
-287.028
-284.76
-282.01
-278.817
-275.223
-271.267
-266.986
-262.413
-257.579
-252.514
-247.256
-241.85
-236.359
-230.864
-225.469
-220.302
-215.512
-211.256
-207.689
-204.935
-203.074
-202.13
-202.101
-202.99
-204.806
-207.527
-211.079
-215.337
-220.146
-225.347
-230.79
-236.344
-241.904
-247.387
-252.734
-257.898
-262.845
-267.549
-271.984
-276.123
-279.933
-283.377
-286.415
-289.006
-291.112
-292.698
-293.742
-294.228
-266.016
-265.119
-263.45
-261.047
-257.961
-254.257
-250.005
-245.281
-240.156
-234.699
-228.971
-223.025
-216.911
-210.677
-204.374
-198.061
-191.81
-185.713
-179.879
-174.439
-169.532
-165.3
-161.87
-159.333
-157.737
-157.09
-157.381
-158.614
-160.787
-163.872
-167.791
-172.433
-177.659
-183.327
-189.305
-195.473
-201.733
-208.002
-214.214
-220.31
-226.235
-231.935
-237.349
-242.412
-247.054
-251.2
-254.774
-257.706
-259.934
-261.409
-262.1
-261.992
-261.088
-259.407
-256.984
-253.873
-250.137
-245.851
-241.088
-235.924
-230.427
-224.661
-218.684
-212.551
-206.318
-200.044
-193.8
-187.673
-181.766
-176.204
-171.122
-166.663
-162.96
-160.117
-158.198
-157.221
-157.184
-158.088
-159.942
-162.728
-166.387
-170.815
-175.881
-181.441
-187.358
-193.507
-199.782
-206.099
-212.388
-218.594
-224.667
-230.559
-236.219
-241.592
-246.614
-251.217
-255.327
-258.869
-261.774
-263.981
-265.442
-266.125
-239.727
-238.563
-236.406
-233.31
-229.354
-224.629
-219.239
-213.291
-206.891
-200.14
-193.129
-185.943
-178.656
-171.338
-164.055
-156.878
-149.887
-143.174
-136.847
-131.027
-125.841
-121.411
-117.844
-115.215
-113.565
-112.9
-113.214
-114.51
-116.786
-120.016
-124.138
-129.058
-134.657
-140.809
-147.389
-154.284
-161.393
-168.629
-175.911
-183.168
-190.322
-197.289
-203.982
-210.3
-216.141
-221.394
-225.951
-229.709
-232.578
-234.484
-235.379
-235.239
-234.069
-231.898
-228.782
-224.799
-220.045
-214.623
-208.643
-202.214
-195.439
-188.413
-181.224
-173.953
-166.675
-159.466
-152.405
-145.585
-139.108
-133.094
-127.666
-122.952
-119.063
-116.087
-114.076
-113.046
-112.998
-113.93
-115.848
-118.736
-122.547
-127.194
-132.565
-138.535
-144.978
-151.776
-158.827
-166.04
-173.338
-180.655
-187.922
-195.068
-202.016
-208.681
-214.968
-220.774
-225.992
-230.517
-234.247
-237.092
-238.982
-239.868
-215.589
-214.159
-211.515
-207.728
-202.9
-197.151
-190.615
-183.43
-175.734
-167.659
-159.33
-150.858
-142.348
-133.89
-125.571
-117.471
-109.679
-102.291
-95.4116
-89.1539
-83.631
-78.9497
-75.1992
-72.4429
-70.715
-70.0245
-70.3693
-71.7505
-74.1647
-77.5882
-81.9691
-87.2273
-93.2616
-99.9594
-107.206
-114.892
-122.914
-131.176
-139.587
-148.058
-156.485
-164.76
-172.76
-180.356
-187.409
-193.779
-199.322
-203.908
-207.417
-209.754
-210.852
-210.681
-209.244
-206.584
-202.775
-197.919
-192.14
-185.573
-178.36
-170.643
-162.557
-154.231
-145.782
-137.318
-128.937
-120.731
-112.79
-105.212
-98.1025
-91.5728
-85.7378
-80.7079
-76.5796
-73.4258
-71.2905
-70.1905
-70.1265
-71.0986
-73.1075
-76.1384
-80.1492
-85.0689
-90.8024
-97.2403
-104.269
-111.777
-119.662
-127.831
-136.196
-144.677
-153.187
-161.63
-169.901
-177.885
-185.455
-192.476
-198.81
-204.32
-208.874
-212.356
-214.674
-215.762
-193.955
-192.27
-189.156
-184.703
-179.034
-172.293
-164.641
-156.245
-147.273
-137.886
-128.238
-118.471
-108.714
-99.0854
-89.6859
-80.6131
-71.9644
-63.8401
-56.3444
-49.5828
-43.6581
-38.6638
-34.6768
-31.7522
-29.9218
-29.1973
-29.5802
-31.0705
-33.6619
-37.3313
-42.0328
-47.6972
-54.2359
-61.5479
-69.5259
-78.0619
-87.0494
-96.3838
-105.96
-115.668
-125.382
-134.964
-144.262
-153.116
-161.358
-168.814
-175.315
-180.7
-184.827
-187.578
-188.873
-188.671
-186.978
-183.846
-179.368
-173.668
-166.894
-159.21
-150.788
-141.798
-132.409
-122.778
-113.054
-103.37
-93.8481
-84.5967
-75.7205
-67.3246
-59.5159
-52.4027
-46.0911
-40.6794
-36.2517
-32.8709
-30.5766
-29.3866
-29.3041
-30.3292
-32.4586
-35.6759
-39.9431
-45.1987
-51.3608
-58.3325
-66.0098
-74.2873
-83.0618
-92.2338
-101.706
-111.381
-121.153
-130.901
-140.492
-149.78
-158.611
-166.82
-174.238
-180.701
-186.05
-190.147
-192.877
-194.159
-175.026
-173.11
-169.57
-164.512
-158.076
-150.428
-141.752
-132.238
-122.079
-111.462
-100.567
-89.561
-78.5993
-67.823
-57.3518
-47.2986
-37.772
-28.8786
-20.7233
-13.4082
-7.02896
-1.67039
2.59797
5.72521
7.67933
8.44509
8.01799
6.39907
3.59788
-0.360935
-5.43398
-11.5582
-18.6532
-26.6248
-35.3702
-44.7808
-54.7446
-65.1463
-75.8649
-86.7715
-97.7164
-108.535
-119.051
-129.077
-138.415
-146.87
-154.247
-160.361
-165.05
-168.179
-169.652
-169.422
-167.496
-163.936
-158.849
-152.378
-144.693
-135.981
-126.438
-116.263
-105.648
-94.7796
-83.8304
-72.9611
-62.3155
-52.0202
-42.1944
-32.9526
-24.406
-16.6617
-9.82074
-3.97392
0.802625
4.45111
6.9334
8.22952
8.33281
7.24364
4.96877
1.52756
-3.04296
-8.68667
-15.3295
-22.8831
-31.2498
-40.3266
-50.0078
-60.1866
-70.7535
-81.5937
-92.5816
-103.573
-114.409
-124.918
-134.919
-144.222
-152.636
-159.969
-166.042
-170.697
-173.8
-175.259
-158.849
-156.741
-152.851
-147.293
-140.222
-131.821
-122.29
-111.837
-100.674
-89.008
-77.0377
-64.9515
-52.9245
-41.1178
-29.6692
-18.7075
-8.35308
1.27959
10.082
17.9525
24.7982
30.538
35.1052
38.4492
40.5359
41.3462
40.8724
39.117
36.0933
31.8289
26.3678
19.7713
12.1168
3.49557
-5.98974
-16.2276
-27.0986
-38.4754
-50.2215
-62.1891
-74.2086
-86.0949
-97.65
-108.665
-118.926
-128.215
-136.319
-143.037
-148.19
-151.629
-153.25
-152.996
-150.878
-146.965
-141.374
-134.265
-125.822
-116.251
-105.766
-94.5851
-82.9217
-70.9815
-58.9593
-47.0363
-35.3759
-24.1226
-13.4106
-3.36474
5.89743
14.2666
21.6431
27.9391
33.0812
37.0129
39.6947
41.1032
41.2283
40.0703
37.6396
33.9591
29.0675
23.0197
15.8865
7.75262
-1.28652
-11.1272
-21.6592
-32.7667
-44.327
-56.2089
-68.2683
-80.3403
-92.2461
-103.794
-114.783
-125.004
-134.246
-142.302
-148.975
-154.089
-157.501
-159.105
-150.871
-148.527
-144.199
-138.017
-130.149
-120.797
-110.18
-98.5284
-86.0744
-73.0475
-59.6692
-46.1502
-32.6885
-19.4681
-6.65128
5.61117
17.1799
27.9259
37.7297
46.4823
54.0861
60.4564
65.5231
69.2316
71.5428
72.4327
71.8908
69.9211
66.5412
61.7838
55.6976
48.3479
39.8162
30.1986
19.6053
8.15856
-4.00743
-16.7464
-29.8993
-43.2936
-56.7358
-70.0173
-82.917
-95.2033
-106.639
-116.983
-126.003
-133.478
-139.21
-143.036
-144.838
-144.556
-142.2
-137.847
-131.629
-123.717
-114.318
-103.657
-91.9694
-79.4953
-66.4712
-53.126
-39.6777
-26.3312
-13.2741
-0.675102
11.3101
22.5385
32.8792
42.213
50.4335
57.4482
63.18
67.568
70.5679
72.1514
72.3043
71.0269
68.3331
64.251
58.8238
52.1104
44.1849
35.1359
25.064
14.0814
2.30999
-10.1183
-23.0612
-36.3647
-49.8607
-63.3611
-76.6643
-89.5565
-101.814
-113.205
-123.497
-132.464
-139.888
-145.577
-149.371
-151.156
-111.433
-109.587
-106.182
-101.32
-95.1365
-87.789
-79.4502
-70.2997
-60.5191
-50.2868
-39.7752
-29.1482
-18.5602
-8.15508
1.93571
11.591
20.6994
29.1586
36.8747
43.7626
49.7465
54.7604
58.7494
61.6698
63.4894
64.1875
63.7544
62.1941
59.5222
55.7662
50.9654
45.1713
38.4476
30.8692
22.5221
13.5024
3.91635
-6.11931
-16.4769
-27.0172
-37.5888
-48.0289
-58.1656
-67.8187
-76.803
-84.9318
-92.0219
-97.8999
-102.41
-105.422
-106.841
-106.619
-104.764
-101.337
-96.445
-90.2245
-82.8373
-74.4601
-65.2776
-55.4766
-45.2413
-34.7497
-24.1716
-13.6668
-3.38353
6.54233
15.986
24.8336
32.9816
40.3365
46.8153
52.346
56.8682
60.3336
62.7062
63.9617
64.0875
63.0834
60.9622
57.7477
53.4753
48.1916
41.9547
34.8333
26.9059
18.26
8.99188
-0.793789
-10.9829
-21.4514
-32.0648
-42.6759
-53.1277
-63.2536
-72.8795
-81.8255
-89.9103
-96.9553
-102.791
-107.266
-110.253
-111.658
-243.737
-239.195
-230.802
-218.796
-203.496
-185.28
-164.563
-141.782
-117.382
-91.8018
-65.4678
-38.7867
-12.1423
14.1038
39.601
64.0259
87.0822
108.501
128.038
145.477
160.624
173.314
183.408
190.794
195.391
197.144
196.028
192.055
185.266
175.734
163.559
148.873
131.839
112.647
91.5162
68.6966
44.4662
19.1336
-6.96259
-33.4544
-59.9608
-86.0787
-111.383
-135.43
-157.764
-177.93
-195.483
-210.007
-221.129
-228.544
-232.033
-231.488
-226.925
-218.486
-206.415
-191.036
-172.737
-151.943
-129.103
-104.674
-79.108
-52.8453
-26.3052
0.115097
26.0378
51.1028
74.9794
97.3672
117.996
136.624
153.039
167.058
178.528
187.326
193.356
196.557
196.893
194.364
189.003
180.871
170.059
156.686
140.897
122.867
102.795
80.905
57.4481
32.7009
6.967
-19.4224
-46.1139
-72.7394
-98.9086
-124.209
-148.21
-170.469
-190.544
-208
-222.432
-233.475
-240.832
-244.289
)
;

boundaryField
{
    top
    {
        type            calculated;
        value           nonuniform List<scalar> 
102
(
-9.81
-9.81
-9.81
-9.81
-9.81
-9.81
-9.81
-9.81
-9.81
-9.81
-9.81
-9.81
-9.81
-9.81
-9.81
-9.81
-9.81
-9.81
-9.81
-9.81
-9.81
-9.81
-9.81
-9.81
-9.81
-9.81
-9.81
-9.81
-9.81
-9.81
-9.81
-9.81
-9.81
-9.81
-9.81
-9.81
-9.81
-9.81
-9.81
-9.81
-9.81
-9.81
-9.81
-9.81
-9.81
-9.81
-9.81
-9.81
-9.81
-9.81
-9.81
-9.81
-9.81
-9.81
-9.81
-9.81
-9.81
-9.81
-9.81
-9.81
-9.81
-9.81
-9.81
-9.81
-9.81
-9.81
-9.81
-9.81
-9.81
-9.81
-9.81
-9.81
-9.81
-9.81
-9.81
-9.81
-9.81
-9.81
-9.81
-9.81
-9.81
-9.81
-9.81
-9.81
-9.81
-9.81
-9.81
-9.81
-9.81
-9.81
-9.81
-9.81
-9.81
-9.81
-9.81
-9.81
-9.81
-9.81
-9.81
-9.81
-9.81
-9.81
)
;
    }
    bottom
    {
        type            calculated;
        value           nonuniform List<scalar> 
102
(
-960.93
-965.111
-972.746
-983.435
-996.607
-1011.6
-1027.94
-1045.73
-1066.11
-1090.78
-1120.76
-1155.36
-1192.91
-1231.72
-1270.07
-1306.35
-1339.19
-1367.74
-1391.2
-1408.57
-1419.95
-1426.28
-1428.9
-1429.32
-1428.89
-1428.46
-1428.39
-1428.53
-1428.24
-1426.36
-1421.41
-1411.88
-1396.71
-1375.27
-1348.25
-1316.62
-1281.2
-1243.26
-1204.5
-1166.74
-1131.7
-1100.99
-1075.44
-1054.45
-1036.62
-1020.71
-1006.43
-994.115
-984.367
-977.724
-974.56
-975.059
-979.19
-986.719
-997.218
-1010.12
-1024.86
-1041.21
-1059.74
-1081.84
-1108.81
-1140.82
-1176.76
-1214.98
-1253.7
-1291.11
-1325.61
-1356.06
-1381.68
-1401.42
-1414.97
-1423.12
-1427.09
-1428.39
-1428.48
-1428.35
-1428.52
-1429.01
-1429.31
-1428.44
-1424.96
-1417.36
-1404.43
-1385.35
-1360.39
-1330.61
-1296.72
-1259.72
-1221.07
-1182.44
-1145.53
-1112.03
-1083.51
-1060.18
-1040.67
-1023.34
-1007.35
-992.788
-980.231
-970.328
-963.608
-960.42
)
;
    }
    frontAndBack
    {
        type            empty;
    }
    left_cyc
    {
        type            cyclic;
    }
    right_cyc
    {
        type            cyclic;
    }
}


// ************************************************************************* //
