/*--------------------------------*- C++ -*----------------------------------*\
| =========                 |                                                 |
| \\      /  F ield         | OpenFOAM: The Open Source CFD Toolbox           |
|  \\    /   O peration     | Version:  2.3.0                                 |
|   \\  /    A nd           | Web:      www.OpenFOAM.org                      |
|    \\/     M anipulation  |                                                 |
\*---------------------------------------------------------------------------*/
FoamFile
{
    version     2.0;
    format      ascii;
    class       volScalarField;
    location    "10000";
    object      p_rgh;
}
// * * * * * * * * * * * * * * * * * * * * * * * * * * * * * * * * * * * * * //

dimensions      [0 2 -2 0 0 0 0];

internalField   nonuniform List<scalar> 
765
(
-1753.18
-1762.16
-1770.71
-1779.63
-1790.01
-1803.04
-1819.44
-1838.2
-1857.4
-1873.25
-1879.21
-1869.19
-1851.82
-1832.36
-1814.09
-1798.63
-1786.47
-1776.62
-1767.9
-1759.27
-1750.03
-1739.86
-1728.64
-1716.21
-1702.34
-1686.66
-1668.57
-1647.11
-1620.72
-1587.13
-1542.76
-1483.39
-1413.22
-1333.24
-1239.37
-1175.17
-1190.06
-1271.88
-1362.87
-1437.9
-1505.84
-1559.52
-1599.59
-1630.33
-1654.78
-1674.93
-1692.11
-1707.12
-1720.47
-1732.47
-1743.33
-1722.29
-1732.08
-1741.34
-1750.72
-1761.15
-1773.7
-1788.93
-1807.38
-1828.45
-1849.37
-1859.5
-1843.49
-1822.06
-1801.59
-1784.15
-1769.44
-1757.59
-1747.56
-1738.27
-1728.89
-1718.84
-1707.5
-1694.94
-1681.14
-1665.97
-1649.21
-1630.41
-1608.87
-1583.42
-1552.8
-1515.78
-1473.85
-1429.58
-1395.37
-1395.13
-1392.38
-1393.59
-1392.98
-1403.72
-1445.36
-1488.63
-1529.22
-1563.91
-1592.54
-1616.47
-1636.96
-1655
-1671.18
-1685.86
-1699.25
-1711.42
-1678.86
-1689.6
-1699.91
-1710.19
-1721.05
-1733.45
-1748.9
-1770.87
-1800.3
-1834.34
-1852.52
-1824.27
-1790.7
-1763.29
-1743.29
-1729.22
-1717.41
-1706.78
-1696.5
-1686.05
-1675.1
-1663.52
-1650.69
-1636.65
-1621.51
-1605.28
-1588
-1569.62
-1549.93
-1528.98
-1499.31
-1464.25
-1425.04
-1371.42
-1348.09
-1338.9
-1341.24
-1353.54
-1388.36
-1440.48
-1475.61
-1511.18
-1536.36
-1556.73
-1575.93
-1593.9
-1610.82
-1626.67
-1641.45
-1655.12
-1667.52
-1650.31
-1661.3
-1672.08
-1682.58
-1692.9
-1703.78
-1718.41
-1742.21
-1779.27
-1827.06
-1853.37
-1812.67
-1766.6
-1733.57
-1712.94
-1700.17
-1689.63
-1679.27
-1668.66
-1657.8
-1646.73
-1635.5
-1624.12
-1612.52
-1600.7
-1588.72
-1576.17
-1562.21
-1545.55
-1524.47
-1487.29
-1433.3
-1378.87
-1337.82
-1304.89
-1285.19
-1289.86
-1315.45
-1351.51
-1393.88
-1453.59
-1503.03
-1532.34
-1551.52
-1567.05
-1580.38
-1592.64
-1604.56
-1616.32
-1627.82
-1639.14
-1649.14
-1658.86
-1668.58
-1677.71
-1685.76
-1693.43
-1705.02
-1727.73
-1770.01
-1829.31
-1861.96
-1811.44
-1755.01
-1719.05
-1700.67
-1690.94
-1683.44
-1675.06
-1665.69
-1655.92
-1646.29
-1637.12
-1628.53
-1620.48
-1612.67
-1604.48
-1594.72
-1581.62
-1562.68
-1535.56
-1492.95
-1429.08
-1346.55
-1288.74
-1247.73
-1224
-1229.52
-1260.54
-1307.41
-1371.58
-1453.84
-1510.57
-1545.84
-1569.81
-1586.36
-1598.03
-1607.06
-1615
-1622.83
-1631.03
-1639.8
-1669.08
-1677.02
-1684.72
-1691.13
-1695.46
-1699.02
-1705.61
-1725.91
-1771.75
-1839.06
-1875.26
-1819.05
-1755.11
-1717.52
-1702.73
-1697.96
-1694.5
-1689.53
-1682.64
-1674.79
-1666.99
-1659.87
-1653.7
-1648.34
-1643.24
-1637.28
-1628.64
-1614.72
-1592.16
-1557.64
-1506.35
-1432.98
-1335.85
-1259.31
-1200.89
-1168.21
-1175.65
-1218.58
-1284.93
-1368.52
-1459.95
-1526.36
-1570.65
-1600.69
-1619.84
-1631.59
-1639.05
-1644.54
-1649.62
-1655.2
-1661.69
-1699.61
-1705.6
-1710.58
-1713.36
-1713.43
-1712.79
-1716.57
-1736.75
-1783.67
-1851.77
-1888.7
-1831.89
-1766.92
-1728.32
-1714.31
-1713.28
-1713.82
-1712.98
-1709.47
-1704.11
-1698.08
-1692.35
-1687.44
-1683.36
-1679.51
-1674.47
-1665.88
-1650.35
-1623.78
-1582.05
-1520.62
-1437
-1332.84
-1235.41
-1154.37
-1110.16
-1120.09
-1179.13
-1268.96
-1368.92
-1467.05
-1543.8
-1597.7
-1633.79
-1656.09
-1668.82
-1675.88
-1680.3
-1684.12
-1688.45
-1693.67
-1732.64
-1736.24
-1738.11
-1737.89
-1736.57
-1734.9
-1739.29
-1758.73
-1801.65
-1863.74
-1899.46
-1845.88
-1786.72
-1750.98
-1736.95
-1735.19
-1737.04
-1738.3
-1737.96
-1735.55
-1731.64
-1727.07
-1722.55
-1718.34
-1714.04
-1708.22
-1698.14
-1679.8
-1648.51
-1599.72
-1528.03
-1434.58
-1329.47
-1212.03
-1106.37
-1048.45
-1061.4
-1139.67
-1254.18
-1365.05
-1468.44
-1555.21
-1618.09
-1660.23
-1686.54
-1701.59
-1709.87
-1714.97
-1719.16
-1723.49
-1728.13
-1762.32
-1764.54
-1765.46
-1765.21
-1764.01
-1763.89
-1769.31
-1786.68
-1822.44
-1874.19
-1906.71
-1859.68
-1810.46
-1780.23
-1767.02
-1763.77
-1764.58
-1765.58
-1765.53
-1764.28
-1761.72
-1758.04
-1753.54
-1748.3
-1741.89
-1732.94
-1718.81
-1695.54
-1658.63
-1603.45
-1523.21
-1421.47
-1317.04
-1180.62
-1051.42
-979.375
-995.689
-1093.43
-1231.59
-1351.84
-1459.01
-1553.7
-1624.07
-1672.16
-1703.88
-1723.59
-1735.65
-1743.58
-1749.55
-1754.59
-1758.9
-1785.23
-1788.82
-1791.19
-1792.49
-1793.37
-1795.33
-1801.25
-1815.54
-1842.87
-1882.42
-1909.98
-1871.93
-1834.3
-1810.8
-1799.34
-1794.92
-1793.48
-1792.58
-1791.03
-1788.31
-1784.36
-1779.23
-1772.88
-1765
-1754.86
-1740.86
-1720.41
-1689.92
-1645.67
-1583.58
-1496.28
-1390.02
-1286.14
-1131.13
-982.258
-898.682
-917.823
-1030.03
-1185.76
-1317.17
-1428.09
-1528.38
-1606.09
-1661.24
-1700.43
-1727.18
-1745.2
-1757.75
-1767.08
-1774.45
-1780.43
-1786.88
-1795.23
-1802.39
-1808.45
-1813.75
-1819.14
-1826.33
-1838.2
-1857.99
-1885.93
-1907.36
-1879.31
-1852.57
-1835.03
-1824.71
-1818.21
-1812.94
-1807.45
-1801.07
-1793.55
-1784.82
-1774.83
-1763.55
-1750.1
-1733.63
-1712.36
-1683.79
-1644.89
-1593.14
-1525.08
-1432.76
-1317.44
-1210.98
-1049.67
-892.813
-803.196
-824.108
-941.315
-1106.36
-1250.12
-1358
-1465.43
-1548.88
-1610.53
-1657.75
-1692.92
-1718.84
-1738.35
-1753.71
-1766.4
-1777.28
-1732.51
-1750.21
-1766.49
-1781.45
-1795.2
-1807.98
-1820.47
-1834.08
-1850.69
-1870.84
-1886.48
-1866.95
-1847.1
-1831.27
-1818.02
-1805.45
-1792.37
-1778.21
-1762.82
-1746.1
-1727.91
-1708.16
-1686.96
-1664.81
-1639.68
-1609.92
-1573.35
-1526.92
-1467.49
-1389.65
-1293.28
-1183.01
-1078.4
-925.117
-780.109
-692.565
-713.639
-825.363
-979.797
-1117.06
-1218.24
-1326.44
-1417.01
-1487.12
-1541.88
-1584.64
-1618.73
-1646.83
-1670.93
-1692.57
-1713.28
-1549.02
-1578.43
-1605.95
-1631.93
-1656.6
-1680.05
-1702.29
-1723.5
-1743.95
-1763.16
-1775.25
-1759.97
-1739.97
-1719.12
-1697.48
-1674.77
-1650.86
-1625.73
-1599.24
-1571.13
-1541.03
-1508.79
-1475.21
-1442
-1409.75
-1373.6
-1332.05
-1281.25
-1217.98
-1136.84
-1045.03
-967.466
-884.752
-767.206
-651.98
-577.064
-595.565
-688.732
-808.102
-915.362
-989.697
-1071.54
-1165.12
-1238.16
-1297.46
-1344.56
-1384.01
-1418.66
-1450.86
-1484.26
-1517.49
-1150.91
-1185.02
-1217.63
-1248.9
-1278.77
-1306.93
-1332.93
-1356.31
-1376.73
-1393.31
-1401.44
-1390.63
-1372.72
-1351.33
-1327.05
-1300.28
-1271.48
-1241.08
-1209.32
-1176.21
-1141.5
-1104.88
-1066.59
-1027.15
-986.485
-945.875
-902.138
-853.811
-804.559
-755.691
-707.715
-665.059
-609.368
-531.116
-451.664
-397.567
-411.195
-477.469
-558.489
-630.39
-677.249
-722.36
-771.206
-819.187
-868.833
-915.692
-957.974
-998.251
-1038.26
-1077.23
-1114.97
-426.828
-457.569
-489.017
-521.262
-554.396
-588.338
-622.615
-656.038
-686.214
-709.023
-717.387
-704.674
-679.226
-647.71
-613.732
-579.34
-545.482
-512.494
-480.386
-449.049
-418.413
-388.452
-358.744
-329.716
-304.502
-284.928
-272.557
-269.446
-279.135
-306.032
-351.922
-407.17
-456.956
-486.026
-495.927
-493.216
-494.797
-494.348
-478.061
-441.624
-387.189
-335.048
-295.045
-274.008
-269.109
-275.147
-290.04
-311.256
-337.721
-367.141
-396.771
)
;

boundaryField
{
    top
    {
        type            fixedValue;
        value           uniform 0;
    }
    bottom
    {
        type            fixedFluxPressure;
        gradient        uniform 0;
        value           nonuniform List<scalar> 
51
(
-1753.18
-1762.16
-1770.71
-1779.63
-1790.01
-1803.04
-1819.44
-1838.2
-1857.4
-1873.25
-1879.21
-1869.19
-1851.82
-1832.36
-1814.09
-1798.63
-1786.47
-1776.62
-1767.9
-1759.27
-1750.03
-1739.86
-1728.64
-1716.21
-1702.34
-1686.66
-1668.57
-1647.11
-1620.72
-1587.13
-1542.76
-1483.39
-1413.22
-1333.24
-1239.37
-1175.17
-1190.06
-1271.88
-1362.87
-1437.9
-1505.84
-1559.52
-1599.59
-1630.33
-1654.78
-1674.93
-1692.11
-1707.12
-1720.47
-1732.47
-1743.33
)
;
    }
    frontAndBack
    {
        type            empty;
    }
    left_cyc
    {
        type            cyclic;
    }
    right_cyc
    {
        type            cyclic;
    }
}


// ************************************************************************* //
