/*--------------------------------*- C++ -*----------------------------------*\
| =========                 |                                                 |
| \\      /  F ield         | OpenFOAM: The Open Source CFD Toolbox           |
|  \\    /   O peration     | Version:  2.3.0                                 |
|   \\  /    A nd           | Web:      www.OpenFOAM.org                      |
|    \\/     M anipulation  |                                                 |
\*---------------------------------------------------------------------------*/
FoamFile
{
    version     2.0;
    format      ascii;
    class       volScalarField;
    location    "10000";
    object      p_rgh;
}
// * * * * * * * * * * * * * * * * * * * * * * * * * * * * * * * * * * * * * //

dimensions      [0 2 -2 0 0 0 0];

internalField   nonuniform List<scalar> 
3060
(
-960.93
-965.111
-972.746
-983.435
-996.607
-1011.6
-1027.94
-1045.73
-1066.11
-1090.78
-1120.76
-1155.36
-1192.91
-1231.72
-1270.07
-1306.35
-1339.19
-1367.74
-1391.2
-1408.57
-1419.95
-1426.28
-1428.9
-1429.32
-1428.89
-1428.46
-1428.39
-1428.53
-1428.24
-1426.36
-1421.41
-1411.88
-1396.71
-1375.27
-1348.25
-1316.62
-1281.2
-1243.26
-1204.5
-1166.74
-1131.7
-1100.99
-1075.44
-1054.45
-1036.62
-1020.71
-1006.43
-994.115
-984.367
-977.724
-974.56
-975.059
-979.19
-986.719
-997.218
-1010.12
-1024.86
-1041.21
-1059.74
-1081.84
-1108.81
-1140.82
-1176.76
-1214.98
-1253.7
-1291.11
-1325.61
-1356.06
-1381.68
-1401.42
-1414.97
-1423.12
-1427.09
-1428.39
-1428.48
-1428.35
-1428.52
-1429.01
-1429.31
-1428.44
-1424.96
-1417.36
-1404.43
-1385.35
-1360.39
-1330.61
-1296.72
-1259.72
-1221.07
-1182.44
-1145.53
-1112.03
-1083.51
-1060.18
-1040.67
-1023.34
-1007.35
-992.788
-980.231
-970.328
-963.608
-960.42
-1081.9
-1081.96
-1082.08
-1082.25
-1082.63
-1083.66
-1086.38
-1092.54
-1104.27
-1122.89
-1147.72
-1176.64
-1207.5
-1238.64
-1268.53
-1296.09
-1322.05
-1347.56
-1370.92
-1389.02
-1401.32
-1408.92
-1413.11
-1415.13
-1415.93
-1416.09
-1415.84
-1415.07
-1413.37
-1409.93
-1403.63
-1393.14
-1377.3
-1355.6
-1330.43
-1304.49
-1277.61
-1248.57
-1217.99
-1187.41
-1158.53
-1133.34
-1113.9
-1101.12
-1094.15
-1091
-1089.85
-1089.53
-1089.48
-1089.49
-1089.49
-1089.49
-1089.48
-1089.48
-1089.57
-1090.04
-1091.58
-1095.55
-1103.93
-1118.51
-1139.68
-1166.08
-1195.6
-1226.34
-1256.64
-1285.07
-1311.54
-1337.39
-1361.97
-1382.18
-1396.45
-1405.67
-1411.07
-1413.94
-1415.32
-1415.92
-1416.07
-1415.77
-1414.71
-1412.21
-1407.21
-1398.45
-1384.67
-1364.93
-1340.66
-1315
-1288.78
-1260.56
-1230.19
-1198.97
-1168.46
-1140.42
-1117.11
-1100.41
-1090.4
-1085.39
-1083.28
-1082.49
-1082.2
-1082.05
-1081.94
-1081.89
-1080.49
-1081.62
-1083.77
-1087.05
-1091.67
-1097.97
-1106.43
-1117.63
-1132.02
-1149.65
-1169.86
-1191.62
-1214.16
-1237.2
-1260.88
-1285.83
-1312.16
-1337.4
-1358.29
-1374.78
-1387.66
-1396.03
-1400.63
-1403.01
-1404.16
-1404.52
-1404.22
-1403.21
-1401.21
-1397.5
-1390.72
-1379.49
-1364.33
-1345.36
-1321.74
-1295.63
-1270.41
-1246.76
-1224.03
-1201.88
-1180.46
-1160.4
-1142.66
-1127.95
-1116.4
-1107.68
-1101.24
-1096.59
-1093.37
-1091.36
-1090.44
-1090.58
-1091.79
-1094.11
-1097.68
-1102.78
-1109.78
-1119.22
-1131.6
-1147.18
-1165.64
-1186.16
-1207.82
-1230.11
-1253.04
-1277.06
-1302.72
-1328.53
-1350.95
-1368.76
-1382.97
-1392.94
-1398.72
-1401.86
-1403.54
-1404.35
-1404.47
-1403.91
-1402.49
-1399.63
-1394.16
-1384.53
-1370.61
-1353.06
-1330.83
-1304.91
-1278.84
-1254.3
-1230.84
-1207.94
-1185.57
-1164.14
-1144.53
-1127.76
-1114.27
-1103.88
-1096.06
-1090.27
-1086.04
-1083.08
-1081.21
-1080.35
-1045.59
-1047.46
-1050.98
-1056.19
-1063.23
-1072.31
-1083.7
-1097.66
-1114.23
-1133.03
-1153.33
-1174.35
-1195.66
-1217.14
-1238.93
-1261.29
-1284.52
-1307.84
-1330.05
-1350.27
-1365.64
-1376.49
-1383.1
-1386.5
-1388.3
-1389
-1388.62
-1387.17
-1384.44
-1379.37
-1370.23
-1357.02
-1338.75
-1317.37
-1294.7
-1271.47
-1248.98
-1227.24
-1205.95
-1184.94
-1164.22
-1144.13
-1125.36
-1108.65
-1094.46
-1082.89
-1073.73
-1066.72
-1061.66
-1058.41
-1056.9
-1057.13
-1059.11
-1062.85
-1068.41
-1075.98
-1085.77
-1098.03
-1112.92
-1130.26
-1149.47
-1169.78
-1190.6
-1211.68
-1233.09
-1254.98
-1277.73
-1300.96
-1323.3
-1344.15
-1361.05
-1373.1
-1381.06
-1385.32
-1387.64
-1388.8
-1388.89
-1387.9
-1385.76
-1381.68
-1373.89
-1361.97
-1345.11
-1324.09
-1301.55
-1278.1
-1255.1
-1232.94
-1211.25
-1189.82
-1168.57
-1147.69
-1127.71
-1109.45
-1093.59
-1080.35
-1069.61
-1061.11
-1054.59
-1049.85
-1046.79
-1045.37
-1011.69
-1013.91
-1018.04
-1024.09
-1032.1
-1042.14
-1054.33
-1068.74
-1085.35
-1103.98
-1124.21
-1145.59
-1167.72
-1190.34
-1213.2
-1236.03
-1258.58
-1280.77
-1302.81
-1323.82
-1341.18
-1354.18
-1362.28
-1366.86
-1369.5
-1370.67
-1370.16
-1368.09
-1364.46
-1358.2
-1347.54
-1332.24
-1312.79
-1290.94
-1268.84
-1246.39
-1223.64
-1200.82
-1178.26
-1156.19
-1134.87
-1114.64
-1095.97
-1079.24
-1064.73
-1052.49
-1042.47
-1034.59
-1028.78
-1024.98
-1023.21
-1023.49
-1025.81
-1030.15
-1036.51
-1044.96
-1055.57
-1068.42
-1083.55
-1100.83
-1119.97
-1140.54
-1162.09
-1184.32
-1206.99
-1229.82
-1252.5
-1274.84
-1296.9
-1318.42
-1336.79
-1350.91
-1360.24
-1365.62
-1368.76
-1370.44
-1370.48
-1368.9
-1365.83
-1360.48
-1351.11
-1336.84
-1318.37
-1296.79
-1274.74
-1252.46
-1229.82
-1206.96
-1184.13
-1161.62
-1139.66
-1118.55
-1098.71
-1080.6
-1064.58
-1050.78
-1039.19
-1029.71
-1022.25
-1016.72
-1013.11
-1011.42
-976.813
-979.41
-984.22
-991.195
-1000.3
-1011.51
-1024.81
-1040.16
-1057.46
-1076.51
-1097
-1118.63
-1141.13
-1164.31
-1188
-1211.99
-1235.9
-1259.2
-1281.24
-1301.49
-1319.44
-1333.01
-1341.51
-1345.93
-1348.54
-1350.06
-1349.45
-1347.22
-1344.08
-1337.83
-1326.85
-1310.66
-1291.19
-1269.72
-1246.75
-1222.93
-1198.89
-1175.09
-1151.81
-1129.22
-1107.52
-1086.95
-1067.81
-1050.42
-1035
-1021.7
-1010.57
-1001.66
-994.982
-990.584
-988.515
-988.841
-991.544
-996.56
-1003.84
-1013.36
-1025.07
-1038.96
-1054.93
-1072.82
-1092.37
-1113.28
-1135.25
-1158.04
-1181.48
-1205.38
-1229.41
-1253.07
-1275.69
-1296.66
-1315.48
-1330.34
-1339.92
-1345.1
-1347.88
-1349.81
-1349.81
-1347.87
-1345.01
-1339.63
-1329.81
-1314.87
-1296.15
-1275.38
-1252.94
-1229.4
-1205.43
-1181.49
-1157.92
-1134.91
-1112.63
-1091.28
-1071.14
-1052.55
-1035.77
-1020.97
-1008.24
-997.6
-989.076
-982.688
-978.476
-976.496
-943.905
-946.848
-952.272
-960.068
-970.126
-982.336
-996.587
-1012.76
-1030.7
-1050.24
-1071.13
-1093.17
-1116.18
-1140.01
-1164.55
-1189.6
-1214.8
-1239.68
-1263.57
-1285.55
-1304.38
-1317.94
-1325.13
-1327.77
-1328.73
-1329.66
-1329.31
-1328.56
-1327.33
-1322.92
-1312.3
-1295.4
-1274.42
-1251.03
-1226.32
-1201.06
-1175.81
-1151.01
-1126.92
-1103.67
-1081.41
-1060.33
-1040.64
-1022.57
-1006.34
-992.106
-980.019
-970.199
-962.764
-957.826
-955.491
-955.86
-958.906
-964.528
-972.617
-983.06
-995.738
-1010.52
-1027.27
-1045.8
-1065.89
-1087.31
-1109.85
-1133.33
-1157.62
-1182.59
-1207.89
-1233.08
-1257.52
-1280.37
-1300.48
-1315.83
-1324.61
-1327.82
-1328.69
-1329.51
-1329.45
-1328.47
-1327.29
-1323.74
-1314.85
-1299.66
-1279.8
-1257.19
-1232.96
-1207.93
-1182.73
-1157.79
-1133.43
-1109.81
-1087.05
-1065.3
-1044.75
-1025.63
-1008.16
-992.496
-978.791
-967.158
-957.707
-950.548
-945.791
-943.544
-913.657
-916.98
-923.074
-931.768
-942.869
-956.174
-971.483
-988.6
-1007.33
-1027.49
-1048.9
-1071.41
-1094.91
-1119.33
-1144.63
-1170.66
-1197.06
-1223.35
-1248.87
-1272.68
-1293.51
-1309.09
-1316.34
-1316.57
-1314.88
-1314.24
-1314.66
-1316.42
-1318.11
-1314.71
-1302.52
-1283.45
-1260.53
-1235.4
-1209.13
-1182.52
-1156.14
-1130.41
-1105.57
-1081.68
-1058.82
-1037.12
-1016.72
-997.821
-980.623
-965.339
-952.184
-941.368
-933.099
-927.568
-924.943
-925.358
-928.78
-935.066
-944.041
-955.508
-969.258
-985.079
-1002.76
-1022.08
-1042.85
-1064.88
-1088.02
-1112.17
-1137.24
-1163.19
-1189.69
-1216.28
-1242.34
-1266.99
-1289.07
-1306.65
-1316.41
-1317.87
-1315.79
-1314.41
-1314.26
-1315.27
-1316.89
-1315.2
-1305.55
-1288.22
-1266.41
-1242.03
-1216.22
-1189.84
-1163.5
-1137.64
-1112.57
-1088.4
-1065.16
-1042.94
-1021.85
-1002.06
-983.754
-967.111
-952.329
-939.606
-929.143
-921.141
-915.788
-913.25
-886.001
-889.772
-896.661
-906.42
-918.764
-933.386
-949.986
-968.285
-988.034
-1009.03
-1031.11
-1054.17
-1078.19
-1103.16
-1129.14
-1156.01
-1183.46
-1211.03
-1238.06
-1263.58
-1286.28
-1304.23
-1314.18
-1314.82
-1311.38
-1309.42
-1310.55
-1314.28
-1316.7
-1311.23
-1296.26
-1275.14
-1250.43
-1223.66
-1195.97
-1168.15
-1140.76
-1114.19
-1088.63
-1064.08
-1040.53
-1018.05
-996.731
-976.756
-958.348
-941.772
-927.324
-915.315
-906.053
-899.821
-896.853
-897.322
-901.189
-908.262
-918.293
-930.99
-946.041
-963.139
-981.994
-1002.35
-1024
-1046.78
-1070.6
-1095.42
-1121.23
-1148.07
-1175.63
-1203.48
-1231.02
-1257.36
-1281.28
-1301.05
-1313.71
-1316.54
-1313.11
-1309.9
-1309.64
-1312.31
-1315.33
-1312.43
-1299.96
-1280.46
-1256.83
-1230.79
-1203.53
-1175.93
-1148.6
-1121.95
-1096.25
-1071.54
-1047.78
-1024.97
-1003.18
-982.506
-963.129
-945.268
-929.178
-915.148
-903.48
-894.478
-888.42
-885.538
-860.408
-864.725
-872.584
-883.653
-897.534
-913.8
-932.034
-951.855
-972.942
-995.053
-1018.03
-1041.82
-1066.43
-1091.96
-1118.54
-1146.12
-1174.44
-1203.09
-1231.43
-1258.52
-1283.04
-1303.22
-1316.51
-1320.72
-1318.74
-1316.77
-1318.04
-1321.21
-1320.78
-1311.48
-1293.86
-1270.79
-1244.38
-1216.16
-1187.24
-1158.38
-1130.13
-1102.79
-1076.52
-1051.23
-1026.83
-1003.33
-980.808
-959.432
-939.468
-921.255
-905.191
-891.704
-881.221
-874.129
-870.744
-871.278
-875.688
-883.727
-895.059
-909.282
-925.966
-944.687
-965.062
-986.769
-1009.57
-1033.31
-1057.95
-1083.49
-1110.04
-1137.66
-1166.12
-1195.06
-1223.89
-1251.75
-1277.42
-1299.26
-1314.92
-1321.61
-1320.39
-1317.34
-1317.01
-1319.5
-1320.41
-1313.73
-1298.27
-1276.7
-1251.33
-1223.78
-1195.28
-1166.66
-1138.51
-1111.18
-1084.89
-1059.62
-1035.24
-1011.68
-988.921
-967.068
-946.298
-926.875
-909.138
-893.48
-880.327
-870.098
-863.178
-859.877
-836.15
-841.127
-850.168
-862.838
-878.611
-896.919
-917.204
-938.963
-961.784
-985.368
-1009.54
-1034.27
-1059.61
-1085.75
-1112.91
-1141.07
-1170.08
-1199.59
-1229.01
-1257.42
-1283.58
-1305.85
-1322.19
-1330.73
-1332.47
-1331.97
-1332.7
-1333.06
-1328.18
-1315.17
-1295.13
-1270.24
-1242.37
-1212.93
-1183
-1153.31
-1124.31
-1096.25
-1069.22
-1043.05
-1017.59
-992.782
-968.694
-945.519
-923.579
-903.311
-885.239
-869.93
-857.951
-849.813
-845.921
-846.535
-851.603
-860.821
-873.749
-889.858
-908.576
-929.341
-951.652
-975.098
-999.393
-1024.38
-1050.02
-1076.41
-1103.71
-1132.04
-1161.26
-1191.08
-1220.97
-1250.11
-1277.33
-1301.11
-1319.47
-1330.24
-1333.24
-1332.35
-1332.04
-1332.42
-1329.19
-1318.44
-1300.27
-1276.76
-1249.84
-1221.04
-1191.52
-1162.1
-1133.3
-1105.4
-1078.53
-1052.62
-1027.46
-1002.88
-978.859
-955.459
-932.892
-911.488
-891.689
-874.017
-859.037
-847.311
-839.344
-835.537
-812.485
-818.246
-828.694
-843.279
-861.328
-882.11
-904.903
-929.061
-954.056
-979.513
-1005.23
-1031.16
-1057.44
-1084.29
-1112.02
-1140.67
-1170.2
-1200.33
-1230.53
-1259.96
-1287.44
-1311.45
-1330.29
-1342.42
-1347.93
-1349.4
-1349.3
-1346.41
-1337.58
-1321.58
-1299.51
-1273.14
-1244.1
-1213.75
-1183.06
-1152.72
-1123.09
-1094.33
-1066.45
-1039.21
-1012.41
-985.955
-959.901
-934.482
-910.106
-887.327
-866.82
-849.317
-835.546
-826.16
-821.666
-822.375
-828.226
-838.85
-853.694
-872.078
-893.266
-916.536
-941.24
-966.862
-993.04
-1019.59
-1046.49
-1073.88
-1101.99
-1130.99
-1160.84
-1191.33
-1222.01
-1252.13
-1280.59
-1305.97
-1326.57
-1340.66
-1347.64
-1349.46
-1349.19
-1346.96
-1339.81
-1325.76
-1305.34
-1280.22
-1252.08
-1222.33
-1192.08
-1162.07
-1132.77
-1104.36
-1076.89
-1050.22
-1024.05
-998.181
-972.523
-947.162
-922.349
-898.504
-876.191
-856.083
-838.91
-825.394
-816.182
-811.777
-788.76
-795.427
-807.505
-824.319
-845.028
-868.716
-894.479
-921.504
-949.127
-976.881
-1004.51
-1031.97
-1059.4
-1087.11
-1115.42
-1144.5
-1174.39
-1204.9
-1235.58
-1265.66
-1294.02
-1319.29
-1339.92
-1354.59
-1362.89
-1365.94
-1365.13
-1359.7
-1348.04
-1329.91
-1306.36
-1278.95
-1249.14
-1218.19
-1187.01
-1156.19
-1126.02
-1096.56
-1067.7
-1039.18
-1010.74
-982.26
-953.814
-925.694
-898.41
-872.66
-849.29
-829.22
-813.361
-802.525
-797.335
-798.153
-804.911
-817.17
-834.249
-855.298
-879.396
-905.635
-933.204
-961.45
-989.924
-1018.39
-1046.83
-1075.41
-1104.42
-1134.08
-1164.44
-1195.41
-1226.6
-1257.35
-1286.65
-1313.18
-1335.4
-1351.85
-1361.71
-1365.71
-1365.51
-1361.21
-1351.23
-1334.84
-1312.79
-1286.54
-1257.58
-1227.25
-1196.55
-1166.17
-1136.49
-1107.62
-1079.49
-1051.89
-1024.48
-996.975
-969.297
-941.541
-914.023
-887.268
-861.985
-839.02
-819.287
-803.692
-793.038
-787.941
-764.444
-772.13
-786.048
-805.38
-829.103
-856.1
-885.264
-915.6
-946.29
-976.757
-1006.68
-1035.98
-1064.82
-1093.55
-1122.51
-1151.98
-1182.11
-1212.78
-1243.62
-1273.93
-1302.71
-1328.67
-1350.36
-1366.55
-1376.59
-1380.67
-1379.34
-1372.27
-1358.87
-1339.45
-1315.05
-1287.07
-1256.92
-1225.72
-1194.3
-1163.16
-1132.5
-1102.29
-1072.32
-1042.28
-1011.88
-980.998
-949.741
-918.479
-887.84
-858.685
-832.053
-809.069
-790.846
-778.373
-772.399
-773.34
-781.121
-795.229
-814.838
-838.915
-866.332
-895.98
-926.86
-958.169
-989.348
-1020.1
-1050.38
-1080.36
-1110.38
-1140.71
-1171.51
-1202.77
-1234.2
-1265.21
-1294.9
-1322.06
-1345.24
-1363.11
-1374.78
-1380.22
-1380.09
-1374.45
-1362.73
-1344.94
-1321.95
-1295.09
-1265.78
-1235.23
-1204.38
-1173.83
-1143.88
-1114.56
-1085.68
-1056.97
-1028.03
-998.559
-968.468
-937.893
-907.228
-877.121
-848.442
-822.229
-799.598
-781.654
-769.374
-763.5
-739.128
-747.933
-763.87
-785.968
-813.004
-843.648
-876.583
-910.616
-944.767
-978.331
-1010.91
-1042.38
-1072.89
-1102.81
-1132.5
-1162.37
-1192.67
-1223.3
-1253.99
-1284.13
-1312.8
-1338.83
-1360.91
-1377.86
-1388.82
-1393.47
-1391.83
-1383.81
-1369.47
-1349.45
-1324.81
-1296.84
-1266.79
-1235.69
-1204.26
-1172.91
-1141.77
-1110.74
-1079.49
-1047.69
-1015.02
-981.374
-946.921
-912.121
-877.738
-844.805
-814.573
-788.381
-767.558
-753.283
-746.446
-747.522
-756.429
-772.57
-794.964
-822.376
-853.462
-886.897
-921.481
-956.247
-990.512
-1023.89
-1056.31
-1087.93
-1119.09
-1150.12
-1181.35
-1212.74
-1244.14
-1275.05
-1304.65
-1331.86
-1355.37
-1373.94
-1386.6
-1392.88
-1392.81
-1386.45
-1373.8
-1355.35
-1332.07
-1305.2
-1276.02
-1245.65
-1214.93
-1184.38
-1154.18
-1124.39
-1094.67
-1064.63
-1033.88
-1002.11
-969.233
-935.45
-901.246
-867.402
-834.967
-805.177
-779.362
-758.839
-744.775
-738.048
-712.508
-722.516
-740.614
-765.661
-796.226
-830.758
-867.737
-905.765
-943.686
-980.672
-1016.22
-1050.17
-1082.62
-1113.91
-1144.44
-1174.71
-1205.02
-1235.42
-1265.71
-1295.36
-1323.54
-1349.2
-1371.16
-1388.25
-1399.54
-1404.42
-1402.6
-1394.15
-1379.49
-1359.41
-1335
-1307.42
-1277.8
-1247.05
-1215.82
-1184.41
-1152.86
-1120.94
-1088.26
-1054.44
-1019.2
-982.476
-944.504
-905.853
-867.429
-830.439
-796.361
-766.745
-743.142
-726.934
-719.167
-720.389
-730.509
-748.829
-774.197
-805.169
-840.178
-877.686
-916.275
-954.815
-992.489
-1028.82
-1063.66
-1097.14
-1129.58
-1161.36
-1192.88
-1224.26
-1255.41
-1285.94
-1315.11
-1341.95
-1365.31
-1384.02
-1397.06
-1403.73
-1403.72
-1397.07
-1384.13
-1365.6
-1342.53
-1316.07
-1287.39
-1257.49
-1227.13
-1196.75
-1166.46
-1136.16
-1105.47
-1073.89
-1041.04
-1006.65
-970.673
-933.362
-895.312
-857.44
-820.985
-787.383
-758.178
-734.903
-718.926
-711.28
-684.361
-695.642
-715.995
-744.091
-778.289
-816.816
-857.936
-900.076
-941.933
-982.545
-1021.31
-1057.97
-1092.59
-1125.44
-1156.97
-1187.72
-1218.07
-1248.18
-1277.91
-1306.84
-1334.25
-1359.2
-1380.61
-1397.41
-1408.61
-1413.46
-1411.57
-1403.06
-1388.51
-1368.8
-1344.95
-1318.06
-1289.11
-1258.89
-1227.94
-1196.47
-1164.42
-1131.5
-1097.21
-1061.15
-1023.11
-983.084
-941.394
-898.727
-856.133
-814.995
-776.961
-743.811
-717.321
-699.086
-690.327
-691.708
-703.113
-723.711
-752.162
-786.803
-825.842
-867.52
-910.253
-952.741
-994.031
-1033.54
-1071.03
-1106.58
-1140.46
-1173.12
-1204.99
-1236.33
-1267.13
-1297.07
-1325.56
-1351.74
-1374.58
-1392.99
-1405.97
-1412.73
-1412.78
-1406.14
-1393.34
-1375.19
-1352.7
-1326.98
-1299.08
-1269.87
-1240
-1209.82
-1179.38
-1148.47
-1116.64
-1083.32
-1048.15
-1010.9
-971.584
-930.551
-888.502
-846.496
-805.92
-768.402
-735.702
-709.576
-691.597
-682.974
-654.472
-667.031
-689.621
-720.724
-758.493
-800.954
-846.184
-892.446
-938.298
-982.649
-1024.79
-1064.37
-1101.36
-1135.98
-1168.68
-1200.06
-1230.56
-1260.4
-1289.53
-1317.62
-1344.07
-1368.07
-1388.66
-1404.85
-1415.67
-1420.37
-1418.45
-1410.12
-1395.98
-1376.91
-1353.88
-1327.86
-1299.7
-1270.08
-1239.39
-1207.79
-1175.11
-1141
-1104.91
-1066.43
-1025.4
-981.916
-936.402
-889.666
-842.896
-797.634
-755.698
-719.066
-689.723
-669.469
-659.711
-661.253
-673.948
-696.81
-728.304
-766.56
-809.579
-855.411
-902.305
-948.808
-993.835
-1036.69
-1077.03
-1114.85
-1150.34
-1184.02
-1216.39
-1247.75
-1278.18
-1307.46
-1335.12
-1360.43
-1382.49
-1400.32
-1412.96
-1419.61
-1419.71
-1413.29
-1400.92
-1383.44
-1361.82
-1337.07
-1310.1
-1281.67
-1252.33
-1222.32
-1191.61
-1159.91
-1126.75
-1091.49
-1053.79
-1013.49
-970.689
-925.835
-879.743
-833.604
-788.95
-747.578
-711.442
-682.501
-662.531
-652.923
-622.674
-636.441
-661.131
-695.044
-736.15
-782.304
-831.428
-881.649
-931.398
-979.471
-1025.05
-1067.67
-1107.21
-1143.78
-1177.87
-1210.08
-1240.89
-1270.57
-1299.15
-1326.4
-1351.84
-1374.79
-1394.4
-1409.8
-1420.09
-1424.53
-1422.63
-1414.59
-1401.03
-1382.76
-1360.67
-1335.58
-1308.22
-1279.14
-1248.63
-1216.72
-1183.23
-1147.73
-1109.67
-1068.61
-1024.47
-977.481
-928.172
-877.473
-826.699
-777.526
-731.923
-692.031
-660.013
-637.858
-627.151
-628.847
-642.764
-667.754
-702.099
-743.742
-790.509
-840.29
-891.189
-941.621
-990.376
-1036.63
-1079.95
-1120.2
-1157.5
-1192.41
-1225.45
-1256.98
-1287.13
-1315.79
-1342.6
-1366.96
-1388.11
-1405.18
-1417.32
-1423.75
-1423.91
-1417.82
-1406.06
-1389.43
-1368.82
-1345.13
-1319.13
-1291.48
-1262.59
-1232.61
-1201.45
-1168.77
-1134.06
-1096.68
-1056.29
-1012.83
-966.506
-917.872
-867.856
-817.764
-769.257
-724.274
-684.929
-653.354
-631.512
-620.97
-588.853
-603.681
-630.2
-666.55
-710.555
-759.94
-812.514
-866.305
-919.648
-971.24
-1020.15
-1065.82
-1108
-1146.69
-1182.37
-1215.65
-1247
-1276.72
-1304.92
-1331.44
-1355.93
-1377.83
-1396.44
-1410.98
-1420.67
-1424.81
-1422.94
-1415.25
-1402.33
-1384.9
-1363.72
-1339.5
-1312.84
-1284.14
-1253.6
-1221.18
-1186.64
-1149.56
-1109.39
-1065.65
-1018.43
-968.039
-915.153
-860.808
-806.426
-753.789
-704.972
-662.241
-627.895
-604.077
-592.533
-594.366
-609.359
-636.207
-673.032
-717.628
-767.687
-820.982
-875.508
-929.576
-981.867
-1031.45
-1077.75
-1120.52
-1159.81
-1196.16
-1230.1
-1262
-1292.06
-1320.24
-1346.3
-1369.76
-1390
-1406.29
-1417.86
-1424.02
-1424.24
-1418.54
-1407.46
-1391.73
-1372.15
-1349.49
-1324.39
-1297.38
-1268.76
-1238.61
-1206.76
-1172.87
-1136.42
-1096.78
-1053.63
-1007.04
-957.314
-905.133
-851.52
-797.883
-745.976
-697.843
-655.712
-621.851
-598.375
-587.011
-552.941
-568.598
-596.526
-634.745
-680.976
-732.87
-788.178
-844.875
-901.239
-955.898
-1007.83
-1056.37
-1101.14
-1142.01
-1179.45
-1214.01
-1246.14
-1276.17
-1304.23
-1330.24
-1353.96
-1374.95
-1392.64
-1406.37
-1415.46
-1419.31
-1417.46
-1410.11
-1397.77
-1381.1
-1360.71
-1337.2
-1311.02
-1282.46
-1251.64
-1218.46
-1182.66
-1143.83
-1101.48
-1055.14
-1005.02
-951.57
-895.58
-838.179
-780.864
-725.48
-674.163
-629.242
-593.103
-567.994
-555.792
-557.734
-573.569
-601.855
-640.59
-687.467
-740.099
-796.196
-853.694
-910.838
-966.227
-1018.83
-1067.95
-1113.22
-1154.58
-1192.56
-1227.63
-1260.16
-1290.38
-1318.31
-1343.82
-1366.54
-1385.98
-1401.55
-1412.59
-1418.5
-1418.78
-1413.46
-1403.04
-1388.17
-1369.53
-1347.74
-1323.36
-1296.77
-1268.17
-1237.59
-1204.81
-1169.5
-1131.16
-1089.23
-1043.4
-993.885
-941.122
-885.881
-829.274
-772.774
-718.19
-667.619
-623.352
-587.739
-562.999
-550.99
-514.915
-531.077
-559.837
-599.139
-646.665
-700.055
-757.064
-815.672
-874.152
-931.098
-985.431
-1036.39
-1083.47
-1126.41
-1165.64
-1201.63
-1234.77
-1265.36
-1293.55
-1319.33
-1342.53
-1362.82
-1379.75
-1392.79
-1401.36
-1404.93
-1403.09
-1396.01
-1384.16
-1368.08
-1348.28
-1325.22
-1299.25
-1270.56
-1239.2
-1205.04
-1167.84
-1127.24
-1082.82
-1034.17
-981.625
-925.772
-867.482
-807.952
-748.712
-691.618
-638.801
-592.593
-555.4
-529.517
-516.907
-518.919
-535.27
-564.413
-604.269
-652.491
-706.68
-764.545
-824.024
-883.346
-941.07
-996.088
-1047.61
-1095.12
-1138.5
-1178.16
-1214.52
-1247.91
-1278.55
-1306.52
-1331.73
-1353.95
-1372.8
-1387.79
-1398.4
-1404.1
-1404.46
-1399.48
-1389.64
-1375.49
-1357.59
-1336.47
-1312.54
-1286.09
-1257.25
-1225.97
-1192.08
-1155.23
-1115
-1070.92
-1022.75
-970.809
-915.674
-858.189
-799.523
-741.169
-684.942
-632.931
-587.424
-550.792
-525.301
-512.895
-474.797
-491.044
-519.893
-559.271
-606.89
-660.447
-717.773
-776.918
-836.206
-894.25
-949.953
-1002.49
-1051.27
-1095.89
-1136.71
-1174.07
-1208.28
-1239.58
-1268.11
-1293.9
-1316.84
-1336.67
-1353.06
-1365.56
-1373.71
-1377.05
-1375.19
-1368.3
-1356.79
-1341.11
-1321.66
-1298.81
-1272.81
-1243.77
-1211.72
-1176.53
-1137.98
-1095.81
-1049.73
-999.411
-945.308
-888.106
-828.734
-768.406
-708.631
-651.211
-598.208
-551.882
-514.585
-488.596
-475.903
-477.932
-494.379
-523.628
-563.588
-611.942
-666.347
-724.59
-784.671
-844.867
-903.748
-960.177
-1013.29
-1062.47
-1107.51
-1148.7
-1186.32
-1220.66
-1251.89
-1280.11
-1305.29
-1327.25
-1345.72
-1360.31
-1370.61
-1376.18
-1376.61
-1371.93
-1362.54
-1348.94
-1331.58
-1310.87
-1287.13
-1260.59
-1231.3
-1199.22
-1164.16
-1125.87
-1084.01
-1038.23
-988.389
-934.925
-878.493
-819.99
-760.594
-701.77
-645.275
-593.124
-547.535
-510.824
-485.241
-472.759
-432.64
-448.464
-476.502
-514.731
-560.968
-613.044
-668.934
-726.829
-785.165
-842.636
-898.179
-950.958
-1000.33
-1045.81
-1087.61
-1125.93
-1160.97
-1192.88
-1221.77
-1247.66
-1270.46
-1290
-1305.99
-1318.09
-1325.91
-1329.06
-1327.16
-1320.39
-1309.11
-1293.69
-1274.46
-1251.69
-1225.56
-1196.18
-1163.53
-1127.55
-1088.08
-1044.95
-998.04
-947.184
-892.896
-835.909
-777.159
-717.818
-659.31
-603.316
-551.757
-506.745
-470.504
-445.219
-432.841
-434.824
-450.851
-479.296
-518.12
-565.111
-618.065
-674.912
-733.793
-793.096
-851.466
-907.794
-961.202
-1011.01
-1056.92
-1099.05
-1137.58
-1172.65
-1204.42
-1232.92
-1258.16
-1280
-1298.23
-1312.57
-1322.66
-1328.14
-1328.66
-1324.2
-1315.18
-1301.98
-1284.99
-1264.54
-1240.88
-1214.17
-1184.45
-1151.7
-1115.77
-1076.49
-1033.67
-987.101
-936.755
-883.155
-826.997
-769.177
-710.823
-653.313
-598.279
-547.597
-503.338
-467.691
-442.817
-430.65
-388.597
-403.406
-429.588
-465.249
-508.38
-557.022
-609.364
-663.802
-718.95
-773.643
-826.919
-877.995
-926.24
-971.139
-1012.75
-1051.07
-1086.19
-1118.15
-1147.01
-1172.74
-1195.27
-1214.44
-1230.02
-1241.74
-1249.25
-1252.22
-1250.29
-1243.65
-1232.61
-1217.48
-1198.53
-1175.98
-1150
-1120.66
-1087.99
-1051.97
-1012.54
-969.671
-923.376
-873.74
-821.251
-766.623
-710.732
-654.641
-599.62
-547.162
-498.974
-456.953
-423.114
-399.474
-387.873
-389.736
-404.745
-431.327
-467.572
-511.451
-560.968
-614.275
-669.719
-725.868
-781.509
-835.633
-887.412
-936.169
-981.555
-1023.5
-1062.01
-1097.13
-1128.9
-1157.34
-1182.41
-1204
-1221.94
-1235.99
-1245.87
-1251.27
-1251.85
-1247.61
-1238.92
-1226.13
-1209.54
-1189.43
-1166.02
-1139.42
-1109.72
-1076.89
-1040.89
-1001.66
-959.121
-913.277
-864.212
-812.471
-758.725
-703.805
-648.728
-594.718
-543.221
-495.903
-454.623
-421.365
-398.124
-386.728
-342.725
-355.869
-379.05
-410.576
-448.692
-491.712
-538.104
-586.521
-635.815
-685.022
-733.344
-780.127
-824.831
-867.007
-906.497
-943.15
-976.898
-1007.71
-1035.54
-1060.33
-1081.98
-1100.34
-1115.2
-1126.32
-1133.41
-1136.17
-1134.27
-1127.88
-1117.29
-1102.78
-1084.58
-1062.87
-1037.82
-1009.52
-978.044
-943.444
-905.77
-865.112
-821.643
-775.662
-727.593
-678.047
-627.756
-577.604
-528.644
-482.119
-439.464
-402.29
-372.339
-351.381
-341.07
-342.729
-356.059
-379.613
-411.687
-450.506
-494.357
-541.672
-591.068
-641.354
-691.525
-740.74
-788.304
-833.636
-876.367
-916.232
-953.085
-986.845
-1017.47
-1044.9
-1069.06
-1089.84
-1107.06
-1120.54
-1130.01
-1135.22
-1135.84
-1131.87
-1123.65
-1111.48
-1095.65
-1076.38
-1053.85
-1028.22
-999.568
-967.949
-933.396
-895.948
-855.69
-812.791
-767.473
-720.21
-671.573
-622.255
-573.096
-525.111
-479.501
-437.666
-401.185
-371.773
-351.184
-341.062
-295.003
-305.801
-324.788
-350.548
-381.647
-416.733
-454.599
-494.206
-534.683
-575.314
-615.521
-654.843
-692.912
-729.469
-764.113
-796.571
-826.673
-854.3
-879.348
-901.708
-921.248
-937.807
-951.197
-961.198
-967.562
-970.011
-968.242
-962.423
-952.826
-939.686
-923.211
-903.583
-880.959
-855.472
-827.239
-796.372
-763.006
-727.334
-689.657
-650.454
-610.014
-568.75
-527.183
-485.957
-445.857
-407.832
-372.993
-342.617
-318.104
-300.909
-292.423
-293.792
-304.753
-324.063
-350.301
-382.015
-417.834
-456.523
-497.015
-538.409
-579.957
-621.053
-661.207
-700.028
-737.188
-772.255
-804.96
-835.127
-862.63
-887.355
-909.182
-927.973
-943.564
-955.766
-964.362
-969.11
-969.722
-966.178
-958.798
-947.852
-933.578
-916.188
-895.863
-872.756
-846.99
-818.674
-787.912
-754.835
-719.64
-682.648
-644.19
-604.575
-564.194
-523.536
-483.216
-443.99
-406.773
-372.653
-342.879
-318.833
-301.956
-293.631
-250.896
-258.577
-272.003
-290.117
-311.874
-336.314
-362.603
-390.049
-418.094
-446.305
-474.368
-502.068
-529.291
-556.034
-581.745
-606.096
-628.878
-649.941
-669.156
-686.395
-701.521
-714.38
-724.801
-732.598
-737.563
-739.461
-738.033
-733.429
-725.883
-715.592
-702.737
-687.483
-669.978
-650.364
-628.773
-605.343
-580.238
-553.686
-526.038
-497.882
-469.276
-440.364
-411.393
-382.722
-354.833
-328.337
-303.985
-282.662
-265.368
-253.172
-247.119
-248.1
-255.906
-269.583
-288.067
-310.303
-335.317
-362.26
-390.418
-419.218
-448.213
-477.075
-505.586
-533.631
-561.005
-587.184
-611.851
-634.797
-655.867
-674.924
-691.834
-706.454
-718.631
-728.195
-734.964
-738.73
-739.245
-736.487
-730.729
-722.198
-711.094
-697.6
-681.883
-664.09
-644.356
-622.809
-599.582
-574.842
-548.83
-521.941
-494.557
-466.725
-438.584
-410.374
-382.439
-355.246
-329.386
-305.592
-284.734
-267.799
-255.846
-249.915
-170.861
-175.47
-183.486
-194.245
-207.102
-221.481
-236.89
-252.936
-269.317
-285.824
-302.334
-318.82
-335.38
-352.246
-368.794
-384.696
-399.754
-413.819
-426.763
-438.461
-448.786
-457.604
-464.774
-470.151
-473.578
-474.885
-473.883
-470.685
-465.463
-458.365
-449.535
-439.107
-427.214
-413.985
-399.551
-384.046
-367.63
-350.515
-333.042
-315.843
-298.754
-281.686
-264.678
-247.875
-231.518
-215.939
-201.569
-188.93
-178.631
-171.33
-167.689
-168.281
-172.971
-181.146
-192.141
-205.304
-220.05
-235.88
-252.39
-269.274
-286.317
-303.403
-320.527
-337.821
-355.215
-372.156
-388.34
-403.568
-417.689
-430.568
-442.077
-452.086
-460.46
-467.063
-471.751
-474.371
-474.738
-472.836
-468.862
-462.982
-455.348
-446.105
-435.392
-423.34
-410.077
-395.727
-380.425
-364.332
-347.683
-330.89
-314.342
-297.835
-281.307
-264.811
-248.491
-232.583
-217.412
-203.396
-191.053
-180.98
-173.834
-170.269
-258.308
-256.058
-251.713
-245.235
-236.658
-226.096
-213.727
-199.785
-184.548
-168.326
-151.46
-134.338
-117.449
-101.518
-86.2901
-71.8423
-58.3187
-45.8673
-34.6213
-24.6935
-16.1742
-9.1308
-3.60777
0.37304
2.81315
3.7415
3.21517
1.196
-2.35462
-7.4448
-14.0579
-22.1537
-31.6684
-42.5139
-54.5782
-67.7273
-81.8109
-96.6795
-112.245
-128.726
-145.469
-161.944
-177.747
-192.526
-205.969
-217.798
-227.788
-235.771
-241.651
-245.409
-247.101
-246.845
-244.606
-240.279
-233.828
-225.293
-214.789
-202.502
-188.673
-173.588
-157.573
-140.991
-124.274
-108.026
-92.6293
-77.955
-64.108
-51.2383
-39.492
-28.9973
-19.8596
-12.1605
-5.95725
-1.28383
1.8496
3.45857
3.59239
2.25869
-0.597982
-4.99839
-10.9375
-18.3872
-27.2969
-37.5929
-49.1789
-61.9363
-75.7278
-90.4066
-105.847
-122.063
-139.055
-156.139
-172.859
-188.841
-203.751
-217.286
-229.181
-239.213
-247.221
-253.115
-256.878
-258.569
)
;

boundaryField
{
    top
    {
        type            fixedValue;
        value           uniform 0;
    }
    bottom
    {
        type            fixedFluxPressure;
        gradient        nonuniform List<scalar> 
102
(
0
0
0
0
0
0
0
0
0
0
0
0
0
0
0
0
0
0
0
0
0
0
0
0
0
0
0
0
0
0
0
0
0
0
0
0
0
0
0
0
0
0
0
0
0
0
0
0
0
0
0
0
0
0
0
0
0
0
0
0
0
0
0
0
0
0
0
0
0
0
0
0
0
0
0
0
0
0
0
0
0
0
0
0
0
0
0
0
0
0
0
0
0
0
0
0
0
0
0
0
0
-2.09937e-14
)
;
        value           nonuniform List<scalar> 
102
(
-960.93
-965.111
-972.746
-983.435
-996.607
-1011.6
-1027.94
-1045.73
-1066.11
-1090.78
-1120.76
-1155.36
-1192.91
-1231.72
-1270.07
-1306.35
-1339.19
-1367.74
-1391.2
-1408.57
-1419.95
-1426.28
-1428.9
-1429.32
-1428.89
-1428.46
-1428.39
-1428.53
-1428.24
-1426.36
-1421.41
-1411.88
-1396.71
-1375.27
-1348.25
-1316.62
-1281.2
-1243.26
-1204.5
-1166.74
-1131.7
-1100.99
-1075.44
-1054.45
-1036.62
-1020.71
-1006.43
-994.115
-984.367
-977.724
-974.56
-975.059
-979.19
-986.719
-997.218
-1010.12
-1024.86
-1041.21
-1059.74
-1081.84
-1108.81
-1140.82
-1176.76
-1214.98
-1253.7
-1291.11
-1325.61
-1356.06
-1381.68
-1401.42
-1414.97
-1423.12
-1427.09
-1428.39
-1428.48
-1428.35
-1428.52
-1429.01
-1429.31
-1428.44
-1424.96
-1417.36
-1404.43
-1385.35
-1360.39
-1330.61
-1296.72
-1259.72
-1221.07
-1182.44
-1145.53
-1112.03
-1083.51
-1060.18
-1040.67
-1023.34
-1007.35
-992.788
-980.231
-970.328
-963.608
-960.42
)
;
    }
    frontAndBack
    {
        type            empty;
    }
    left_cyc
    {
        type            cyclic;
    }
    right_cyc
    {
        type            cyclic;
    }
}


// ************************************************************************* //
