/*--------------------------------*- C++ -*----------------------------------*\
| =========                 |                                                 |
| \\      /  F ield         | OpenFOAM: The Open Source CFD Toolbox           |
|  \\    /   O peration     | Version:  2.3.0                                 |
|   \\  /    A nd           | Web:      www.OpenFOAM.org                      |
|    \\/     M anipulation  |                                                 |
\*---------------------------------------------------------------------------*/
FoamFile
{
    version     2.0;
    format      ascii;
    class       volScalarField;
    location    "10000";
    object      p_rgh;
}
// * * * * * * * * * * * * * * * * * * * * * * * * * * * * * * * * * * * * * //

dimensions      [0 2 -2 0 0 0 0];

internalField   nonuniform List<scalar> 
3060
(
0.16311
0.163079
0.163021
0.162938
0.162828
0.162692
0.162532
0.162346
0.162136
0.161902
0.161648
0.161376
0.161092
0.1608
0.16051
0.160231
0.159973
0.159744
0.159553
0.159403
0.159293
0.159217
0.159168
0.159139
0.159125
0.15912
0.159124
0.159138
0.159164
0.15921
0.159282
0.159387
0.159531
0.159717
0.159941
0.160196
0.160473
0.160763
0.161054
0.16134
0.161612
0.161866
0.162099
0.162308
0.162492
0.16265
0.162782
0.162888
0.162967
0.163018
0.163043
0.163039
0.163008
0.162949
0.162863
0.162751
0.162612
0.162447
0.162256
0.162041
0.161802
0.161543
0.161267
0.160979
0.160687
0.1604
0.160127
0.159879
0.159665
0.15949
0.159356
0.15926
0.159196
0.159156
0.159133
0.159122
0.15912
0.159127
0.159145
0.159179
0.159234
0.159318
0.159439
0.159599
0.1598
0.160037
0.160302
0.160585
0.160876
0.161167
0.161449
0.161716
0.161965
0.162193
0.162397
0.162576
0.16273
0.162859
0.162962
0.163039
0.16309
0.163113
0.162871
0.162844
0.162794
0.162719
0.162621
0.162499
0.162353
0.162184
0.161993
0.161781
0.161551
0.161307
0.161052
0.160794
0.160539
0.160294
0.160059
0.159841
0.159654
0.159506
0.159395
0.159317
0.159264
0.159231
0.159212
0.159206
0.159211
0.159228
0.159259
0.159309
0.159383
0.159489
0.159632
0.159813
0.160027
0.16026
0.160505
0.160758
0.161016
0.16127
0.161515
0.161744
0.161955
0.162145
0.162312
0.162456
0.162574
0.162669
0.162739
0.162784
0.162806
0.162802
0.162775
0.162723
0.162647
0.162546
0.162421
0.162271
0.162098
0.161903
0.161686
0.161453
0.161205
0.160949
0.160692
0.16044
0.160199
0.159969
0.159763
0.159591
0.159458
0.159361
0.159294
0.159249
0.159222
0.159209
0.159206
0.159216
0.159238
0.159276
0.159335
0.159421
0.159541
0.159699
0.159895
0.160119
0.160357
0.160605
0.160861
0.161119
0.161372
0.161613
0.161838
0.162045
0.16223
0.162393
0.162533
0.162649
0.162741
0.162809
0.162854
0.162874
0.162734
0.162706
0.162653
0.162576
0.162476
0.162355
0.162213
0.162053
0.161877
0.161687
0.161485
0.161273
0.161051
0.160821
0.160584
0.160348
0.160125
0.159929
0.159763
0.159622
0.159507
0.159424
0.159367
0.15933
0.159308
0.1593
0.159306
0.159326
0.159361
0.159415
0.159494
0.159604
0.159741
0.159903
0.160094
0.160313
0.160547
0.160783
0.161013
0.161234
0.161446
0.161647
0.161835
0.162009
0.162167
0.162306
0.162424
0.16252
0.162592
0.162639
0.162661
0.162658
0.162629
0.162575
0.162497
0.162396
0.162272
0.162128
0.161965
0.161787
0.161596
0.161392
0.161178
0.160954
0.160722
0.160486
0.160254
0.160042
0.159858
0.159703
0.159572
0.159471
0.159399
0.15935
0.159319
0.159303
0.159301
0.159312
0.159338
0.15938
0.159443
0.159534
0.159656
0.159803
0.159977
0.160181
0.160409
0.160646
0.160881
0.16111
0.161329
0.161539
0.161738
0.161924
0.162096
0.162252
0.162388
0.162505
0.162599
0.162669
0.162715
0.162737
0.162922
0.162892
0.162837
0.162756
0.162652
0.162526
0.16238
0.162216
0.162038
0.161847
0.161646
0.161437
0.161221
0.160998
0.160771
0.160544
0.160325
0.160119
0.159932
0.159777
0.159657
0.159563
0.159496
0.159452
0.159425
0.159415
0.159422
0.159446
0.159488
0.159551
0.159641
0.159756
0.159904
0.160087
0.16029
0.160506
0.160732
0.160959
0.161181
0.161396
0.161604
0.161804
0.161993
0.16217
0.162331
0.162474
0.162597
0.162696
0.162772
0.162822
0.162845
0.162842
0.162811
0.162755
0.162673
0.162567
0.162439
0.162291
0.162125
0.161945
0.161753
0.161551
0.161341
0.161124
0.1609
0.160673
0.160449
0.160236
0.160037
0.159862
0.159723
0.159615
0.159532
0.159475
0.159439
0.159419
0.159416
0.15943
0.159461
0.159511
0.159585
0.159685
0.159813
0.159978
0.160171
0.160381
0.160603
0.160831
0.161057
0.161278
0.161492
0.161699
0.161898
0.162086
0.162261
0.16242
0.162561
0.162682
0.162779
0.162853
0.162902
0.162925
0.163226
0.163196
0.16314
0.16306
0.162955
0.162829
0.162683
0.162518
0.162338
0.162144
0.161938
0.161722
0.161498
0.161269
0.161038
0.160809
0.160589
0.160377
0.160173
0.159989
0.15984
0.159731
0.159652
0.159597
0.159562
0.159549
0.159559
0.15959
0.159641
0.159716
0.159819
0.15996
0.160138
0.160341
0.160551
0.16077
0.160997
0.161228
0.161457
0.16168
0.161896
0.162101
0.162294
0.162472
0.162634
0.162778
0.1629
0.163
0.163076
0.163126
0.163149
0.163146
0.163115
0.163059
0.162976
0.162871
0.162742
0.162594
0.162427
0.162245
0.162049
0.161841
0.161623
0.161398
0.161168
0.160937
0.160712
0.160496
0.160287
0.160089
0.159919
0.159789
0.159694
0.159626
0.15958
0.159554
0.15955
0.159569
0.159609
0.15967
0.159756
0.159875
0.160033
0.160225
0.160432
0.160645
0.160868
0.161098
0.161329
0.161557
0.161779
0.161992
0.162196
0.162386
0.162563
0.162723
0.162864
0.162985
0.163083
0.163157
0.163206
0.16323
0.163548
0.163516
0.163459
0.163375
0.163268
0.163139
0.162989
0.162821
0.162636
0.162438
0.162227
0.162006
0.161777
0.161542
0.161302
0.161063
0.160829
0.160604
0.160393
0.160202
0.160035
0.159909
0.159819
0.159758
0.159718
0.159701
0.159713
0.159749
0.159806
0.15989
0.160008
0.160168
0.160357
0.160565
0.160788
0.161021
0.16126
0.161499
0.161735
0.161964
0.162185
0.162395
0.162592
0.162775
0.16294
0.163087
0.163213
0.163316
0.163394
0.163446
0.16347
0.163467
0.163435
0.163376
0.163292
0.163183
0.163051
0.162899
0.162729
0.162542
0.162341
0.162128
0.161905
0.161674
0.161437
0.161198
0.16096
0.160729
0.160509
0.160306
0.160123
0.159974
0.159865
0.159789
0.159738
0.159707
0.159703
0.159726
0.159772
0.15984
0.159938
0.160075
0.160249
0.160446
0.160661
0.160889
0.161125
0.161365
0.161603
0.161838
0.162065
0.162283
0.162491
0.162686
0.162866
0.16303
0.163174
0.163298
0.163399
0.163476
0.163527
0.163551
0.163876
0.163844
0.163783
0.163696
0.163585
0.16345
0.163295
0.163122
0.162932
0.162728
0.162511
0.162284
0.162047
0.161803
0.161555
0.161303
0.161054
0.16081
0.16058
0.16037
0.160191
0.160058
0.159971
0.159913
0.159875
0.159858
0.15987
0.159904
0.159958
0.160038
0.160162
0.160333
0.160539
0.160768
0.16101
0.161259
0.161511
0.16176
0.162004
0.162241
0.162469
0.162685
0.162888
0.163077
0.163248
0.1634
0.163531
0.163638
0.163719
0.163773
0.163799
0.163795
0.163762
0.163701
0.163612
0.163499
0.163363
0.163205
0.163029
0.162837
0.16263
0.162411
0.162181
0.161941
0.161696
0.161445
0.161194
0.160946
0.160707
0.160483
0.160285
0.160125
0.160013
0.159942
0.159893
0.159864
0.15986
0.159883
0.159926
0.159991
0.160088
0.160234
0.160422
0.160638
0.160873
0.161118
0.161369
0.16162
0.161867
0.16211
0.162344
0.162569
0.162782
0.162983
0.163169
0.163338
0.163487
0.163616
0.163721
0.163802
0.163855
0.16388
0.164192
0.164158
0.164093
0.164001
0.163884
0.163742
0.16358
0.1634
0.163202
0.162991
0.162767
0.162533
0.162288
0.162036
0.161777
0.161514
0.161249
0.160989
0.160739
0.160509
0.16031
0.160159
0.160072
0.160028
0.160001
0.15999
0.159997
0.16002
0.160059
0.160136
0.160276
0.160469
0.160696
0.160943
0.161203
0.161468
0.161732
0.161992
0.162245
0.16249
0.162725
0.162949
0.16316
0.163356
0.163535
0.163694
0.163831
0.163944
0.164031
0.164088
0.164116
0.164112
0.164076
0.164011
0.163918
0.163798
0.163655
0.16349
0.163307
0.163107
0.162892
0.162665
0.162427
0.16218
0.161925
0.161664
0.161399
0.161135
0.160877
0.160634
0.160415
0.160234
0.16011
0.160047
0.160013
0.159993
0.159991
0.160007
0.160037
0.160089
0.160192
0.160358
0.160567
0.160803
0.161056
0.161318
0.161583
0.161845
0.162103
0.162353
0.162595
0.162827
0.163047
0.163255
0.163448
0.163624
0.163781
0.163917
0.164028
0.164113
0.16417
0.164196
0.164489
0.164451
0.164382
0.164283
0.164157
0.164006
0.163835
0.163644
0.163438
0.163218
0.162985
0.162743
0.16249
0.162229
0.161961
0.161685
0.161407
0.161131
0.160864
0.160614
0.160395
0.160221
0.160113
0.160069
0.160054
0.160049
0.160051
0.160063
0.160098
0.160193
0.160357
0.160571
0.160817
0.161083
0.161359
0.161638
0.161914
0.162185
0.162447
0.162701
0.162945
0.163178
0.163398
0.163603
0.163792
0.163961
0.164107
0.164229
0.164322
0.164384
0.164414
0.164409
0.164371
0.1643
0.1642
0.164072
0.163919
0.163745
0.163551
0.163342
0.163118
0.162883
0.162636
0.16238
0.162115
0.161843
0.161565
0.161286
0.161012
0.160751
0.160512
0.160309
0.160161
0.160084
0.160059
0.16005
0.160049
0.160057
0.160076
0.160134
0.16026
0.160448
0.160677
0.160932
0.161202
0.16148
0.161758
0.162032
0.162298
0.162557
0.162807
0.163047
0.163276
0.163493
0.163696
0.163881
0.164048
0.164192
0.164311
0.164403
0.164464
0.164493
0.164764
0.164723
0.164647
0.164539
0.164401
0.164239
0.164055
0.163852
0.163633
0.163402
0.16316
0.162908
0.162647
0.162377
0.162099
0.161813
0.161522
0.161233
0.16095
0.160683
0.160443
0.160247
0.16011
0.160042
0.160021
0.160017
0.160019
0.160034
0.16009
0.160215
0.160402
0.160636
0.1609
0.161182
0.161472
0.161764
0.162052
0.162333
0.162605
0.162868
0.163121
0.163365
0.163596
0.163814
0.164016
0.164198
0.164356
0.164488
0.16459
0.164659
0.164691
0.164686
0.164644
0.164567
0.164457
0.164318
0.164153
0.163965
0.163759
0.163537
0.163303
0.163056
0.1628
0.162535
0.16226
0.161978
0.161688
0.161397
0.161108
0.160829
0.160572
0.160349
0.160176
0.16007
0.160027
0.160018
0.160018
0.160024
0.160054
0.160139
0.160293
0.160502
0.16075
0.161022
0.161308
0.161598
0.161888
0.162172
0.162448
0.162716
0.162974
0.163224
0.163463
0.163692
0.163906
0.164105
0.164284
0.16444
0.16457
0.16467
0.164737
0.164769
0.165022
0.164976
0.164891
0.164771
0.16462
0.164442
0.164241
0.164022
0.163789
0.163544
0.163289
0.163026
0.162755
0.162476
0.162189
0.161894
0.161593
0.161292
0.160996
0.160714
0.160458
0.16024
0.160077
0.159978
0.159935
0.159924
0.15993
0.159965
0.160052
0.160204
0.160414
0.160665
0.160945
0.16124
0.161543
0.161845
0.162143
0.162433
0.162715
0.162988
0.163254
0.16351
0.163756
0.16399
0.164208
0.164406
0.16458
0.164726
0.164839
0.164916
0.164952
0.164946
0.164899
0.164813
0.164691
0.164538
0.164357
0.164153
0.163931
0.163693
0.163444
0.163186
0.162918
0.162643
0.162359
0.162066
0.161767
0.161464
0.161162
0.16087
0.160597
0.160355
0.160159
0.160023
0.159952
0.159927
0.159925
0.159942
0.159998
0.160113
0.160292
0.160521
0.160786
0.161072
0.16137
0.161672
0.161971
0.162265
0.16255
0.162827
0.163095
0.163356
0.163608
0.163851
0.164081
0.164295
0.164491
0.164662
0.164806
0.164917
0.164992
0.165028
0.165268
0.165216
0.165121
0.164986
0.164817
0.16462
0.164399
0.16416
0.163907
0.163645
0.163375
0.1631
0.162818
0.162529
0.162233
0.16193
0.161622
0.161311
0.161006
0.160712
0.160442
0.160208
0.160023
0.159899
0.159832
0.159811
0.159825
0.159881
0.159995
0.160169
0.160396
0.160662
0.160953
0.161259
0.161571
0.161882
0.162188
0.162488
0.16278
0.163065
0.163344
0.163617
0.163881
0.164134
0.164372
0.164591
0.164784
0.164948
0.165074
0.16516
0.165201
0.165195
0.165142
0.165045
0.164909
0.164737
0.164536
0.164312
0.164069
0.163813
0.163547
0.163273
0.162992
0.162705
0.162411
0.162109
0.161801
0.16149
0.161179
0.160876
0.16059
0.160333
0.160118
0.159959
0.159861
0.159818
0.159813
0.159845
0.159925
0.160066
0.160265
0.160509
0.160787
0.161084
0.161392
0.161702
0.16201
0.162311
0.162605
0.162892
0.163172
0.163446
0.163714
0.163974
0.164223
0.164458
0.164674
0.164864
0.165025
0.16515
0.165234
0.165274
0.165508
0.165449
0.165341
0.165189
0.164999
0.164778
0.164533
0.16427
0.163995
0.163712
0.163424
0.163133
0.162838
0.16254
0.162235
0.161925
0.16161
0.161294
0.160982
0.160681
0.160402
0.160156
0.159957
0.159814
0.159731
0.159701
0.159721
0.159794
0.159926
0.160116
0.160355
0.160631
0.16093
0.161243
0.161561
0.161878
0.162192
0.162501
0.162804
0.163103
0.163398
0.16369
0.163975
0.164252
0.164514
0.164758
0.164975
0.165158
0.165302
0.165399
0.165446
0.165439
0.165378
0.165269
0.165114
0.164921
0.164697
0.164448
0.164181
0.163902
0.163615
0.163322
0.163026
0.162726
0.162422
0.162111
0.161796
0.161478
0.161161
0.16085
0.160556
0.160289
0.160062
0.159886
0.159769
0.159711
0.159704
0.159747
0.159846
0.160004
0.160216
0.160472
0.160758
0.161063
0.161377
0.161693
0.162006
0.162315
0.162618
0.162915
0.163209
0.163499
0.163786
0.164067
0.16434
0.164599
0.164838
0.165052
0.165233
0.165374
0.16547
0.165515
0.165749
0.165682
0.165559
0.165387
0.165172
0.164924
0.16465
0.164359
0.164058
0.16375
0.163441
0.163132
0.162823
0.162513
0.1622
0.161884
0.161566
0.161246
0.160931
0.160627
0.160343
0.160092
0.159884
0.159731
0.159637
0.159603
0.159626
0.159709
0.159852
0.160051
0.160297
0.160577
0.16088
0.161196
0.161518
0.161841
0.162161
0.162479
0.162794
0.163108
0.163422
0.163736
0.164046
0.16435
0.164641
0.164913
0.165157
0.165364
0.165527
0.165637
0.16569
0.165682
0.165614
0.165489
0.165314
0.165097
0.164845
0.164567
0.164272
0.163966
0.163654
0.163341
0.163027
0.162712
0.162396
0.162078
0.161757
0.161434
0.161113
0.1608
0.160502
0.160229
0.159995
0.159809
0.159682
0.159615
0.159606
0.159656
0.159765
0.159933
0.160153
0.160414
0.160704
0.161012
0.161329
0.161649
0.161967
0.162282
0.162594
0.162904
0.163213
0.163522
0.163831
0.164137
0.164437
0.164724
0.164991
0.165232
0.165436
0.165596
0.165705
0.165757
0.165994
0.165918
0.165779
0.165584
0.165342
0.165064
0.164759
0.164436
0.164104
0.163769
0.163436
0.163106
0.162781
0.162458
0.162137
0.161816
0.161494
0.161174
0.160859
0.160555
0.160273
0.160021
0.159811
0.159653
0.159554
0.159517
0.159543
0.159631
0.159779
0.159982
0.160228
0.160508
0.16081
0.161126
0.16145
0.161776
0.162102
0.162429
0.162757
0.163089
0.163424
0.163763
0.164102
0.164436
0.16476
0.165063
0.165337
0.165571
0.165755
0.165881
0.16594
0.165931
0.165854
0.165713
0.165515
0.16527
0.164987
0.164677
0.16435
0.164014
0.163675
0.163337
0.163002
0.162672
0.162344
0.162017
0.161691
0.161366
0.161043
0.16073
0.160433
0.16016
0.159924
0.159735
0.159602
0.15953
0.159521
0.159574
0.159688
0.159861
0.160083
0.160344
0.160633
0.16094
0.161257
0.161578
0.1619
0.162221
0.162542
0.162865
0.163192
0.163522
0.163857
0.164191
0.164521
0.16484
0.165139
0.165409
0.16564
0.165821
0.165944
0.166003
0.166249
0.166163
0.166006
0.165787
0.165515
0.165204
0.164865
0.164508
0.164143
0.163778
0.163417
0.163065
0.162721
0.162385
0.162055
0.161729
0.161407
0.161088
0.160776
0.160477
0.160198
0.15995
0.159742
0.159584
0.159484
0.159446
0.159473
0.159563
0.159712
0.159913
0.160156
0.160432
0.160731
0.161044
0.161366
0.161694
0.162025
0.162361
0.162704
0.163055
0.163414
0.163781
0.164151
0.164519
0.164877
0.165215
0.165521
0.165784
0.165991
0.166132
0.1662
0.16619
0.166103
0.165943
0.165721
0.165446
0.16513
0.164786
0.164424
0.164055
0.163685
0.16332
0.162963
0.162614
0.162273
0.161939
0.161608
0.161282
0.160962
0.160652
0.160358
0.16009
0.159856
0.159668
0.159534
0.15946
0.15945
0.159504
0.15962
0.159792
0.160011
0.160268
0.160553
0.160856
0.16117
0.16149
0.161814
0.162141
0.162472
0.16281
0.163156
0.163511
0.163873
0.164239
0.164602
0.164955
0.165289
0.16559
0.165849
0.166053
0.166192
0.166259
0.166515
0.166419
0.166243
0.165999
0.165697
0.165352
0.164977
0.164584
0.164185
0.163789
0.1634
0.163023
0.16266
0.162309
0.16197
0.161639
0.161316
0.160999
0.160692
0.1604
0.160128
0.159886
0.159684
0.159529
0.15943
0.159393
0.15942
0.159509
0.159656
0.159852
0.16009
0.160359
0.160652
0.16096
0.16128
0.161609
0.161946
0.162292
0.16265
0.163021
0.163405
0.163801
0.164204
0.164607
0.165001
0.165374
0.165714
0.166007
0.166238
0.166396
0.166472
0.166461
0.166363
0.166185
0.165936
0.16563
0.16528
0.1649
0.164503
0.164099
0.163697
0.163304
0.162923
0.162556
0.162201
0.161857
0.161523
0.161196
0.160879
0.160574
0.160287
0.160025
0.159797
0.159612
0.15948
0.159407
0.159397
0.15945
0.159564
0.159732
0.159946
0.160196
0.160474
0.160771
0.161081
0.161399
0.161725
0.162057
0.162399
0.162753
0.16312
0.1635
0.163892
0.16429
0.164688
0.165077
0.165445
0.16578
0.166068
0.166296
0.166452
0.166527
0.166797
0.16669
0.166495
0.166225
0.165894
0.165515
0.165105
0.164678
0.164244
0.163816
0.163398
0.162996
0.162611
0.162245
0.161896
0.16156
0.161235
0.160921
0.16062
0.160335
0.160072
0.159839
0.159643
0.159494
0.159399
0.159363
0.159389
0.159476
0.159618
0.159808
0.160037
0.160299
0.160584
0.160888
0.161206
0.161536
0.161878
0.162235
0.162609
0.163002
0.163413
0.163838
0.164274
0.164711
0.165141
0.16555
0.165922
0.166244
0.1665
0.166675
0.166759
0.166747
0.166638
0.166441
0.166167
0.16583
0.165446
0.165031
0.164598
0.16416
0.163727
0.163304
0.162898
0.16251
0.162141
0.161788
0.161449
0.161122
0.160807
0.160508
0.160228
0.159974
0.159754
0.159576
0.159448
0.159376
0.159366
0.159418
0.159528
0.15969
0.159896
0.160138
0.160407
0.160697
0.161002
0.161319
0.161646
0.161986
0.162339
0.16271
0.163099
0.163505
0.163927
0.164357
0.16479
0.165214
0.165617
0.165985
0.166302
0.166554
0.166726
0.166809
0.167095
0.166978
0.166766
0.166473
0.166113
0.165703
0.16526
0.1648
0.164334
0.163874
0.163428
0.163001
0.162595
0.162213
0.161852
0.161509
0.161182
0.16087
0.160574
0.160297
0.160043
0.159819
0.159632
0.15949
0.159398
0.159364
0.15939
0.159473
0.159609
0.159792
0.160013
0.160266
0.160544
0.160843
0.161159
0.161492
0.161841
0.16221
0.162601
0.163016
0.163452
0.163907
0.164374
0.164845
0.165308
0.165749
0.166153
0.166502
0.16678
0.166971
0.167064
0.16705
0.166931
0.166716
0.166418
0.166053
0.165638
0.16519
0.164723
0.164252
0.163788
0.163337
0.162906
0.162497
0.162112
0.161749
0.161404
0.161075
0.160763
0.16047
0.160197
0.159952
0.15974
0.159569
0.159446
0.159377
0.159367
0.159417
0.159522
0.159677
0.159874
0.160106
0.160367
0.160649
0.16095
0.161266
0.161597
0.161944
0.16231
0.162699
0.16311
0.163543
0.163993
0.164455
0.164921
0.165378
0.165814
0.166212
0.166556
0.16683
0.167018
0.167109
0.167412
0.167286
0.167059
0.166745
0.166361
0.165925
0.165454
0.164965
0.16447
0.163982
0.16351
0.163058
0.162632
0.162233
0.16186
0.16151
0.161179
0.160868
0.160576
0.160305
0.16006
0.159845
0.159667
0.159531
0.159445
0.159412
0.159437
0.159517
0.159647
0.159822
0.160035
0.16028
0.160552
0.160847
0.161163
0.161499
0.161857
0.162239
0.162646
0.163082
0.163543
0.164025
0.164521
0.165021
0.165513
0.165983
0.166413
0.166785
0.167083
0.167288
0.167387
0.167372
0.167244
0.167014
0.166695
0.166306
0.165864
0.165387
0.164892
0.164392
0.163899
0.163421
0.162967
0.162538
0.162137
0.161762
0.16141
0.161079
0.160768
0.160479
0.160213
0.159976
0.159773
0.159609
0.159492
0.159426
0.159415
0.159462
0.159562
0.159709
0.159898
0.160121
0.160374
0.16065
0.160947
0.161264
0.161599
0.161955
0.162335
0.162741
0.163174
0.163631
0.164109
0.164599
0.165093
0.16558
0.166043
0.166467
0.166835
0.167128
0.16733
0.167427
0.167749
0.167617
0.167378
0.167049
0.166647
0.166191
0.165699
0.165187
0.16467
0.16416
0.163665
0.163193
0.162748
0.162334
0.161949
0.16159
0.161255
0.160942
0.160653
0.160387
0.160149
0.159943
0.159772
0.159643
0.159561
0.159531
0.159555
0.159631
0.159756
0.159924
0.160129
0.160367
0.160634
0.160927
0.161244
0.161586
0.161953
0.162347
0.162771
0.163225
0.163707
0.164212
0.16473
0.165253
0.165767
0.166258
0.166708
0.167098
0.16741
0.167626
0.16773
0.167714
0.16758
0.167338
0.167004
0.166596
0.166134
0.165636
0.165118
0.164595
0.164079
0.16358
0.163104
0.162657
0.162242
0.161855
0.161495
0.16116
0.160849
0.160562
0.160302
0.160072
0.159876
0.159719
0.159607
0.159543
0.159533
0.159578
0.159672
0.159813
0.159993
0.160209
0.160454
0.160726
0.161021
0.16134
0.161681
0.162047
0.162439
0.162861
0.163314
0.163792
0.164292
0.164805
0.165322
0.16583
0.166314
0.166758
0.167142
0.16745
0.167662
0.167765
0.168107
0.16797
0.167725
0.167388
0.166976
0.16651
0.166007
0.165483
0.164952
0.164428
0.163918
0.163432
0.162973
0.162547
0.162151
0.161783
0.161443
0.161129
0.16084
0.160579
0.160347
0.160146
0.159983
0.159859
0.159781
0.159752
0.159776
0.15985
0.15997
0.160131
0.160331
0.160564
0.160828
0.16112
0.161439
0.161786
0.162161
0.162566
0.163003
0.163472
0.163969
0.164488
0.16502
0.165556
0.166083
0.166585
0.167045
0.167445
0.167765
0.167986
0.168094
0.168078
0.167939
0.167691
0.167348
0.166931
0.166458
0.165948
0.165418
0.164882
0.164352
0.163838
0.163347
0.162886
0.162458
0.162061
0.161694
0.161354
0.161041
0.160757
0.1605
0.160276
0.160086
0.159934
0.159826
0.159765
0.159755
0.159797
0.159887
0.160021
0.160195
0.160404
0.160644
0.160913
0.161208
0.161529
0.161876
0.162251
0.162655
0.16309
0.163556
0.164049
0.164564
0.165091
0.16562
0.16614
0.166636
0.16709
0.167484
0.167799
0.168017
0.168123
0.168485
0.168348
0.168103
0.167766
0.167356
0.166892
0.16639
0.165867
0.165336
0.16481
0.164297
0.163805
0.16334
0.162907
0.162505
0.162132
0.161788
0.161473
0.161185
0.160927
0.160699
0.160504
0.160346
0.160227
0.160153
0.160125
0.160148
0.16022
0.160336
0.160493
0.160688
0.160917
0.161178
0.16147
0.161791
0.162141
0.162522
0.162933
0.163376
0.163851
0.164353
0.164876
0.16541
0.165946
0.166472
0.166973
0.167431
0.16783
0.168149
0.168371
0.168479
0.168463
0.168324
0.168075
0.167733
0.167318
0.166846
0.166338
0.165808
0.165271
0.164739
0.164221
0.163726
0.163259
0.162824
0.16242
0.162047
0.161705
0.161391
0.161107
0.160854
0.160634
0.160448
0.160302
0.160197
0.160138
0.160128
0.160168
0.160254
0.160383
0.160551
0.160755
0.160991
0.161257
0.161552
0.161875
0.162227
0.162607
0.163017
0.163459
0.163931
0.164429
0.164946
0.165475
0.166004
0.166523
0.167017
0.167469
0.167862
0.168177
0.168395
0.168502
0.168884
0.168751
0.168514
0.168189
0.167793
0.167345
0.166861
0.166355
0.165841
0.165328
0.164827
0.164344
0.163886
0.163456
0.163055
0.162683
0.162341
0.162027
0.161743
0.161488
0.161265
0.161076
0.160923
0.160809
0.160737
0.160712
0.160734
0.160804
0.160916
0.161068
0.161258
0.161483
0.16174
0.162029
0.162348
0.162698
0.163077
0.163487
0.163926
0.164395
0.164888
0.165398
0.165918
0.166437
0.166946
0.167429
0.167871
0.168256
0.168564
0.168779
0.168884
0.168868
0.168733
0.168493
0.168163
0.167762
0.167307
0.166816
0.166304
0.165783
0.165265
0.164758
0.164271
0.16381
0.163378
0.162976
0.162604
0.162263
0.161951
0.16167
0.161421
0.161206
0.161025
0.160883
0.160781
0.160724
0.160714
0.160752
0.160835
0.160959
0.161122
0.16132
0.161552
0.161814
0.162106
0.162427
0.162777
0.163157
0.163565
0.164003
0.164468
0.164957
0.165461
0.165975
0.166488
0.16699
0.167466
0.167902
0.168281
0.168585
0.168797
0.1689
0.169304
0.16918
0.16896
0.168658
0.168292
0.167877
0.167429
0.16696
0.166483
0.166005
0.165535
0.16508
0.164644
0.164233
0.163847
0.163487
0.163155
0.162851
0.162576
0.16233
0.162116
0.161934
0.161788
0.16168
0.161612
0.161587
0.161609
0.161676
0.161783
0.16193
0.162112
0.162329
0.162577
0.162857
0.163167
0.163505
0.163872
0.164267
0.164687
0.165132
0.165597
0.166075
0.166559
0.167042
0.167513
0.167961
0.16837
0.168726
0.169012
0.169212
0.16931
0.169295
0.169169
0.168946
0.16864
0.168268
0.167848
0.167393
0.166918
0.166434
0.16595
0.165475
0.165015
0.164577
0.164162
0.163775
0.163415
0.163084
0.162782
0.16251
0.162269
0.162061
0.161888
0.161752
0.161654
0.161599
0.161589
0.161625
0.161704
0.161822
0.161978
0.162168
0.162391
0.162644
0.162927
0.163239
0.163578
0.163945
0.164338
0.164756
0.165197
0.165656
0.166129
0.166607
0.167084
0.167549
0.167989
0.168393
0.168744
0.169025
0.169222
0.169319
0.169742
0.169633
0.16944
0.169176
0.168855
0.168493
0.168102
0.167693
0.167274
0.166855
0.16644
0.166036
0.165646
0.165273
0.164921
0.164591
0.164284
0.164003
0.163748
0.163521
0.163323
0.163155
0.16302
0.16292
0.162858
0.162836
0.162856
0.162918
0.163017
0.163153
0.163322
0.163523
0.163753
0.164012
0.164299
0.164611
0.164948
0.165308
0.165689
0.166087
0.166499
0.166921
0.167347
0.16777
0.168181
0.168572
0.16893
0.169241
0.169492
0.169668
0.169754
0.169741
0.16963
0.169434
0.169166
0.168841
0.168474
0.168076
0.167661
0.167237
0.166811
0.166392
0.165983
0.165589
0.165213
0.164859
0.164528
0.164222
0.163942
0.163691
0.163468
0.163275
0.163114
0.162988
0.162898
0.162847
0.162837
0.16287
0.162943
0.163052
0.163195
0.163371
0.163577
0.163812
0.164074
0.164362
0.164674
0.165011
0.165369
0.165746
0.16614
0.166547
0.166964
0.167384
0.1678
0.168206
0.168591
0.168943
0.16925
0.169498
0.16967
0.169755
0.170199
0.170111
0.169954
0.169741
0.169484
0.169194
0.168882
0.168555
0.168221
0.167886
0.167554
0.167228
0.16691
0.166602
0.166308
0.16603
0.165771
0.165532
0.165315
0.165121
0.164952
0.164808
0.164692
0.164607
0.164553
0.164535
0.164553
0.164606
0.164692
0.164808
0.164953
0.165125
0.165322
0.165543
0.165787
0.166051
0.166334
0.166635
0.166949
0.167274
0.167607
0.167945
0.168286
0.168624
0.168952
0.169265
0.169551
0.169802
0.170004
0.170146
0.170217
0.170206
0.170116
0.169957
0.169741
0.16948
0.169186
0.168868
0.168537
0.168198
0.167857
0.16752
0.167189
0.166867
0.166556
0.166259
0.16598
0.165721
0.165484
0.165269
0.165078
0.164913
0.164775
0.164666
0.164589
0.164544
0.164536
0.164564
0.164626
0.16472
0.164843
0.164993
0.165169
0.16537
0.165593
0.165837
0.166101
0.166383
0.166681
0.166991
0.167312
0.16764
0.167973
0.168309
0.168641
0.168965
0.169273
0.169555
0.169802
0.170001
0.170141
0.17021
0.170673
0.170611
0.170501
0.170354
0.170177
0.169978
0.169766
0.169545
0.169321
0.169096
0.168873
0.168654
0.168437
0.168224
0.168017
0.16782
0.167636
0.167465
0.167308
0.167168
0.167044
0.16694
0.166855
0.166792
0.166753
0.166739
0.166753
0.166792
0.166855
0.166941
0.167047
0.167173
0.167316
0.167475
0.16765
0.167839
0.16804
0.168252
0.16847
0.168692
0.168917
0.169144
0.169373
0.169601
0.169823
0.170036
0.170233
0.170406
0.170547
0.170646
0.170696
0.170688
0.170625
0.170514
0.170364
0.170184
0.169982
0.169766
0.169542
0.169314
0.169085
0.168858
0.168634
0.168414
0.168196
0.167987
0.167789
0.167604
0.167432
0.167277
0.167138
0.167018
0.166917
0.166837
0.166779
0.166747
0.16674
0.166761
0.166806
0.166875
0.166965
0.167075
0.167203
0.167347
0.167508
0.167683
0.16787
0.16807
0.168278
0.168493
0.16871
0.168931
0.169155
0.169379
0.169603
0.169822
0.170031
0.170225
0.170395
0.170534
0.170632
0.170681
0.171163
0.171132
0.171079
0.171009
0.170927
0.170838
0.170745
0.170651
0.170559
0.170468
0.17038
0.170293
0.170207
0.170118
0.17003
0.169945
0.169864
0.169789
0.16972
0.169657
0.169601
0.169553
0.169514
0.169484
0.169466
0.169459
0.169466
0.169485
0.169515
0.169555
0.169605
0.169662
0.169727
0.169798
0.169876
0.169959
0.170047
0.170138
0.17023
0.17032
0.17041
0.170501
0.170595
0.17069
0.170786
0.17088
0.170969
0.17105
0.171117
0.171166
0.17119
0.171187
0.171155
0.171101
0.17103
0.170947
0.170856
0.170761
0.170665
0.17057
0.170477
0.170386
0.170297
0.170207
0.170114
0.170024
0.169937
0.169855
0.169779
0.169709
0.169646
0.169591
0.169544
0.169506
0.169479
0.169463
0.16946
0.169469
0.169491
0.169523
0.169565
0.169615
0.169672
0.169737
0.169808
0.169885
0.169966
0.170052
0.170141
0.170229
0.170315
0.170402
0.170491
0.170583
0.170676
0.170769
0.170862
0.170949
0.171028
0.171094
0.171142
0.171166
0.171666
0.171671
0.171683
0.171701
0.171728
0.171762
0.171804
0.171854
0.17191
0.171971
0.172037
0.172104
0.17217
0.172232
0.172291
0.172347
0.1724
0.172448
0.172492
0.172531
0.172565
0.172592
0.172614
0.172629
0.172638
0.172641
0.172639
0.17263
0.172616
0.172595
0.172569
0.172536
0.172498
0.172455
0.172407
0.172356
0.172301
0.172243
0.172182
0.172116
0.172051
0.171987
0.171927
0.171873
0.171825
0.171785
0.171753
0.171729
0.171712
0.171702
0.171698
0.171699
0.171704
0.171716
0.171734
0.171761
0.171795
0.171837
0.171886
0.171942
0.172003
0.172068
0.172133
0.172198
0.172258
0.172315
0.172369
0.17242
0.172467
0.172509
0.172545
0.172576
0.172601
0.17262
0.172633
0.17264
0.172641
0.172636
0.172625
0.172609
0.172586
0.172557
0.172522
0.172481
0.172436
0.172386
0.172333
0.172276
0.172216
0.172153
0.172086
0.172019
0.171955
0.171895
0.17184
0.171792
0.171752
0.17172
0.171696
0.171679
0.171669
0.171665
)
;

boundaryField
{
    top
    {
        type            fixedFluxPressure;
        gradient        nonuniform List<scalar> 
102
(
0.0156859
0.0168724
0.0189806
0.0218652
0.0253749
0.029365
0.0337062
0.0382879
0.0430204
0.0478348
0.0526852
0.0575538
0.062471
0.0675734
0.0726321
0.0775335
0.0822055
0.0865902
0.0906353
0.0942906
0.0975074
0.100238
0.102438
0.104063
0.105072
0.105426
0.10509
0.104093
0.102473
0.100269
0.0975248
0.0942842
0.0905945
0.0865049
0.0820662
0.0773326
0.0723645
0.0672386
0.0620777
0.0570994
0.0521711
0.0472669
0.0424092
0.0376498
0.0330636
0.0287473
0.0248186
0.0214133
0.0186809
0.0167746
0.0158369
0.0159806
0.0171813
0.0193158
0.0222371
0.0257918
0.0298332
0.0342298
0.0388694
0.043661
0.0485356
0.0534489
0.05839
0.063409
0.0685769
0.0736711
0.0785852
0.0832481
0.0876015
0.0915923
0.0951701
0.0982864
0.100895
0.102951
0.104413
0.105242
0.105399
0.104871
0.103698
0.101919
0.0995771
0.0967152
0.0933796
0.0896181
0.0854798
0.0810152
0.0762783
0.0713305
0.0662546
0.0612005
0.0562932
0.0514251
0.0465786
0.0417787
0.0370772
0.0325482
0.0282867
0.0244083
0.021047
0.01835
0.0164684
0.0155431
)
;
        value           nonuniform List<scalar> 
102
(
0.171927
0.171952
0.171999
0.172066
0.17215
0.172251
0.172366
0.172492
0.172627
0.172769
0.172915
0.173063
0.173211
0.173358
0.173501
0.173639
0.17377
0.173891
0.174003
0.174103
0.17419
0.174263
0.174321
0.174363
0.174389
0.174398
0.17439
0.174365
0.174324
0.174267
0.174194
0.174108
0.174008
0.173897
0.173775
0.173645
0.173507
0.173363
0.173217
0.173068
0.17292
0.172775
0.172634
0.1725
0.172376
0.172264
0.172167
0.172086
0.172024
0.171982
0.171962
0.171965
0.171991
0.172038
0.172105
0.17219
0.172292
0.172408
0.172534
0.17267
0.172812
0.172958
0.173107
0.173255
0.173401
0.173543
0.173679
0.173808
0.173927
0.174035
0.174132
0.174214
0.174283
0.174336
0.174373
0.174394
0.174397
0.174384
0.174354
0.174307
0.174245
0.174168
0.174078
0.173975