/*--------------------------------*- C++ -*----------------------------------*\
| =========                 |                                                 |
| \\      /  F ield         | OpenFOAM: The Open Source CFD Toolbox           |
|  \\    /   O peration     | Version:  2.3.0                                 |
|   \\  /    A nd           | Web:      www.OpenFOAM.org                      |
|    \\/     M anipulation  |                                                 |
\*---------------------------------------------------------------------------*/
FoamFile
{
    version     2.0;
    format      ascii;
    class       surfaceScalarField;
    location    "10000";
    object      phi;
}
// * * * * * * * * * * * * * * * * * * * * * * * * * * * * * * * * * * * * * //

dimensions      [0 3 -1 0 0 0 0];

internalField   nonuniform List<scalar> 
5988
(
0.0100501
-0.00882516
0.0185896
-0.00853944
0.0265948
-0.00800524
0.0338223
-0.00722746
0.04004
-0.00621772
0.0450433
-0.00500335
0.0486845
-0.00364111
0.0509166
-0.00223219
0.0518381
-0.000921505
0.0516918
0.000146302
0.0507889
0.000902954
0.0493783
0.00141063
0.0475644
0.00181385
0.0453171
0.00224734
0.0425356
0.00278144
0.0391364
0.00339927
0.0351082
0.00402814
0.0304973
0.00461093
0.0254381
0.00505918
0.0202536
0.00518454
0.0153109
0.00494271
0.0109035
0.00440737
0.00719201
0.00371148
0.0041596
0.00303241
0.00163023
0.00252938
-0.000669581
0.00229981
-0.00305066
0.00238108
-0.00580943
0.00275877
-0.00917307
0.00336364
-0.0132341
0.00406099
-0.0179045
0.00467044
-0.0229369
0.00503245
-0.0279898
0.00505284
-0.0326911
0.00470129
-0.0368249
0.00413385
-0.0403139
0.00348895
-0.0431367
0.00282283
-0.0453486
0.00221187
-0.0470423
0.00169374
-0.0482647
0.0012224
-0.0489475
0.000682747
-0.0488892
-5.83044e-05
-0.0478179
-0.00107128
-0.045503
-0.00231484
-0.0418385
-0.00366454
-0.0368599
-0.0049786
-0.0307085
-0.0061514
-0.0235881
-0.00712044
-0.0157343
-0.00785376
-0.00739775
-0.00833655
0.00116417
-0.00856192
0.00969067
-0.0085265
0.0179216
-0.00823094
0.025601
-0.00767938
0.0324812
-0.00688019
0.0383329
-0.00585172
0.0429656
-0.00463274
0.0462621
-0.00329649
0.0482227
-0.00196063
0.0489923
-0.000769565
0.048824
0.000168258
0.0479806
0.000843451
0.0466289
0.00135166
0.0448027
0.00182623
0.0424343
0.0023684
0.0394329
0.00300135
0.0357638
0.0036692
0.0314649
0.00429887
0.0266377
0.00482714
0.0215516
0.00508611
0.0165859
0.00496577
0.0120625
0.00452337
0.00819026
0.00387223
0.00500702
0.00318324
0.0023774
0.00262961
4.90478e-05
0.00232836
-0.00228354
0.00233259
-0.00492601
0.00264247
-0.00813174
0.00320574
-0.0120387
0.003907
-0.0166139
0.00457513
-0.0216544
0.00504048
-0.0268438
0.00518945
-0.0318047
0.0049609
-0.0362635
0.00445876
-0.0401232
0.00385968
-0.0433493
0.00322619
-0.0459742
0.00262488
-0.0480943
0.00212003
-0.0497992
0.00170493
-0.051087
0.00128783
-0.0518121
0.000725082
-0.0516956
-0.000116472
-0.0504325
-0.00126313
-0.0478162
-0.00261627
-0.043791
-0.00402522
-0.0384362
-0.00535478
-0.0319192
-0.00651705
-0.0244542
-0.00746492
-0.0162777
-0.00817655
-0.00763484
-0.00864285
-0.0088598
0.00830886
-0.0161232
0.0154574
-0.015688
0.0223356
-0.0148834
0.0288442
-0.0137361
0.034919
-0.0122925
0.0405426
-0.010627
0.0457508
-0.0088493
0.0506178
-0.00709918
0.0552083
-0.00551195
0.0595089
-0.00415432
0.0633875
-0.00297571
0.0666284
-0.00183024
0.0689958
-0.000553519
0.0702533
0.000989789
0.0701502
0.0028846
0.0684201
0.0051294
0.0648705
0.00757772
0.0594726
0.0100088
0.0523992
0.0121326
0.0441254
0.0134584
0.0352973
0.0137708
0.0265687
0.0131361
0.0184493
0.0118308
0.0111481
0.0103336
0.00454478
0.00913273
-0.00171446
0.00855905
-0.008082
0.00874862
-0.0149724
0.00964917
-0.0226263
0.0110175
-0.0309863
0.012421
-0.0396586
0.0133428
-0.0480244
0.0133983
-0.0554262
0.0124546
-0.0612821
0.0105572
-0.0653106
0.00816238
-0.0674731
0.00565144
-0.0679061
0.00325578
-0.0668635
0.00116936
-0.0646127
-0.000557146
-0.061407
-0.00198328
-0.057496
-0.00322825
-0.0531108
-0.00444352
-0.0484087
-0.00577337
-0.0434361
-0.00728745
-0.0381532
-0.00894742
-0.0324958
-0.0106359
-0.0264297
-0.0122176
-0.0199707
-0.0135794
-0.0131821
-0.0146423
-0.00616243
-0.0153562
0.000968391
-0.0156927
0.00808167
-0.0156398
0.0150499
-0.0151992
0.0217577
-0.0143871
0.0281146
-0.0132372
0.0340693
-0.0118064
0.0396198
-0.0101832
0.044812
-0.0084887
0.0497103
-0.00685886
0.0543364
-0.0053957
0.058613
-0.00410837
0.062357
-0.00290054
0.065329
-0.00162034
0.0672777
-0.000122454
0.0679464
0.00169972
0.0670658
0.00388193
0.0644028
0.00633226
0.0598657
0.00883592
0.0535481
0.0111448
0.0458188
0.0128154
0.0373025
0.0134821
0.0286603
0.0131656
0.0204666
0.0120659
0.0130287
0.0106212
0.00631389
0.00934442
2.04767e-05
0.00862177
-0.00628998
0.00864305
-0.0130561
0.00940855
-0.0205809
0.0107306
-0.028901
0.0122271
-0.0377155
0.0133896
-0.0464563
0.0137813
-0.0544657
0.0131988
-0.0611141
0.0116093
-0.0660144
0.0093591
-0.0690567
0.00690195
-0.0703174
0.00448691
-0.0700219
0.00232945
-0.0684368
0.000534837
-0.0658069
-0.000924937
-0.062368
-0.00215104
-0.0583539
-0.003289
-0.0539655
-0.00450492
-0.0493025
-0.00592615
-0.0443497
-0.00756901
-0.0390337
-0.0093413
-0.0332874
-0.0111011
-0.0270894
-0.012715
-0.0204711
-0.0140832
-0.0135077
-0.01514
-0.0063054
-0.0158451
-0.0161761
0.00789717
-0.0230604
0.0147287
-0.0225195
0.0213708
-0.0215255
0.0277557
-0.020121
0.033836
-0.0183728
0.039584
-0.016375
0.0449812
-0.0142464
0.0499978
-0.0121158
0.0545714
-0.0100855
0.0586036
-0.00818651
0.061987
-0.00635918
0.0646418
-0.00448502
0.0665321
-0.00244382
0.0676662
-0.000144329
0.0680834
0.00246742
0.0677963
0.00541648
0.0666441
0.00872994
0.0642254
0.0124274
0.0600532
0.0163048
0.0537463
0.0197652
0.0453744
0.0221427
0.0357128
0.0227977
0.0256995
0.0218442
0.0159596
0.0200735
0.00666315
0.0184292
-0.00236852
0.0175907
-0.0114629
0.017843
-0.0208926
0.0190788
-0.0306709
0.0207959
-0.0403816
0.0221316
-0.0491953
0.0221565
-0.0561936
0.0203966
-0.0610049
0.0172658
-0.063878
0.0134303
-0.0652872
0.00957151
-0.0656905
0.00605478
-0.065346
0.00291132
-0.0642832
0.000106501
-0.0624619
-0.00237848
-0.0598643
-0.0045808
-0.0565185
-0.00657408
-0.0524986
-0.00846347
-0.0479108
-0.0103611
-0.0428618
-0.0123365
-0.0374293
-0.0143799
-0.031658
-0.0164072
-0.025577
-0.0182986
-0.0192198
-0.0199367
-0.012636
-0.0212261
-0.00589357
-0.0220987
0.000925596
-0.0225119
0.0077326
-0.0224468
0.0144397
-0.0219062
0.020968
-0.0209155
0.0272545
-0.0195237
0.0332544
-0.0178063
0.038937
-0.0158658
0.0442713
-0.013823
0.0492047
-0.0117923
0.0536499
-0.00984089
0.0574968
-0.00795523
0.0606453
-0.00604902
0.063033
-0.0040081
0.064645
-0.00173446
0.0655092
0.000835535
0.0656605
0.00373067
0.0650211
0.00697164
0.0632632
0.0105938
0.0599066
0.0145014
0.0545072
0.0182147
0.0469436
0.0210458
0.0377902
0.022319
0.027993
0.021863
0.0182878
0.0203264
0.00896503
0.0186672
-7.96988e-05
0.0176665
-0.0091541
0.0177174
-0.0185648
0.0188193
-0.0284145
0.0205803
-0.0384117
0.0222243
-0.0478187
0.0227966
-0.0556773
0.02164
-0.0613816
0.018903
-0.0650284
0.0152562
-0.0670533
0.0113839
-0.0679374
0.00778608
-0.0680263
0.00457585
-0.0674173
0.00172041
-0.0660793
-0.000803147
-0.0639787
-0.00302553
-0.0611188
-0.00501097
-0.0575478
-0.00685994
-0.0533561
-0.00869666
-0.0486525
-0.0106298
-0.0435269
-0.0126946
-0.0380314
-0.0148368
-0.0321901
-0.0169423
-0.0260226
-0.0188825
-0.0195615
-0.0205444
-0.0128597
-0.0218417
-0.00599029
-0.0227146
-0.0231263
0.0075539
-0.0296965
0.0141086
-0.0290742
0.0205161
-0.027933
0.0267195
-0.0263244
0.0326707
-0.0243241
0.0383254
-0.0220296
0.0436324
-0.0195534
0.0485217
-0.0170052
0.0529011
-0.0144649
0.0566699
-0.0119552
0.0597447
-0.00943404
0.0620778
-0.00681806
0.0636544
-0.0040205
0.0644838
-0.000973651
0.0645854
0.00236582
0.0639782
0.00602369
0.0626886
0.0100195
0.0607618
0.0143542
0.0580922
0.0189744
0.0541092
0.0237482
0.0480651
0.0281868
0.0396922
0.0311705
0.029639
0.0318974
0.0188957
0.0308168
0.00805576
0.0292691
-0.00272449
0.028371
-0.0134807
0.0285992
-0.0241822
0.0297803
-0.0344695
0.0310831
-0.0435067
0.0311689
-0.0503884
0.0290382
-0.0550113
0.0250195
-0.0579864
0.020241
-0.060035
0.015479
-0.061423
0.0109595
-0.0621282
0.00675994
-0.0621148
0.00289795
-0.0613661
-0.000642181
-0.0598652
-0.00387937
-0.0576021
-0.00684389
-0.054588
-0.00958817
-0.0508658
-0.0121857
-0.0465135
-0.0147134
-0.0416314
-0.0172186
-0.036319
-0.0196923
-0.0306574
-0.0220688
-0.0247082
-0.0242478
-0.0185234
-0.0261214
-0.0121555
-0.027594
-0.00566297
-0.0285912
0.000889101
-0.029064
0.00743176
-0.0289894
0.0138967
-0.0283712
0.0202204
-0.0272392
0.0263464
-0.0256496
0.0322231
-0.023683
0.0377969
-0.0214397
0.0430017
-0.0190278
0.0477506
-0.0165412
0.0519415
-0.0140318
0.055478
-0.0114917
0.0582912
-0.00886219
0.0603475
-0.00606442
0.0616427
-0.00302966
0.0621902
0.000288098
0.0620066
0.00391428
0.0611109
0.00786726
0.0595463
0.0121584
0.0572935
0.0167542
0.0539505
0.0215577
0.0487549
0.0262414
0.0412337
0.0298402
0.0317537
0.031343
0.0212898
0.0307903
0.0105563
0.0294008
-0.000202253
0.028425
-0.0109987
0.0285138
-0.021842
0.0296626
-0.0324776
0.0312159
-0.0421762
0.0319229
-0.0499382
0.0305586
-0.0553633
0.0270651
-0.0589066
0.0224463
-0.06134
0.0176896
-0.0630946
0.0131385
-0.0642017
0.00889325
-0.0646168
0.00499093
-0.0643181
0.00142169
-0.063286
-0.00183529
-0.0615023
-0.00480923
-0.0589634
-0.00754989
-0.055692
-0.0101313
-0.0517463
-0.0126424
-0.047217
-0.0151591
-0.0422048
-0.0177068
-0.0367964
-0.0202452
-0.0310558
-0.022683
-0.0250309
-0.0249074
-0.0187663
-0.026809
-0.0123123
-0.0282957
-0.00572832
-0.0292985
-0.0297724
0.00718361
-0.0360074
0.0134249
-0.0353155
0.0195382
-0.0340463
0.0254688
-0.032255
0.0311639
-0.0300192
0.036568
-0.0274338
0.0416162
-0.0246016
0.0462286
-0.0216176
0.0503136
-0.0185498
0.0537802
-0.0154219
0.0565574
-0.0122112
0.058604
-0.00886468
0.0599068
-0.00532323
0.0604713
-0.0015382
0.0603147
0.00252246
0.0594628
0.00687555
0.057955
0.0115273
0.0558362
0.0164731
0.0531239
0.0216867
0.0497703
0.0271018
0.0454419
0.0325152
0.0392255
0.0373869
0.0305799
0.040543
0.020106
0.0412907
0.00875837
0.0406167
-0.00284894
0.0399783
-0.0143123
0.0400626
-0.0251595
0.0406276
-0.0345987
0.0405223
-0.0417474
0.0383177
-0.0466563
0.033947
-0.0502375
0.0286007
-0.0530805
0.023084
-0.0553056
0.0177041
-0.0569121
0.012566
-0.0578621
0.0077099
-0.0581129
0.00314878
-0.0576373
-0.0011178
-0.0564189
-0.00509774
-0.0544518
-0.00881097
-0.0517471
-0.0122929
-0.0483415
-0.0155914
-0.0443014
-0.0187535
-0.039716
-0.021804
-0.0346806
-0.0247277
-0.0292823
-0.0274671
-0.0235944
-0.0299356
-0.0176797
-0.0320362
-0.0115958
-0.0336779
-0.00540026
-0.0347868
0.000847757
-0.035312
0.00708752
-0.0352292
0.0132586
-0.0345422
0.0193023
-0.0332829
0.0251614
-0.0315087
0.0307773
-0.0292989
0.0360851
-0.0267475
0.0410078
-0.0239505
0.0454549
-0.0209883
0.0493311
-0.0179079
0.0525519
-0.0147126
0.0550589
-0.0113692
0.056823
-0.00782854
0.0578387
-0.00404533
0.0581152
1.1614e-05
0.0576712
0.00435825
0.0565382
0.00900027
0.054761
0.0139357
0.0523698
0.0191454
0.0493485
0.024579
0.0454972
0.0300927
0.0400508
0.0352865
0.0322297
0.0391642
0.022309
0.0407109
0.0112324
0.0404773
-0.000308694
0.0399661
-0.0118887
0.0400939
-0.023074
0.0408479
-0.0331518
0.0412937
-0.0411476
0.0399187
-0.0467559
0.0361668
-0.0507489
0.0310582
-0.0539134
0.0256107
-0.0564628
0.020239
-0.058418
0.0150937
-0.059751
0.0102263
-0.0604159
0.00565582
-0.0603773
0.0013831
-0.059612
-0.00260058
-0.0581056
-0.0063157
-0.0558565
-0.00979892
-0.0528851
-0.0131027
-0.0492407
-0.0162867
-0.0450018
-0.019398
-0.0402611
-0.0224475
-0.035108
-0.0253982
-0.0296181
-0.0281729
-0.0238531
-0.0306724
-0.0178671
-0.032795
-0.011713
-0.0344498
-0.00544666
-0.0355649
-0.0360918
0.00676979
-0.0419546
0.0126516
-0.0411973
0.0184116
-0.0398063
0.0239941
-0.0378375
0.0293421
-0.0353672
0.0343942
-0.0324859
0.039081
-0.0292883
0.0433237
-0.0258603
0.0470385
-0.0222647
0.0501474
-0.0185308
0.0525902
-0.0146539
0.0543309
-0.0106055
0.0553565
-0.00634883
0.0556701
-0.00185177
0.0552854
0.00290713
0.0542246
0.00793642
0.0525196
0.0132323
0.0502145
0.0187781
0.0473619
0.0245394
0.0440048
0.0304588
0.0400828
0.0364372
0.0352238
0.0422459
0.028516
0.0472509
0.0194568
0.0503499
0.00869347
0.05138
-0.00274022
0.051412
-0.0138829
0.0512052
-0.0237493
0.0504939
-0.0314269
0.0481999
-0.0368937
0.0437845
-0.0410636
0.038117
-0.0445454
0.0320824
-0.0474988
0.0260373
-0.0499068
0.0201121
-0.051717
0.0143762
-0.0528817
0.00887463
-0.0533658
0.00363285
-0.0531464
-0.00133713
-0.0522103
-0.00603386
-0.050554
-0.0104673
-0.0481888
-0.0146581
-0.0451472
-0.018633
-0.0414857
-0.022415
-0.0372806
-0.0260091
-0.0326174
-0.0293909
-0.0275799
-0.0325046
-0.022244
-0.0352715
-0.0166772
-0.037603
-0.0109415
-0.0394136
-0.00509614
-0.0406321
0.000800037
-0.0412082
0.00668824
-0.0411174
0.0125097
-0.0403637
0.0182056
-0.0389788
0.0237161
-0.0370192
0.0289782
-0.034561
0.0339222
-0.0316915
0.0384697
-0.028498
0.0425358
-0.0250544
0.046036
-0.0214082
0.0488987
-0.0175752
0.0510737
-0.0135442
0.052535
-0.00928979
0.0532757
-0.00478607
0.0533025
-1.51501e-05
0.0526309
0.0050298
0.0512868
0.0103444
0.0493091
0.0159134
0.0467477
0.0217067
0.0436533
0.0276735
0.0400131
0.0337329
0.0355794
0.0397202
0.0295806
0.0451629
0.0212523
0.0490392
0.0109365
0.0507931
-0.000378942
0.0512816
-0.0117269
0.0514418
-0.0221288
0.0512498
-0.0305682
0.0497331
-0.0366762
0.0460267
-0.0412123
0.0407029
-0.0449614
0.0348073
-0.0481817
0.028831
-0.0508899
0.0229472
-0.0530358
0.0172396
-0.0545685
0.011759
-0.0554471
0.00653436
-0.0556425
0.0015785
-0.055135
-0.00310805
-0.0539133
-0.00753736
-0.0519782
-0.0117341
-0.0493483
-0.0157326
-0.0460664
-0.0195686
-0.0421987
-0.0232658
-0.0378261
-0.0268202
-0.0330316
-0.0301926
-0.0278919
-0.0333127
-0.0224737
-0.0360906
-0.0168369
-0.0384318
-0.0110379
-0.0402488
-0.00513247
-0.0414703
-0.0420469
0.00630135
-0.0474899
0.0117717
-0.0466677
0.0171202
-0.0451548
0.0222893
-0.0430066
0.0272198
-0.0402977
0.0318487
-0.0371149
0.0361079
-0.0335475
0.0399243
-0.0296767
0.0432249
-0.0255652
0.0459436
-0.0212496
0.0480301
-0.0167404
0.0494529
-0.0120283
0.0501994
-0.0070953
0.0502711
-0.00192345
0.0496799
0.00349827
0.0484463
0.00916997
0.0465996
0.0150791
0.0441785
0.0211992
0.0412304
0.0274874
0.0378062
0.0338831
0.0339364
0.040307
0.0295335
0.0466488
0.0241447
0.0526397
0.0169412
0.0575534
0.00778159
0.0605396
-0.0023694
0.061563
-0.0121125
0.0609483
-0.0202062
0.0585876
-0.0262686
0.0542622
-0.0309633
0.0484792
-0.0349691
0.0421228
-0.0384978
0.0356111
-0.0415488
0.0290884
-0.0440754
0.0226387
-0.0460288
0.0163296
-0.0473673
0.0102131
-0.0480594
0.00432494
-0.0480838
-0.00131263
-0.0474286
-0.00668914
-0.0460913
-0.0118045
-0.0440833
-0.0166661
-0.0414331
-0.0212832
-0.0381886
-0.0256595
-0.0344143
-0.0297834
-0.0301845
-0.0336207
-0.0255755
-0.0371135
-0.0206608
-0.0401863
-0.0155084
-0.0427553
-0.0101825
-0.0447394
-0.00474468
-0.0460699
0.000744955
-0.0466978
0.00622648
-0.0465989
0.01164
-0.0457772
0.016925
-0.0442638
0.0220195
-0.0421137
0.0268584
-0.0393999
0.031372
-0.0362051
0.0354859
-0.032612
0.0391237
-0.0286921
0.0422128
-0.0244973
0.0446927
-0.0200551
0.0465207
-0.0153722
0.0476733
-0.0104424
0.0481434
-0.00525616
0.0479361
0.000192103
0.0470661
0.00589986
0.0455571
0.0118534
0.0434434
0.0180271
0.0407693
0.0243808
0.0375846
0.0308582
0.0339304
0.0373871
0.0297737
0.0438769
0.024797
0.0501396
0.0182138
0.0556224
0.0095835
0.0594234
-0.000409031
0.0612741
-0.0104225
0.0614553
-0.019105
0.0599323
-0.025751
0.0563791
-0.0307943
0.05107
-0.0350276
0.0449362
-0.0387756
0.0385554
-0.0420746
0.0321299
-0.0448836
0.0257562
-0.047152
0.0195081
-0.0488345
0.0134415
-0.0498948
0.00759466
-0.0503062
0.00198992
-0.0500507
-0.00336363
-0.0491186
-0.00846938
-0.0475121
-0.0133406
-0.0452485
-0.0179961
-0.0423646
-0.0224526
-0.0389156
-0.0267147
-0.0349705
-0.0307653
-0.0306029
-0.0345602
-0.0258847
-0.0380309
-0.0208826
-0.0410926
-0.0156586
-0.0436559
-0.010271
-0.0456364
-0.00477712
-0.0469642
-0.04759
0.00577793
-0.0525649
0.0107871
-0.0516769
0.0156723
-0.05004
0.0203751
-0.0477094
0.0248359
-0.0447585
0.0289929
-0.0412718
0.032782
-0.0373366
0.0361381
-0.0330329
0.038999
-0.0284261
0.0413099
-0.0235606
0.0430294
-0.0184598
0.0441315
-0.0131304
0.0446054
-0.00756916
0.0444526
-0.00177071
0.0436847
0.0042662
0.0423212
0.0105335
0.0403893
0.0170109
0.0379247
0.0236639
0.0349697
0.0304424
0.0315712
0.0372816
0.0277736
0.0441045
0.0235935
0.050829
0.018907
0.0573262
0.0132475
0.0632128
0.00618782
0.0675993
-0.00178062
0.0695314
-0.00936948
0.0685372
-0.0156308
0.0648489
-0.0206476
0.059279
-0.0249781
0.0528097
-0.0288807
0.0460255
-0.0323792
0.0391096
-0.0354354
0.0321446
-0.0380031
0.0252063
-0.0400383
0.0183648
-0.0415037
0.0116784
-0.0423701
0.00519132
-0.0426169
-0.00106577
-0.0422322
-0.00707383
-0.0412135
-0.0128233
-0.03957
-0.0183096
-0.0373256
-0.0235276
-0.03452
-0.0284651
-0.0312068
-0.0330966
-0.0274493
-0.0373782
-0.0233153
-0.0412476
-0.0188727
-0.0446289
-0.0141881
-0.04744
-0.00932558
-0.0496019
-0.00434799
-0.0510475
0.000682815
-0.0517286
0.00570529
-0.0516214
0.0106578
-0.0507297
0.0154784
-0.0490844
0.0201039
-0.0467392
0.0244695
-0.0437655
0.0285083
-0.0402439
0.0321519
-0.0362556
0.0353334
-0.0318737
0.0379916
-0.0271555
0.0400762
-0.0221398
0.0415519
-0.0168479
0.0423989
-0.0112894
0.0426115
-0.00546874
0.0421949
0.000608691
0.0411635
0.00693124
0.0395402
0.0134768
0.0373563
0.0202109
0.0346514
0.0270857
0.0314705
0.0340391
0.0278592
0.0409984
0.023848
0.0478881
0.019373
0.0546146
0.0140732
0.0609223
0.00741708
0.0660795
-0.00040499
0.0690962
-0.00823588
0.0692862
-0.0149143
0.0666106
-0.0202458
0.0617106
-0.0247652
0.0555894
-0.0288379
0.0490089
-0.0325305
0.0422479
-0.0358126
0.0354121
-0.0386382
0.0285817
-0.0409611
0.021831
-0.0427407
0.0152211
-0.0439437
0.00879765
-0.0445449
0.0025911
-0.0445268
-0.00338165
-0.0438807
-0.00911555
-0.0426078
-0.0146135
-0.0407231
-0.0198809
-0.0382567
-0.0249189
-0.0352543
-0.0297172
-0.031773
-0.0342466
-0.0278766
-0.0384566
-0.0236301
-0.0422774
-0.0190969
-0.0456258
-0.0143382
-0.0484146
-0.00941315
-0.0505614
-0.00438015
-0.0519972
-0.052673
0.00520306
-0.0571345
0.00970599
-0.0561798
0.0140838
-0.0544178
0.0182781
-0.0519037
0.0222306
-0.0487109
0.0258825
-0.0449238
0.0291756
-0.0406297
0.0320533
-0.0359106
0.0344633
-0.0308361
0.0363615
-0.0254588
0.0377151
-0.0198134
0.0385041
-0.0139194
0.0387211
-0.00778618
0.0383697
-0.00141929
0.0374623
0.00517359
0.0360191
0.0119768
0.0340672
0.0189628
0.0316405
0.0260905
0.0287796
0.0333033
0.0255305
0.0405307
0.0219435
0.0476915
0.0180719
0.0547005
0.0139435
0.0614546
0.00945808
0.0676982
0.00438805
0.0726694
-0.00113291
0.0750524
-0.0064629
0.0738672
-0.0111891
0.0695752
-0.0154367
0.0635266
-0.0193901
0.0567631
-0.0230593
0.0496947
-0.0263959
0.0424461
-0.0293479
0.0350967
-0.0318682
0.0277267
-0.0339148
0.0204114
-0.0354519
0.0132155
-0.0364508
0.00619023
-0.0368903
-0.000626302
-0.0367569
-0.00720727
-0.0360459
-0.0135343
-0.0347632
-0.0195922
-0.0329273
-0.0253635
-0.0305694
-0.030823
-0.0277332
-0.0359328
-0.0244717
-0.0406397
-0.0208436
-0.0448756
-0.0169108
-0.0485617
-0.0127359
-0.0516149
-0.00838161
-0.0539562
-0.00391069
-0.0555185
0.000614321
-0.0562536
0.00513086
-0.0561379
0.00957636
-0.0551752
0.0138882
-0.0533962
0.0180038
-0.0508548
0.0218602
-0.0476219
0.025395
-0.0437786
0.0285468
-0.0394075
0.0312582
-0.0345851
0.0334784
-0.0293756
0.0351668
-0.0238282
0.0362956
-0.0179767
0.03685
-0.0118438
0.036827
-0.00544581
0.036234
0.00120172
0.0350865
0.0080787
0.0334079
0.0151554
0.0312289
0.02239
0.0285869
0.0297277
0.0255255
0.0371004
0.0220932
0.0444307
0.0183428
0.0516386
0.0143156
0.0586418
0.00996424
0.0652736
0.00506955
0.0709742
-0.000377445
0.0745432
-0.00582488
0.0747336
-0.0107233
0.071509
-0.0150884
0.0660758
-0.0191451
0.0596461
-0.0229439
0.0528077
-0.0264439
0.045748
-0.0295919
0.03856
-0.0323385
0.0313283
-0.0346391
0.0241316
-0.036455
0.017037
-0.037754
0.0100967
-0.0385109
0.00334803
-0.0387076
-0.00318495
-0.0383339
-0.00948926
-0.0373891
-0.0155583
-0.0358837
-0.0213862
-0.0338415
-0.0269612
-0.0312985
-0.0322601
-0.0283016
-0.0372435
-0.0249043
-0.0418539
-0.0211642
-0.0460176
-0.0171396
-0.0496504
-0.0128891
-0.0526651
-0.0084712
-0.0549793
-0.00394416
-0.0565242
-0.0572507
0.00458194
-0.061158
0.00853919
-0.060137
0.0123725
-0.0582511
0.0160249
-0.0555561
0.0194408
-0.0521268
0.022566
-0.048049
0.0253488
-0.0434124
0.0277408
-0.0383026
0.0296996
-0.0327949
0.0311905
-0.0269497
0.0321891
-0.020812
0.0326819
-0.0144122
0.0326661
-0.0077704
0.0321486
-0.000901832
0.0311446
0.0061776
0.0296764
0.013445
0.0277727
0.0208665
0.0254689
0.0283943
0.0228069
0.0359654
0.0198359
0.0435016
0.0166153
0.0509122
0.0132204
0.0580955
0.0097481
0.0649269
0.00628949
0.0711568
0.0028509
0.076108
-0.000599688
0.078503
-0.00404816
0.0773157
-0.00749807
0.0730251
-0.0109669
0.0669954
-0.0143883
0.0601845
-0.0176589
0.0529652
-0.0206935
0.0454807
-0.0234275
0.0378307
-0.0258084
0.0301076
-0.0277921
0.0223951
-0.0293414
0.0147648
-0.0304257
0.00727457
-0.0310214
-3.05906e-05
-0.0311121
-0.00711663
-0.0306894
-0.013957
-0.0297547
-0.0205269
-0.02832
-0.0267982
-0.0264087
-0.0327343
-0.024055
-0.0382865
-0.0213021
-0.0433925
-0.0182003
-0.0479775
-0.0148043
-0.0519577
-0.0111719
-0.0552473
-0.0073628
-0.0577652
-0.00343813
-0.0594431
0.000540308
-0.0602321
0.00451032
-0.060108
0.00840975
-0.0590747
0.0121769
-0.0571634
0.0157512
-0.054429
0.0190731
-0.0509438
0.0220856
-0.0467911
0.024735
-0.0420569
0.0269727
-0.0368228
0.0287577
-0.0311607
0.0300586
-0.0251291
0.0308551
-0.0187732
0.0311382
-0.0121269
0.0309093
-0.00521689
0.0301789
0.00193206
0.0289657
0.00929193
0.0272952
0.0168259
0.0251996
0.0244856
0.0227181
0.0322092
0.0198969
0.0399217
0.0167911
0.0475365
0.0134702
0.0549595
0.0100257
0.0620862
0.0065599
0.0687395
0.00311398
0.0744201
-0.000336298
0.0779935
-0.00378262
0.07818
-0.00722208
0.0749485
-0.0106895
0.0695432
-0.0141509
0.0631074
-0.0175068
0.0561636
-0.0206659
0.048907
-0.0235578
0.041452
-0.0261265
0.033897
-0.0283248
0.0263299
-0.0301125
0.0188248
-0.0314563
0.0114405
-0.0323291
0.00422079
-0.0327104
-0.00280368
-0.0325872
-0.00961245
-0.0319552
-0.0161904
-0.0308199
-0.0225215
-0.0291979
-0.0285832
-0.0271166
-0.0343414
-0.0246129
-0.0397472
-0.0217313
-0.0447355
-0.0185211
-0.0492278
-0.0150348
-0.0531366
-0.0113272
-0.0563727
-0.00745424
-0.0588523
-0.00347305
-0.0605054
-0.0612821
0.00392003
-0.0645996
0.00729746
-0.0635145
0.0105552
-0.0615088
0.0136394
-0.0586403
0.0164983
-0.0549857
0.0190833
-0.050634
0.0213495
-0.0456786
0.0232569
-0.04021
0.0247718
-0.0343098
0.0258686
-0.0280465
0.0265307
-0.0214741
0.0267513
-0.0146328
0.026533
-0.00755204
0.0258869
-0.000255736
0.024832
0.00723252
0.0233939
0.0148831
0.0216048
0.0226556
0.019503
0.030496
0.0171344
0.038334
0.0145538
0.0460822
0.0118297
0.0536363
0.00905236
0.0608728
0.00634736
0.0676319
0.00386919
0.073635
0.0017127
0.0782645
-0.000234519
0.0804502
-0.00227524
0.0793564
-0.00462121
0.0753711
-0.00724636
0.0696206
-0.00999871
0.0629369
-0.0127336
0.0557001
-0.0153462
0.0480933
-0.0177605
0.040245
-0.0199169
0.032264
-0.0217666
0.0242448
-0.0232686
0.0162669
-0.0243891
0.00839507
-0.0251006
0.000680908
-0.0253826
-0.00683467
-0.0252222
-0.0141174
-0.0246153
-0.0211338
-0.0235674
-0.0278461
-0.0220941
-0.0342077
-0.0202207
-0.0401599
-0.0179816
-0.0456317
-0.0154183
-0.0505407
-0.0125785
-0.0547975
-0.0095141
-0.0583117
-0.00628046
-0.0609989
-0.00293543
-0.0627882
0.000461577
-0.0636291
0.00385043
-0.0634968
0.00717111
-0.0623953
0.0103645
-0.0603569
0.0133734
-0.0574379
0.0161433
-0.0537137
0.0186232
-0.049271
0.020767
-0.0442007
0.022535
-0.0385908
0.0238951
-0.0325208
0.0248245
-0.0260585
0.0253104
-0.0192591
0.02535
-0.0121665
0.0249499
-0.00481676
0.024125
0.00275694
0.0228979
0.010519
0.0212978
0.018426
0.0193605
0.0264228
0.0171289
0.0344408
0.0146544
0.0423962
0.0120002
0.0501907
0.00924876
0.0577109
0.00651533
0.0648197
0.00395353
0.0713013
0.00169769
0.076676
-0.000286707
0.0799779
-0.00226503
0.0801583
-0.00450844
0.0771919
-0.00706286
0.0720976
-0.00980201
0.0658466
-0.0125754
0.058937
-0.015268
0.0515996
-0.0177967
0.0439806
-0.0200973
0.0361977
-0.0221177
0.0283503
-0.0238144
0.0205214
-0.0251505
0.0127766
-0.0260957
0.00516606
-0.0266262
-0.00227316
-0.0267251
-0.00951356
-0.0263834
-0.0165321
-0.0256011
-0.0233038
-0.0243877
-0.0297966
-0.0227622
-0.0359669
-0.0207529
-0.0417565
-0.0183951
-0.0470933
-0.0157303
-0.0518926
-0.0128046
-0.0560623
-0.00966756
-0.0595097
-0.00637153
-0.0621483
-0.00297092
-0.063906
-0.0647315
0.00322236
-0.0674279
0.00599053
-0.0662826
0.00864684
-0.0641651
0.0111418
-0.0611353
0.0134291
-0.057273
0.0154661
-0.0526711
0.0172153
-0.0474278
0.0186446
-0.0416393
0.0197287
-0.0353939
0.0204502
-0.028768
0.0207997
-0.0218237
0.020777
-0.0146101
0.0203901
-0.00716515
0.019655
0.000479369
0.0185949
0.00829266
0.0172393
0.0162386
0.0156242
0.0242708
0.0137917
0.0323285
0.0117917
0.040334
0.00968382
0.0481901
0.0075419
0.0557782
0.00546127
0.0629534
0.00356839
0.0695248
0.00201217
0.0751912
0.000875207
0.0794014
3.31068e-06
0.0813221
-0.000985793
0.0803455
-0.00236727
0.0767525
-0.00413651
0.0713898
-0.00614965
0.06495
-0.00826358
0.057814
-0.0103695
0.0501993
-0.0123855
0.042261
-0.0142467
0.0341251
-0.0158996
0.0258977
-0.0172993
0.0176665
-0.0184076
0.00950346
-0.0191931
0.00146634
-0.0196305
-0.00639729
-0.019702
-0.0140458
-0.0193979
-0.0214379
-0.0187172
-0.0285268
-0.017668
-0.0352568
-0.0162676
-0.0415603
-0.0145418
-0.0473575
-0.012524
-0.0525585
-0.0102542
-0.0570674
-0.00777768
-0.0607882
-0.00514428
-0.0636323
-0.00240703
-0.0655254
0.000378826
-0.0664149
0.00315705
-0.066275
0.00587156
-0.0651099
0.00846758
-0.0629529
0.0108928
-0.0598632
0.0130987
-0.0559195
0.0150411
-0.0512134
0.0166817
-0.0458413
0.0179891
-0.0398982
0.0189397
-0.0334714
0.0195187
-0.0266375
0.0197205
-0.0194608
0.0195484
-0.0119944
0.0190145
-0.00428287
0.0181386
0.00363279
0.0169478
0.0117099
0.0154753
0.0198984
0.0137612
0.028137
0.0118524
0.0363496
0.00980504
0.0444435
0.00768804
0.0523077
0.00558956
0.0598094
0.00362754
0.0667817
0.00195215
0.0729766
0.000687881
0.0779402
-0.000230595
0.0808963
-0.001142
0.0810697
-0.00239041
0.0784403
-0.00405194
0.0737592
-0.00601017
0.0678048
-0.00811835
0.0610452
-0.0102592
0.0537405
-0.012344
0.0460655
-0.0143036
0.0381572
-0.0160812
0.0301279
-0.0176291
0.0220693
-0.0189071
0.0140545
-0.0198809
0.00613985
-0.0205226
-0.00163146
-0.0208109
-0.0092252
-0.0207321
-0.0166109
-0.0202802
-0.0237557
-0.0194581
-0.0306188
-0.0182772
-0.0371477
-0.0167574
-0.0432764
-0.0149258
-0.0489249
-0.0128162
-0.0540022
-0.0104675
-0.058411
-0.00792352
-0.0620537
-0.00523148
-0.0648404
-0.00244159
-0.0666959
-0.0675671
0.00249336
-0.0696155
0.00462677
-0.0684161
0.0066598
-0.0661982
0.00854882
-0.0630243
0.0102538
-0.058978
0.0117393
-0.0541566
0.012975
-0.0486635
0.0139366
-0.0426009
0.0146066
-0.0360639
0.0149749
-0.0291362
0.015039
-0.0218878
0.0148045
-0.0143756
0.0142848
-0.00664539
0.0135003
0.00126387
0.0124783
0.00931462
0.0112522
0.0174647
0.00986111
0.0256619
0.00835025
0.0338394
0.006772
0.0419123
0.00518772
0.0497743
0.00367092
0.057295
0.00231158
0.0643127
0.00121922
0.0706172
0.000507038
0.0759034
0.000212915
0.0796955
0.000166625
0.0813684
1.08429e-05
0.0805013
-0.000524729
0.0772881
-0.00147352
0.0723386
-0.00273505
0.0662115
-0.00419085
0.0592698
-0.00574127
0.0517497
-0.00730591
0.0438256
-0.00881861
0.0356378
-0.0102235
0.0273025
-0.0114724
0.0189155
-0.0125239
0.0105549
-0.0133424
0.0022848
-0.0138984
-0.00584125
-0.0141695
-0.0137748
-0.0141404
-0.0214669
-0.0138042
-0.0288631
-0.0131621
-0.035899
-0.0122238
-0.0424986
-0.0110072
-0.048574
-0.00953778
-0.0540279
-0.00784761
-0.0587576
-0.00597476
-0.0626611
-0.00396217
-0.0656449
-0.0018566
-0.067631
0.000292632
-0.0685642
0.002435
-0.0684174
0.00452018
-0.067195
0.0064994
-0.0649321
0.00832682
-0.0616906
0.00996073
-0.0575534
0.0113646
-0.0526172
0.0125079
-0.0469847
0.0133674
-0.0407576
0.0139272
-0.0340312
0.01418
-0.0268903
0.0141266
-0.0194075
0.0137765
-0.0116442
0.0131467
-0.00365313
0.0122619
0.00451763
0.0111531
0.0128187
0.00985749
0.021194
0.00841836
0.0295761
0.00688576
0.0378822
0.00531808
0.0460112
0.0037849
0.0538409
0.00237137
0.0612229
0.00118296
0.0679701
0.000339686
0.0738199
-7.97337e-05
0.0783597
-0.000169736
0.0809864
-0.000252333
0.0811523
-0.000654101
0.0788421
-0.00147894
0.074584
-0.0026556
0.0689815
-0.00406768
0.0624573
-0.00561083
0.0552836
-0.00719999
0.0476547
-0.00876533
0.0397226
-0.0102482
0.0316108
-0.0115983
0.0234194
-0.012772
0.0152283
-0.0137319
0.00709976
-0.0144463
-0.000917107
-0.0148896
-0.00878191
-0.0150432
-0.0164573
-0.0148959
-0.023903
-0.0144443
-0.0310703
-0.013693
-0.037899
-0.0126542
-0.0443152
-0.0113473
-0.0502318
-0.00979835
-0.0555512
-0.00803911
-0.0601702
-0.00610643
-0.0639864
-0.00404139
-0.0669054
-0.00188842
-0.0688489
-0.0697613
0.00173687
-0.0711383
0.00321341
-0.0698926
0.00460461
-0.0675894
0.00587411
-0.0642938
0.00698938
-0.0600933
0.00792246
-0.0550897
0.0086507
-0.0493917
0.00915733
-0.0431075
0.00943199
-0.0363386
0.00947116
-0.0291754
0.00927842
-0.0216951
0.00886456
-0.0139617
0.00824739
-0.00602822
0.00745136
0.00205989
0.00650712
0.0102589
0.00545076
0.018521
0.00432355
0.0267891
0.00317213
0.0349908
0.00204895
0.0430355
0.00101334
0.0508099
0.000133011
0.0581753
-0.000514894
0.0649607
-0.000846512
0.0709488
-0.000791332
0.0758482
-0.000355467
0.0792597
0.000291099
0.0807218
0.000844102
0.0799483
0.00106137
0.0770708
0.000878179
0.0725218
0.00034703
0.0667427
-0.000446879
0.0600637
-0.00142128
0.0527241
-0.00250385
0.0449082
-0.00363157
0.0367656
-0.00474899
0.02842
-0.00580693
0.0199734
-0.0067617
0.0115097
-0.00757495
0.00309805
-0.00821383
-0.00520237
-0.00865174
-0.0133369
-0.0088689
-0.0212498
-0.00885289
-0.0288791
-0.00859891
-0.0361529
-0.00810986
-0.0429876
-0.00739617
-0.0492877
-0.00647541
-0.0549487
-0.00537172
-0.0598613
-0.0041151