/*--------------------------------*- C++ -*----------------------------------*\
| =========                 |                                                 |
| \\      /  F ield         | OpenFOAM: The Open Source CFD Toolbox           |
|  \\    /   O peration     | Version:  2.3.0                                 |
|   \\  /    A nd           | Web:      www.OpenFOAM.org                      |
|    \\/     M anipulation  |                                                 |
\*---------------------------------------------------------------------------*/
FoamFile
{
    version     2.0;
    format      ascii;
    class       surfaceScalarField;
    location    "10000";
    object      phi;
}
// * * * * * * * * * * * * * * * * * * * * * * * * * * * * * * * * * * * * * //

dimensions      [0 3 -1 0 0 0 0];

internalField   nonuniform List<scalar> 
5988
(
3.58936e-08
-3.17437e-08
6.70976e-08
-3.1204e-08
9.73059e-08
-3.02083e-08
1.26095e-07
-2.87892e-08
1.53084e-07
-2.69886e-08
1.7794e-07
-2.48564e-08
2.00387e-07
-2.24466e-08
2.20197e-07
-1.98101e-08
2.37177e-07
-1.69803e-08
2.5113e-07
-1.39532e-08
2.618e-07
-1.06697e-08
2.68812e-07
-7.01238e-09
2.71638e-07
-2.82559e-09
2.69606e-07
2.03182e-09
2.62019e-07
7.5876e-09
2.48399e-07
1.36196e-08
2.28778e-07
1.96211e-08
2.0383e-07
2.49478e-08
1.74985e-07
2.88448e-08
1.44236e-07
3.07493e-08
1.13553e-07
3.06835e-08
8.45747e-08
2.89778e-08
5.81891e-08
2.63856e-08
3.43826e-08
2.38065e-08
1.24329e-08
2.19497e-08
-8.77717e-09
2.12101e-08
-3.04943e-08
2.17172e-08
-5.38735e-08
2.33791e-08
-7.97256e-08
2.58521e-08
-1.08203e-07
2.84775e-08
-1.38566e-07
3.03632e-08
-1.69267e-07
3.07011e-08
-1.98355e-07
2.90875e-08
-2.23787e-07
2.54323e-08
-2.43998e-07
2.02106e-08
-2.58173e-07
1.41748e-08
-2.66172e-07
7.99905e-09
-2.68417e-07
2.24495e-09
-2.65603e-07
-2.81371e-09
-2.58425e-07
-7.17819e-09
-2.47444e-07
-1.0981e-08
-2.33067e-07
-1.43771e-08
-2.15581e-07
-1.74851e-08
-1.95216e-07
-2.03659e-08
-1.72191e-07
-2.30249e-08
-1.4676e-07
-2.54302e-08
-1.19228e-07
-2.75325e-08
-8.99485e-08
-2.92795e-08
-5.93252e-08
-3.06233e-08
-2.78012e-08
-3.1524e-08
4.14997e-09
-3.19512e-08
3.6037e-08
-3.18871e-08
6.73719e-08
-3.13349e-08
9.7688e-08
-3.03161e-08
1.26552e-07
-2.88636e-08
1.53571e-07
-2.70196e-08
1.78405e-07
-2.48337e-08
2.00763e-07
-2.23583e-08
2.20403e-07
-1.96397e-08
2.37105e-07
-1.67024e-08
2.50633e-07
-1.35278e-08
2.60673e-07
-1.00393e-08
2.66778e-07
-6.10573e-09
2.68349e-07
-1.57033e-09
2.64671e-07
3.67749e-09
2.55092e-07
9.57952e-09
2.3931e-07
1.57815e-08
2.17634e-07
2.16758e-08
1.91072e-07
2.65621e-08
1.61365e-07
2.97077e-08
1.3057e-07
3.07944e-08
1.00577e-07
2.99935e-08
7.2748e-08
2.78286e-08
4.75849e-08
2.51631e-08
2.47339e-08
2.2851e-08
3.26592e-09
2.1468e-08
-1.80189e-08
2.12848e-08
-4.03549e-08
2.2336e-08
-6.47857e-08
2.44309e-08
-9.1879e-08
2.70933e-08
-1.21421e-07
2.95416e-08
-1.52302e-07
3.08809e-08
-1.82755e-07
3.04534e-08
-2.10766e-07
2.80105e-08
-2.34435e-07
2.36696e-08
-2.52533e-07
1.80979e-08
-2.64562e-07
1.20289e-08
-2.70645e-07
6.08284e-09
-2.71343e-07
6.98602e-10
-2.67368e-07
-3.97552e-09
-2.59359e-07
-8.00927e-09
-2.47803e-07
-1.15555e-08
-2.3304e-07
-1.47633e-08
-2.15304e-07
-1.77359e-08
-1.94787e-07
-2.05169e-08
-1.71688e-07
-2.30986e-08
-1.46247e-07
-2.54413e-08
-1.18755e-07
-2.74922e-08
-8.9557e-08
-2.91979e-08
-5.90467e-08
-3.05103e-08
-2.76569e-08
-3.13898e-08
-3.18067e-08
5.41947e-08
-7.96836e-08
1.01754e-07
-7.87632e-08
1.48611e-07
-7.70653e-08
1.94472e-07
-7.46499e-08
2.39068e-07
-7.15855e-08
2.8214e-07
-6.7928e-08
3.23389e-07
-6.3696e-08
3.6243e-07
-5.88511e-08
3.98739e-07
-5.32886e-08
4.31623e-07
-4.68375e-08
4.60216e-07
-3.92631e-08
4.8347e-07
-3.02663e-08
5.00135e-07
-1.94906e-08
5.08732e-07
-6.56463e-09
5.07588e-07
8.73108e-09
4.9509e-07
2.61181e-08
4.70097e-07
4.46137e-08
4.32401e-07
6.26439e-08
3.8337e-07
7.78763e-08
3.26178e-07
8.79413e-08
2.64701e-07
9.21598e-08
2.02668e-07
9.10115e-08
1.42714e-07
8.63393e-08
8.58215e-08
8.06989e-08
3.1467e-08
7.63041e-08
-2.18063e-08
7.44834e-08
-7.57845e-08
7.56954e-08
-1.3202e-07
7.96146e-08
-1.91239e-07
8.50713e-08
-2.52742e-07
8.99803e-08
-3.14139e-07
9.17598e-08
-3.71805e-07
8.83675e-08
-4.21811e-07
7.90939e-08
-4.60761e-07
6.43818e-08
-4.86976e-07
4.64257e-08
-5.00471e-07
2.76697e-08
-5.0229e-07
9.81861e-09
-4.9403e-07
-6.01582e-09
-4.77399e-07
-1.94444e-08
-4.53936e-07
-3.06415e-08
-4.24946e-07
-3.99705e-08
-3.91532e-07
-4.77917e-08
-3.54604e-07
-5.44125e-08
-3.14894e-07
-6.00766e-08
-2.72955e-07
-6.49633e-08
-2.29201e-07
-6.91846e-08
-1.83949e-07
-7.27843e-08
-1.3748e-07
-7.5748e-08
-9.0079e-08
-7.80246e-08
-4.20523e-08
-7.95507e-08
6.27012e-09
-8.02736e-08
5.45485e-08
-8.01654e-08
1.02444e-07
-7.92306e-08
1.49632e-07
-7.75042e-08
1.95812e-07
-7.50435e-08
2.40704e-07
-7.19111e-08
2.84021e-07
-6.8151e-08
3.25427e-07
-6.37639e-08
3.64476e-07
-5.86889e-08
4.00569e-07
-5.27962e-08
4.32931e-07
-4.58895e-08
4.606e-07
-3.77085e-08
4.82425e-07
-2.79302e-08
4.97041e-07
-1.61866e-08
5.02853e-07
-2.13471e-09
4.98141e-07
1.42922e-08
4.81411e-07
3.25112e-08
4.51833e-07
5.1254e-08
4.09767e-07
6.86275e-08
3.57401e-07
8.20735e-08
2.98381e-07
8.98145e-08
2.36646e-07
9.17283e-08
1.75574e-07
8.89008e-08
1.17129e-07
8.36084e-08
6.15931e-08
7.83868e-08
7.96444e-09
7.50966e-08
-4.54234e-08
7.46727e-08
-1.00325e-07
7.72373e-08
-1.58015e-07
8.21216e-08
-2.18674e-07
8.77516e-08
-2.80873e-07
9.17413e-08
-3.41619e-07
9.16266e-08
-3.97056e-07
8.58906e-08
-4.43384e-07
7.43382e-08
-4.77833e-07
5.81183e-08
-4.99509e-07
3.97737e-08
-5.08916e-07
2.14369e-08
-5.07359e-07
4.52571e-09
-4.96507e-07
-1.01537e-08
-4.77994e-07
-2.24882e-08
-4.53238e-07
-3.27652e-08
-4.23434e-07
-4.136e-08
-3.89581e-07
-4.86161e-08
-3.52501e-07
-5.4816e-08
-3.1284e-07
-6.01778e-08
-2.71083e-07
-6.48557e-08
-2.27587e-07
-6.89369e-08
-1.82636e-07
-7.24435e-08
-1.36489e-07
-7.5345e-08
-8.94194e-08
-7.758e-08
-4.17291e-08
-7.90801e-08
-7.97907e-08
6.07552e-08
-1.33425e-07
1.14004e-07
-1.32012e-07
1.66327e-07
-1.29388e-07
2.17294e-07
-1.25617e-07
2.66473e-07
-1.20764e-07
3.13419e-07
-1.14874e-07
3.57665e-07
-1.07942e-07
3.98719e-07
-9.99053e-08
4.36064e-07
-9.06336e-08
4.69171e-07
-7.99445e-08
4.97523e-07
-6.76149e-08
5.20649e-07
-5.33924e-08
5.38167e-07
-3.70079e-08
5.49789e-07
-1.81865e-08
5.55136e-07
3.38351e-09
5.53117e-07
2.8137e-08
5.4131e-07
5.6421e-08
5.16511e-07
8.74422e-08
4.76176e-07
1.18212e-07
4.20004e-07
1.44113e-07
3.51191e-07
1.60973e-07
2.75356e-07
1.66847e-07
1.97445e-07
1.6425e-07
1.20283e-07
1.57861e-07
4.45611e-08
1.52026e-07
-3.04089e-08
1.49453e-07
-1.05807e-07
1.51094e-07
-1.82468e-07
1.56276e-07
-2.60004e-07
1.62607e-07
-3.35985e-07
1.65962e-07
-4.0577e-07
1.61544e-07
-4.63664e-07
1.46262e-07
-5.05892e-07
1.21322e-07
-5.32251e-07
9.07405e-08
-5.45057e-07
5.9232e-08
-5.47546e-07
3.0158e-08
-5.42337e-07
4.61008e-09
-5.30686e-07
-1.76667e-08
-5.13018e-07
-3.71129e-08
-4.8962e-07
-5.40391e-08
-4.6088e-07
-6.87106e-08
-4.2728e-07
-8.13913e-08
-3.89358e-07
-9.23345e-08
-3.47667e-07
-1.01768e-07
-3.02749e-07
-1.09881e-07
-2.55124e-07
-1.1681e-07
-2.05283e-07
-1.22625e-07
-1.53695e-07
-1.27336e-07
-1.00815e-07
-1.30905e-07
-4.70927e-08
-1.33273e-07
7.02255e-09
-1.34389e-07
6.10793e-08
-1.34222e-07
1.14627e-07
-1.32778e-07
1.67215e-07
-1.30093e-07
2.18394e-07
-1.26223e-07
2.67706e-07
-1.21223e-07
3.14678e-07
-1.15122e-07
3.5881e-07
-1.07896e-07
3.99577e-07
-9.94555e-08
4.3643e-07
-8.96498e-08
4.68819e-07
-7.82782e-08
4.96215e-07
-6.51049e-08
5.18158e-07
-4.98725e-08
5.34288e-07
-3.23167e-08
5.44322e-07
-1.21685e-08
5.47704e-07
1.091e-08
5.42837e-07
3.73776e-08
5.26816e-07
6.72758e-08
4.96485e-07
9.8958e-08
4.50033e-07
1.28526e-07
3.88547e-07
1.51301e-07
3.16614e-07
1.63661e-07
2.39865e-07
1.65649e-07
1.62416e-07
1.61058e-07
8.61105e-08
1.54692e-07
1.09303e-08
1.50277e-07
-6.41284e-08
1.49731e-07
-1.40198e-07
1.53307e-07
-2.17699e-07
1.59622e-07
-2.95436e-07
1.65489e-07
-3.69986e-07
1.66291e-07
-4.36016e-07
1.57656e-07
-4.88225e-07
1.381e-07
-5.24372e-07
1.10485e-07
-5.45491e-07
7.92375e-08
-5.54452e-07
4.87349e-08
-5.54379e-07
2.13635e-08
-5.47339e-07
-2.51394e-09
-5.34158e-07
-2.33346e-08
-5.1515e-07
-4.14959e-08
-4.90623e-07
-5.72927e-08
-4.60985e-07
-7.09979e-08
-4.26724e-07
-8.28777e-08
-3.88362e-07
-9.3178e-08
-3.46427e-07
-1.02113e-07
-3.01431e-07
-1.09852e-07
-2.53859e-07
-1.16508e-07
-2.04172e-07
-1.22131e-07
-1.5281e-07
-1.26707e-07
-1.00204e-07
-1.30186e-07
-4.67847e-08
-1.32499e-07
-1.33589e-07
6.35901e-08
-1.89671e-07
1.19205e-07
-1.87627e-07
1.73634e-07
-1.83818e-07
2.26327e-07
-1.78311e-07
2.76739e-07
-1.71176e-07
3.24329e-07
-1.62464e-07
3.68571e-07
-1.52184e-07
4.08956e-07
-1.40291e-07
4.45008e-07
-1.26685e-07
4.76288e-07
-1.11225e-07
5.0241e-07
-9.37371e-08
5.23048e-07
-7.40305e-08
5.37938e-07
-5.18972e-08
5.46849e-07
-2.7098e-08
5.49536e-07
6.9672e-10
5.45714e-07
3.19586e-08
5.35091e-07
6.70445e-08
5.16967e-07
1.05566e-07
4.88939e-07
1.46239e-07
4.46556e-07
1.86496e-07
3.86913e-07
2.20616e-07
3.12043e-07
2.41717e-07
2.28171e-07
2.48122e-07
1.408e-07
2.45232e-07
5.26732e-08
2.40152e-07
-3.54316e-08
2.37558e-07
-1.2342e-07
2.39082e-07
-2.10726e-07
2.43581e-07
-2.95055e-07
2.46936e-07
-3.71378e-07
2.42285e-07
-4.33274e-07
2.2344e-07
-4.77796e-07
1.90784e-07
-5.07196e-07
1.50722e-07
-5.25998e-07
1.09543e-07
-5.36989e-07
7.02232e-08
-5.41031e-07
3.41995e-08
-5.38434e-07
2.01278e-09
-5.29484e-07
-2.66164e-08
-5.14438e-07
-5.21586e-08
-4.93533e-07
-7.49449e-08
-4.67037e-07
-9.52065e-08
-4.35286e-07
-1.13142e-07
-3.98682e-07
-1.28939e-07
-3.57682e-07
-1.42768e-07
-3.12789e-07
-1.54775e-07
-2.64537e-07
-1.65062e-07
-2.13482e-07
-1.7368e-07
-1.60192e-07
-1.80625e-07
-1.05241e-07
-1.85856e-07
-4.92043e-08
-1.8931e-07
7.33885e-09
-1.90932e-07
6.38065e-08
-1.9069e-07
1.19617e-07
-1.88589e-07
1.74193e-07
-1.84668e-07
2.26958e-07
-1.78988e-07
2.7734e-07
-1.71605e-07
3.24774e-07
-1.62556e-07
3.68708e-07
-1.5183e-07
4.08614e-07
-1.39362e-07
4.44e-07
-1.25036e-07
4.74423e-07
-1.08701e-07
4.99497e-07
-9.0179e-08
5.18905e-07
-6.92801e-08
5.3239e-07
-4.58012e-08
5.39715e-07
-1.94941e-08
5.40615e-07
1.00104e-08
5.34802e-07
4.319e-08
5.21916e-07
8.01621e-08
5.00737e-07
1.20137e-07
4.67836e-07
1.61427e-07
4.18834e-07
2.00302e-07
3.52683e-07
2.29812e-07
2.73655e-07
2.44678e-07
1.88186e-07
2.46527e-07
1.00575e-07
2.42302e-07
1.25406e-08
2.38312e-07
-7.55869e-08
2.37859e-07
-1.63648e-07
2.41368e-07
-2.50482e-07
2.46457e-07
-3.32644e-07
2.47651e-07
-4.04062e-07
2.3771e-07
-4.59183e-07
2.12777e-07
-4.97407e-07
1.76324e-07
-5.22481e-07
1.3556e-07
-5.3852e-07
9.52761e-08
-5.4734e-07
5.75548e-08
-5.49442e-07
2.34653e-08
-5.4511e-07
-6.84607e-09
-5.34621e-07
-3.38231e-08
-5.18213e-07
-5.79038e-08
-4.9612e-07
-7.93861e-08
-4.68621e-07
-9.8497e-08
-4.36059e-07
-1.1544e-07
-3.98835e-07
-1.30402e-07
-3.57397e-07
-1.4355e-07
-3.12233e-07
-1.55016e-07
-2.63856e-07
-1.64885e-07
-2.12798e-07
-1.73189e-07
-1.596e-07
-1.79906e-07
-1.04808e-07
-1.84977e-07
-4.89751e-08
-1.88332e-07
-1.89908e-07
6.41888e-08
-2.46444e-07
1.20227e-07
-2.43665e-07
1.74888e-07
-2.38479e-07
2.27541e-07
-2.30964e-07
2.77574e-07
-2.21209e-07
3.24398e-07
-2.09288e-07
3.6746e-07
-1.95246e-07
4.06251e-07
-1.79081e-07
4.40313e-07
-1.60747e-07
4.69245e-07
-1.40156e-07
4.92698e-07
-1.1719e-07
5.10377e-07
-9.17101e-08
5.22032e-07
-6.35518e-08
5.27454e-07
-3.25198e-08
5.26513e-07
1.63738e-09
5.19259e-07
3.9213e-08
5.05943e-07
8.03605e-08
4.867e-07
1.2481e-07
4.61073e-07
1.71866e-07
4.27373e-07
2.20196e-07
3.8138e-07
2.66609e-07
3.18241e-07
3.04856e-07
2.38915e-07
3.27448e-07
1.49866e-07
3.3428e-07
5.66685e-08
3.3335e-07
-3.76416e-08
3.31868e-07
-1.31034e-07
3.32475e-07
-2.20795e-07
3.33342e-07
-3.01879e-07
3.2802e-07
-3.67596e-07
3.08002e-07
-4.15754e-07
2.71598e-07
-4.50594e-07
2.25625e-07
-4.76791e-07
1.76918e-07
-4.96355e-07
1.29108e-07
-5.09878e-07
8.37454e-08
-5.1728e-07
4.1602e-08
-5.18298e-07
3.03112e-09
-5.12854e-07
-3.2061e-08
-5.01064e-07
-6.3948e-08
-4.8314e-07
-9.28697e-08
-4.59337e-07
-1.19009e-07
-4.29963e-07
-1.42516e-07
-3.9538e-07
-1.63522e-07
-3.56009e-07
-1.82139e-07
-3.12333e-07
-1.98451e-07
-2.64889e-07
-2.12506e-07
-2.1426e-07
-2.24308e-07
-1.61066e-07
-2.3382e-07
-1.0595e-07
-2.40972e-07
-4.95722e-08
-2.45688e-07
7.39464e-09
-2.47899e-07
6.42736e-08
-2.47569e-07
1.20388e-07
-2.44703e-07
1.75069e-07
-2.39349e-07
2.27659e-07
-2.31577e-07
2.7752e-07
-2.21467e-07
3.24041e-07
-2.09078e-07
3.6665e-07
-1.94439e-07
4.04823e-07
-1.77534e-07
4.38093e-07
-1.58306e-07
4.66053e-07
-1.36662e-07
4.88357e-07
-1.12483e-07
5.04712e-07
-8.56349e-08
5.14872e-07
-5.59608e-08
5.18643e-07
-2.32657e-08
5.15948e-07
1.27053e-08
5.06929e-07
5.22097e-08
4.91848e-07
9.52424e-08
4.70654e-07
1.41331e-07
4.42496e-07
1.89586e-07
4.04759e-07
2.38039e-07
3.52244e-07
2.82328e-07
2.82024e-07
3.14897e-07
1.98042e-07
3.3051e-07
1.06971e-07
3.33373e-07
1.31376e-08
3.32145e-07
-8.10884e-08
3.32085e-07
-1.73581e-07
3.33861e-07
-2.60754e-07
3.3363e-07
-3.36381e-07
3.23277e-07
-3.94851e-07
2.9618e-07
-4.37083e-07
2.55009e-07
-4.68402e-07
2.07643e-07
-4.92276e-07
1.59433e-07
-5.09965e-07
1.12965e-07
-5.21731e-07
6.93213e-08
-5.27362e-07
2.90963e-08
-5.26643e-07
-7.56505e-09
-5.19583e-07
-4.08836e-08
-5.06338e-07
-7.11485e-08
-4.8713e-07
-9.85944e-08
-4.6222e-07
-1.23407e-07
-4.31917e-07
-1.45743e-07
-3.96583e-07
-1.65737e-07
-3.56633e-07
-1.835e-07
-3.1254e-07
-1.99109e-07
-2.64825e-07
-2.126e-07
-2.14052e-07
-2.23962e-07
-1.60816e-07
-2.33142e-07
-1.05734e-07
-2.40059e-07
-4.94423e-08
-2.44624e-07
-2.46766e-07
6.30277e-08
-3.02188e-07
1.17965e-07
-2.98602e-07
1.71394e-07
-2.91908e-07
2.22633e-07
-2.82203e-07
2.71031e-07
-2.69606e-07
3.15975e-07
-2.54233e-07
3.56905e-07
-2.36176e-07
3.93318e-07
-2.15495e-07
4.24777e-07
-1.92206e-07
4.50908e-07
-1.66287e-07
4.714e-07
-1.37683e-07
4.85997e-07
-1.06307e-07
4.94494e-07
-7.20486e-08
4.96746e-07
-3.47719e-08
4.92706e-07
5.67703e-09
4.82489e-07
4.94302e-08
4.66384e-07
9.6466e-08
4.44736e-07
1.46457e-07
4.17832e-07
1.9877e-07
3.85579e-07
2.52449e-07
3.46366e-07
3.05822e-07
2.95901e-07
3.55321e-07
2.2916e-07
3.94189e-07
1.47207e-07
4.16234e-07
5.64637e-08
4.24093e-07
-3.7097e-08
4.25429e-07
-1.28568e-07
4.23946e-07
-2.12296e-07
4.17069e-07
-2.81647e-07
3.97371e-07
-3.34281e-07
3.60636e-07
-3.74601e-07
3.11918e-07
-4.07352e-07
2.58376e-07
-4.3454e-07
2.04106e-07
-4.56407e-07
1.50975e-07
-4.72688e-07
1.00027e-07
-4.83036e-07
5.19506e-08
-4.87144e-07
7.13913e-09
-4.84873e-07
-3.43327e-08
-4.76256e-07
-7.25651e-08
-4.61436e-07
-1.0769e-07
-4.40623e-07
-1.39822e-07
-4.14083e-07
-1.69056e-07
-3.82143e-07
-1.95462e-07
-3.45196e-07
-2.19086e-07
-3.03703e-07
-2.39944e-07
-2.58196e-07
-2.58014e-07
-2.09266e-07
-2.73238e-07
-1.57559e-07
-2.85527e-07
-1.03758e-07
-2.94773e-07
-4.85787e-08
-3.00867e-07
7.24705e-09
-3.03725e-07
6.29764e-08
-3.03298e-07
1.17868e-07
-2.99595e-07
1.71193e-07
-2.92674e-07
2.22245e-07
-2.82629e-07
2.70347e-07
-2.69569e-07
3.14868e-07
-2.53598e-07
3.5523e-07
-2.34801e-07
3.90919e-07
-2.13224e-07
4.21493e-07
-1.8888e-07
4.46575e-07
-1.61744e-07
4.65856e-07
-1.31764e-07
4.79084e-07
-9.88626e-08
4.86064e-07
-6.2941e-08
4.86677e-07
-2.38781e-08
4.80926e-07
1.84559e-08
4.69002e-07
6.41337e-08
4.51238e-07
1.13007e-07
4.27969e-07
1.64599e-07
3.99405e-07
2.1815e-07
3.64985e-07
2.72459e-07
3.22031e-07
3.25282e-07
2.65264e-07
3.71664e-07
1.91659e-07
4.04115e-07
1.05278e-07
4.19753e-07
1.27851e-08
4.24639e-07
-8.05261e-08
4.25396e-07
-1.69633e-07
4.22967e-07
-2.48149e-07
4.12146e-07
-3.10439e-07
3.85568e-07
-3.57413e-07
3.43154e-07
-3.94521e-07
2.92117e-07
-4.25316e-07
2.38438e-07
-4.50872e-07
1.84989e-07
-4.7111e-07
1.33203e-07
-4.85718e-07
8.39293e-08
-4.9435e-07
3.77287e-08
-4.96756e-07
-5.15909e-09
-4.92869e-07
-4.47705e-08
-4.82768e-07
-8.12497e-08
-4.66615e-07
-1.14748e-07
-4.44628e-07
-1.45394e-07
-4.17078e-07
-1.73293e-07
-3.84291e-07
-1.98524e-07
-3.46656e-07
-2.21134e-07
-3.0463e-07
-2.41135e-07
-2.58729e-07
-2.58501e-07
-2.09531e-07
-2.73161e-07
-1.57657e-07
-2.85016e-07
-1.03769e-07
-2.93947e-07
-4.85531e-08
-2.9984e-07
-3.02603e-07
6.04211e-08
-3.55624e-07
1.13008e-07
-3.5119e-07
1.64011e-07
-3.4291e-07
2.12722e-07
-3.30914e-07
2.58474e-07
-3.15358e-07
3.0065e-07
-2.96409e-07
3.38696e-07
-2.74222e-07
3.72126e-07
-2.48925e-07
4.00529e-07
-2.20608e-07
4.23562e-07
-1.8932e-07
4.40952e-07
-1.55073e-07
4.52488e-07
-1.17843e-07
4.58019e-07
-7.75802e-08
4.57469e-07
-3.42216e-08
4.50858e-07
1.2288e-08
4.38343e-07
6.19455e-08
4.20215e-07
1.14594e-07
3.96836e-07
1.69836e-07
3.68585e-07
2.27021e-07
3.35786e-07
2.85248e-07
2.98357e-07
3.43251e-07
2.54658e-07
3.9902e-07
2.00423e-07
4.48424e-07
1.31854e-07
4.84803e-07
5.14946e-08
5.04452e-07
-3.34484e-08
5.10372e-07
-1.15081e-07
5.05579e-07
-1.85912e-07
4.87901e-07
-2.4226e-07
4.53719e-07
-2.87096e-07
4.05472e-07
-3.25015e-07
3.49837e-07
-3.58096e-07
2.91457e-07
-3.86568e-07
2.32579e-07
-4.10137e-07
1.74543e-07
-4.2842e-07
1.1831e-07
-4.41048e-07
6.45791e-08
-4.47714e-07
1.3805e-08
-4.48242e-07
-3.38046e-08
-4.42599e-07
-7.8208e-08
-4.3086e-07
-1.19429e-07
-4.13178e-07
-1.57504e-07
-3.89773e-07
-1.9246e-07
-3.60934e-07
-2.24301e-07
-3.27021e-07
-2.52999e-07
-2.88471e-07
-2.78493e-07
-2.45798e-07
-3.00687e-07
-1.99588e-07
-3.19448e-07
-1.5049e-07
-3.34625e-07
-9.92051e-08
-3.46057e-07
-4.6475e-08
-3.53597e-07
6.93358e-09
-3.57133e-07
6.02408e-08
-3.56605e-07
1.12669e-07
-3.52023e-07
1.63456e-07
-3.43461e-07
2.11871e-07
-3.31043e-07
2.57224e-07
-3.14921e-07
2.98881e-07
-2.95255e-07
3.36274e-07
-2.72194e-07
3.6891e-07
-2.4586e-07
3.96371e-07
-2.16341e-07
4.18315e-07
-1.83689e-07
4.34474e-07
-1.47923e-07
4.44643e-07
-1.09032e-07
4.48688e-07
-6.69856e-08
4.46557e-07
-2.17481e-08
4.3832e-07
2.66934e-08
4.24189e-07
7.82647e-08
4.04496e-07
1.327e-07
3.79617e-07
1.89478e-07
3.49929e-07
2.47838e-07
3.15654e-07
3.06734e-07
2.76252e-07
3.64684e-07
2.28934e-07
4.18982e-07
1.68859e-07
4.6419e-07
9.46203e-08
4.93992e-07
1.13717e-08
5.07887e-07
-7.31378e-08
5.09906e-07
-1.51031e-07
5.00861e-07
-2.15828e-07
4.76943e-07
-2.66813e-07
4.36553e-07
-3.08572e-07
3.84913e-07
-3.44736e-07
3.28281e-07
-3.76371e-07
2.70072e-07
-4.03392e-07
2.1201e-07
-4.25441e-07
1.55253e-07
-4.42143e-07
1.00631e-07
-4.53146e-07
4.87313e-08
-4.58188e-07
-1.16458e-10
-4.57153e-07
-4.58057e-08
-4.50048e-07
-8.83548e-08
-4.36971e-07
-1.27824e-07
-4.18089e-07
-1.64276e-07
-3.9363e-07
-1.97753e-07
-3.63883e-07
-2.28271e-07
-3.29208e-07
-2.55809e-07
-2.90036e-07
-2.80307e-07
-2.46873e-07
-3.01664e-07
-2.00289e-07
-3.19745e-07
-1.50915e-07
-3.3439e-07
-9.94296e-08
-3.45432e-07
-4.65495e-08
-3.5272e-07
-3.56138e-07
5.66409e-08
-4.05715e-07
1.05866e-07
-4.00415e-07
1.53479e-07
-3.90523e-07
1.98767e-07
-3.76202e-07
2.41064e-07
-3.57655e-07
2.79766e-07
-3.35111e-07
3.14336e-07
-3.08793e-07
3.44318e-07
-2.78907e-07
3.69331e-07
-2.4562e-07
3.89072e-07
-2.09061e-07
4.03313e-07
-1.69314e-07
4.11893e-07
-1.26423e-07
4.14721e-07
-8.04079e-08
4.1178e-07
-3.1281e-08
4.03147e-07
2.09211e-08
3.89007e-07
7.60853e-08
3.69653e-07
1.33949e-07
3.45447e-07
1.94042e-07
3.16793e-07
2.55675e-07
2.84103e-07
3.17938e-07
2.47687e-07
3.79667e-07
2.07397e-07
4.39311e-07
1.61563e-07
4.94258e-07
1.06817e-07
5.39549e-07
4.2268e-08
5.69002e-07
-2.7011e-08
5.79651e-07
-9.28498e-08
5.71418e-07
-1.49286e-07
5.44336e-07
-1.96218e-07
5.00651e-07
-2.37e-07
4.46254e-07
-2.73679e-07
3.86516e-07
-3.06574e-07
3.24352e-07
-3.35407e-07
2.61411e-07
-3.59771e-07
1.98906e-07
-3.79254e-07
1.37793e-07
-3.93484e-07
7.88091e-08
-4.02155e-07
2.24757e-08
-4.05066e-07
-3.08935e-08
-4.02132e-07
-8.11421e-08
-3.93365e-07
-1.28196e-07
-3.78859e-07
-1.7201e-07
-3.58783e-07
-2.12537e-07
-3.33379e-07
-2.49704e-07
-3.0297e-07
-2.83409e-07
-2.67957e-07
-3.13506e-07
-2.28828e-07
-3.39816e-07
-1.86148e-07
-3.62128e-07
-1.40556e-07
-3.80217e-07
-9.27502e-08
-3.93863e-07
-4.34768e-08
-4.02871e-07
6.4865e-09
-4.07096e-07
5.63467e-08
-4.06466e-07
1.05313e-07
-4.0099e-07
1.52615e-07
-3.90763e-07
1.97517e-07
-3.75945e-07
2.39334e-07
-3.56739e-07
2.77447e-07
-3.33368e-07
3.11309e-07
-3.06056e-07
3.40455e-07
-2.75006e-07
3.64504e-07
-2.4039e-07
3.83155e-07
-2.0234e-07
3.96185e-07
-1.60952e-07
4.03444e-07
-1.16291e-07
4.04859e-07
-6.84002e-08
4.0044e-07
-1.73293e-08
3.90302e-07
3.68315e-08
3.74675e-07
9.38919e-08
3.53886e-07
1.53489e-07
3.28321e-07
2.15043e-07
2.98396e-07
2.77763e-07
2.645e-07
3.40629e-07
2.26832e-07
4.02353e-07
1.84744e-07
4.6107e-07
1.35633e-07
5.13301e-07
7.64882e-08
5.53137e-07
9.00248e-09
5.75373e-07
-5.97968e-08
5.78705e-07
-1.22054e-07
5.63118e-07
-1.74187e-07
5.29075e-07
-2.1829e-07
4.80656e-07
-2.57499e-07
4.24122e-07
-2.92964e-07
3.63746e-07
-3.24642e-07
3.0175e-07
-3.52179e-07
2.39547e-07
-3.75161e-07
1.78235e-07
-3.93192e-07
1.18662e-07
-4.05923e-07
6.14624e-08
-4.13088e-07
7.04795e-09
-4.1453e-07
-4.43633e-08
-4.102e-07
-9.26845e-08
-4.00135e-07
-1.37889e-07
-3.84444e-07
-1.79967e-07
-3.63306e-07
-2.18891e-07
-3.36967e-07
-2.54609e-07
-3.05751e-07
-2.87025e-07
-2.70057e-07
-3.16e-07
-2.30364e-07
-3.41356e-07
-1.87228e-07
-3.62882e-07
-1.41268e-07
-3.80349e-07
-9.31647e-08
-3.93535e-07
-4.3641e-08
-4.02244e-07
-4.06329e-07
5.19083e-08
-4.51619e-07
9.69527e-08
-4.45459e-07
1.40399e-07
-4.3397e-07
1.81547e-07
-4.1735e-07
2.1975e-07
-3.95858e-07
2.54428e-07
-3.69788e-07
2.85075e-07
-3.39441e-07
3.1127e-07
-3.05102e-07
3.32674e-07
-2.67024e-07
3.49029e-07
-2.25416e-07
3.60155e-07
-1.8044e-07
3.65948e-07
-1.32216e-07
3.66374e-07
-8.08343e-08
3.61477e-07
-2.63837e-08
3.51383e-07
3.10155e-08
3.3631e-07
9.11586e-08
3.16562e-07
1.53696e-07
2.92512e-07
2.18092e-07
2.64582e-07
2.83605e-07
2.33233e-07
3.49287e-07
1.98941e-07
4.13959e-07
1.62109e-07
4.76143e-07
1.22673e-07
5.33694e-07
7.94638e-08
5.82758e-07
3.13591e-08
6.17107e-07
-1.95057e-08
6.30516e-07
-6.83263e-08
6.20238e-07
-1.12263e-07
5.88273e-07
-1.52061e-07
5.40449e-07
-1.8906e-07
4.83253e-07
-2.23481e-07
4.20937e-07
-2.54956e-07
3.55827e-07
-2.83009e-07
2.89465e-07
-3.07171e-07
2.23068e-07
-3.27009e-07
1.57631e-07
-3.42141e-07
9.3941e-08
-3.5225e-07
3.25847e-08
-3.57106e-07
-2.60375e-08
-3.56574e-07
-8.1674e-08
-3.50608e-07
-1.34162e-07
-3.39242e-07
-1.83376e-07
-3.22589e-07
-2.2919e-07
-3.0084e-07
-2.71453e-07
-2.74272e-07
-3.09977e-07
-2.43245e-07
-3.44533e-07
-2.08209e-07
-3.74852e-07
-1.69697e-07
-4.00639e-07
-1.28324e-07
-4.21591e-07
-8.47667e-08
-4.3742e-07
-3.97589e-08
-4.47879e-07
5.93192e-09
-4.52787e-07
5.15207e-08
-4.52054e-07
9.62249e-08
-4.45694e-07
1.39284e-07
-4.33822e-07
1.79978e-07
-4.16639e-07
2.17644e-07
-3.94405e-07
2.51689e-07
-3.67413e-07
2.81599e-07
-3.35966e-07
3.06948e-07
-3.00356e-07
3.27397e-07
-2.60839e-07
3.42694e-07
-2.17636e-07
3.52666e-07
-1.70925e-07
3.57222e-07
-1.20847e-07
3.56348e-07
-6.7526e-08
3.50112e-07
-1.10934e-08
3.38674e-07
4.82702e-08
3.22286e-07
1.10279e-07
3.01286e-07
1.74488e-07
2.7607e-07
2.40259e-07
2.47082e-07
3.06751e-07
2.14796e-07
3.72916e-07
1.79681e-07
4.37467e-07
1.42018e-07
4.98733e-07
1.01311e-07
5.54008e-07
5.60646e-08
5.98383e-07
6.28424e-09
6.25153e-07
-4.42872e-08
6.29276e-07
-9.11524e-08
6.09983e-07
-1.33214e-07
5.71137e-07
-1.71912e-07
5.19353e-07
-2.08108e-07
4.60318e-07
-2.4168e-07
3.97318e-07
-2.72186e-07
3.32256e-07
-2.99151e-07
2.66512e-07
-3.22121e-07
2.01204e-07
-3.40685e-07
1.37227e-07
-3.54489e-07
7.5266e-08
-3.63248e-07
1.58068e-08
-3.66768e-07
-4.08431e-08
-3.64946e-07
-9.45068e-08
-3.57758e-07
-1.45077e-07
-3.45258e-07
-1.92467e-07
-3.27569e-07
-2.36581e-07
-3.04889e-07
-2.77288e-07
-2.77499e-07
-3.14415e-07
-2.45758e-07
-3.47741e-07
-2.10111e-07
-3.77004e-07
-1.71082e-07
-4.01911e-07
-1.29271e-07
-4.22161e-07
-8.53386e-08
-4.37467e-07
-3.99981e-08
-4.47584e-07
-4.52332e-07
4.64056e-08
-4.92654e-07
8.66087e-08
-4.85662e-07
1.25267e-07
-4.72628e-07
1.61708e-07
-4.53791e-07
1.95317e-07
-4.29468e-07
2.25552e-07
-4.00023e-07
2.51948e-07
-3.65837e-07
2.74127e-07
-3.27281e-07
2.91797e-07
-2.84694e-07
3.04751e-07
-2.3837e-07
3.12863e-07
-1.88553e-07
3.16085e-07
-1.35437e-07
3.14442e-07
-7.91907e-08
3.08033e-07
-1.99747e-08
2.97035e-07
4.2013e-08
2.81706e-07
1.06487e-07
2.62378e-07
1.73024e-07
2.39446e-07
2.41023e-07
2.13369e-07
3.09683e-07
1.84665e-07
3.77991e-07
1.53925e-07
4.44698e-07
1.21819e-07
5.08248e-07
8.89967e-08
5.66516e-07
5.57081e-08
6.16047e-07
2.16639e-08
6.51151e-07
-1.29346e-08
6.65114e-07
-4.70856e-08
6.54389e-07
-8.03895e-08
6.21577e-07
-1.13139e-07
5.73199e-07
-1.45189e-07
5.15303e-07
-1.75922e-07
4.51669e-07
-2.04653e-07
3.84558e-07
-2.30775e-07
3.15587e-07
-2.53755e-07
2.46048e-07
-2.73122e-07
1.76999e-07
-2.88469e-07
1.09288e-07
-2.99452e-07
4.35678e-08
-3.05804e-07
-1.96859e-08
-3.07339e-07
-8.01386e-08
-3.03955e-07
-1.37546e-07
-2.95627e-07
-1.91704e-07
-2.82409e-07
-2.42407e-07
-2.64439e-07
-2.89423e-07
-2.4194e-07
-3.32476e-07
-2.15225e-07
-3.71248e-07
-1.84698e-07
-4.0538e-07
-1.5085e-07
-4.34487e-07
-1.14255e-07
-4.58185e-07
-7.55595e-08
-4.76115e-07
-3.54641e-08
-4.87974e-07
5.29118e-09
-4.93542e-07
4.59478e-08
-4.92711e-07
8.57501e-08
-4.85496e-07
1.23966e-07
-4.72039e-07
1.59908e-07
-4.52581e-07
1.92947e-07
-4.27443e-07
2.22529e-07
-3.96995e-07
2.48186e-07
-3.61623e-07
2.69536e-07
-3.21706e-07
2.86291e-07
-2.77594e-07
2.9825e-07
-2.29595e-07
3.05298e-07
-1.77973e-07
3.074e-07
-1.22949e-07
3.04602e-07
-6.47277e-08
2.97027e-07
-3.51903e-09
2.84883e-07
6.04146e-08
2.68456e-07
1.26706e-07
2.48109e-07
1.94836e-07
2.24266e-07
2.64103e-07
1.97411e-07
3.33605e-07
1.68098e-07
4.02229e-07
1.36956e-07
4.6861e-07
1.04676e-07
5.31013e-07
7.17968e-08
5.86887e-07
3.82959e-08
6.31884e-07
3.94338e-09
6.59506e-07
-3.0594e-08
6.63814e-07
-6.44162e-08
6.43805e-07
-9.75689e-08
6.0429e-07
-1.30253e-07
5.52038e-07
-1.62071e-07
4.92136e-07
-1.92344e-07
4.27591e-07
-2.20419e-07
3.60331e-07
-2.45726e-07
2.91819e-07
-2.67761e-07
2.2324e-07
-2.86085e-07
1.5555e-07
-3.00316e-07
8.94967e-08
-3.1014e-07
2.56315e-08
-3.15323e-07
-3.56606e-08
-3.15707e-07
-9.41231e-08
-3.11211e-07
-1.49572e-07
-3.0183e-07
-2.01848e-07
-2.87633e-07
-2.50778e-07
-2.68766e-07
-2.96156e-07
-2.45457e-07
-3.37724e-07
-2.18022e-07
-3.75177e-07
-1.8686e-07
-4.08165e-07
-1.52458e-07
-4.36313e-07
-1.15378e-07
-4.59241e-07
-7.6251e-08
-4.76594e-07
-3.57612e-08
-4.88074e-07
-4.93463e-07
4.02797e-08
-5.2827e-07
7.51097e-08
-5.20493e-07
1.08482e-07
-5.06001e-07
1.39769e-07
-4.85077e-07
1.68401e-07
-4.58099e-07
1.93882e-07
-4.25504e-07
2.15798e-07
-3.87753e-07
2.33821e-07
-3.45304e-07
2.47713e-07
-2.98586e-07
2.57319e-07
-2.47977e-07
2.62569e-07
-1.93803e-07
2.6347e-07
-1.36338e-07
2.60103e-07
-7.58244e-08
2.52625e-07
-1.2496e-08
2.41261e-07
5.33771e-08
2.26311e-07
1.21437e-07
2.08142e-07
1.91193e-07
1.87187e-07
2.61979e-07
1.63941e-07
3.32928e-07
1.3898e-07
4.02953e-07
1.12974e-07
4.70704e-07
8.67187e-08
5.34504e-07
6.11087e-08
5.92126e-07
3.68842e-08
6.40271e-07
1.41194e-08
6.73916e-07
-7.95488e-09
6.87189e-07
-3.04917e-08
6.76926e-07
-5.43652e-08
6.4545e-07
-7.96486e-08
5.98482e-07
-1.05671e-07
5.41326e-07
-1.31531e-07
4.77529e-07
-1.56407e-07
4.09434e-07
-1.79604e-07
3.38785e-07
-2.00532e-07
2.66976e-07
-2.18678e-07
1.95145e-07
-2.33599e-07
1.24208e-07
-2.44915e-07
5.48836e-08
-2.52316e-07
-1.2284e-08
-2.5557e-07
-7.68855e-08
-2.54515e-07
-1.38601e-07
-2.49071e-07
-1.97149e-07
-2.39234e-07
-2.52244e-07
-2.25086e-07
-3.03571e-07
-2.06794e-07
-3.50768e-07
-1.84617e-07
-3.93425e-07
-1.58905e-07
-4.31092e-07
-1.30099e-07
-4.63293e-07
-9.87224e-08
-4.89562e-07
-6.53732e-08
-5.09465e-07
-3.07067e-08
-5.22641e-07
4.58138e-09
-5.28831e-07
3.97765e-08
-5.27906e-07
7.4167e-08
-5.19887e-07
1.07066e-07
-5.04937e-07
1.3783e-07
-4.83345e-07
1.65881e-07
-4.55494e-07
1.90715e-07
-4.21829e-07
2.11915e-07
-3.82823e-07
2.29153e-07
-3.38944e-07
2.42195e-07
-2.90636e-07
2.50896e-07
-2.38297e-07
2.55198e-07
-1.82274e-07
2.55124e-07
-1.22875e-07
2.50776e-07
-6.03799e-08
2.42333e-07
4.92382e-09
2.3005e-07
7.26982e-08
2.14253e-07
1.42502e-07
1.9534e-07
2.13749e-07
1.7377e-07
2.85672e-07
1.50076e-07
3.57299e-07
1.24873e-07
4.27432e-07
9.88872e-08
4.94596e-07
7.29712e-08
5.56929e-07
4.80117e-08
6.11847e-07
2.45306e-08
6.55365e-07
2.22038e-09
6.81816e-07
-1.99267e-08
6.85961e-07
-4.30257e-08
6.66904e-07
-6.76528e-08
6.28917e-07
-9.35155e-08
5.77901e-07
-1.1979e-07
5.18411e-07
-1.45595e-07
4.53396e-07
-1.7017e-07
3.84906e-07
-1.92872e-07
3.14521e-07
-2.13148e-07
2.43516e-07
-2.30518e-07
1.7292e-07
-2.44567e-07
1.03546e-07
-2.54946e-07
3.60103e-08
-2.61373e-07
-2.92333e-08
-2.6364e-07
-9.18556e-08
-2.61612e-07
-1.516e-07
-2.55226e-07
-2.08234e-07
-2.44494e-07
-2.6151e-07
-2.29508e-07
-3.11141e-07
-2.10445e-07
-3.56788e-07
-1.87565e-07
-3.98056e-07
-1.6122e-07
-4.3451e-07
-1.31846e-07
-4.65687e-07
-9.99591e-08
-4.91128e-07
-6.61444e-08
-5.10409e-07
-3.10437e-08
-5.23175e-07
-5.2917e-07
3.3649e-08
-5.58021e-07
6.26775e-08
-5.49521e-07
9.03688e-08
-5.33692e-07
1.16151e-07
-5.1086e-07
1.39514e-07
-4.81462e-07
1.60018e-07
-4.46007e-07
1.77306e-07
-4.05041e-07
1.91107e-07
-3.59106e-07
2.01238e-07
-3.08716e-07
2.076e-07
-2.54338e-07
2.10175e-07
-1.96378e-07
2.09026e-07
-1.35189e-07
2.04288e-07
-7.10855e-08
1.96164e-07
-4.37265e-09
1.8493e-07
6.4611e-08
1.70926e-07
1.35442e-07
1.54552e-07
2.07566e-07
1.36272e-07
2.80258e-07
1.16615e-07
3.52586e-07
9.61835e-08
4.23384e-07
7.56739e-08
4.91214e-07
5.58878e-08
5.5429e-07
3.76982e-08
6.10316e-07
2.18181e-08
6.56151e-07
8.24248e-09
6.87491e-07
-4.21426e-09
6.99645e-07
-1.74508e-08
6.90163e-07
-3.28399e-08
6.6084e-07
-5.05681e-08
6.1621e-07
-6.99913e-08
5.60749e-07
-9.02327e-08
4.9777e-07
-1.10469e-07
4.2967e-07
-1.29984e-07
3.58299e-07
-1.48156e-07
2.85147e-07
-1.64442e-07
2.11431e-07
-1.78366e-07
1.38133e-07
-1.89516e-07
6.60336e-08
-1.97542e-07
-4.25859e-09
-2.02161e-07
-7.22661e-08
-2.03164e-07
-1.37598e-07
-2.00415e-07
-1.99898e-07
-1.93856e-07
-2.58803e-07
-1.83511e-07
-3.13916e-07
-1.69491e-07
-3.64788e-07
-1.51996e-07
-4.1092e-07
-1.31319e-07
-4.51769e-07
-1.0784e-07
-4.86773e-07
-8.20218e-08
-5.1538e-07
-5.44028e-08
-5.37084e-07
-2.55782e-08
-5.51465e-07
3.81618e-09
-5.58225e-07
3.31253e-08
-5.57215e-07
6.16971e-08
-5.48459e-07
8.89042e-08
-5.32144e-07
1.14165e-07
-5.08606e-07
1.36959e-07
-4.78289e-07
1.56844e-07
-4.41714e-07
1.73462e-07