/*--------------------------------*- C++ -*----------------------------------*\
| =========                 |                                                 |
| \\      /  F ield         | OpenFOAM: The Open Source CFD Toolbox           |
|  \\    /   O peration     | Version:  2.3.0                                 |
|   \\  /    A nd           | Web:      www.OpenFOAM.org                      |
|    \\/     M anipulation  |                                                 |
\*---------------------------------------------------------------------------*/
FoamFile
{
    version     2.0;
    format      ascii;
    class       volScalarField;
    location    "10000";
    object      T;
}
// * * * * * * * * * * * * * * * * * * * * * * * * * * * * * * * * * * * * * //

dimensions      [0 0 0 1 0 0 0];

internalField   nonuniform List<scalar> 
765
(
31.4903
31.6145
31.8321
32.1311
32.5022
32.9357
33.4108
33.8464
34.2709
34.6794
35.045
35.3213
35.4457
35.3644
35.1167
34.7669
34.3655
33.9439
33.5103
33.0402
32.5952
32.209
31.8926
31.655
31.5075
31.4643
31.537
31.7097
31.9691
32.3047
32.7073
33.1632
33.6225
34.054
34.4728
34.8649
35.1939
35.4048
35.4326
35.2625
34.9577
34.5772
34.1625
33.7337
33.2858
32.8197
32.4014
32.048
31.7686
31.5735
31.475
23.1579
23.453
23.9671
24.6722
25.5471
26.5748
27.733
28.9729
30.206
31.3803
32.4158
33.199
33.562
33.3231
32.6177
31.6295
30.4797
29.2599
28.0272
26.8292
25.7662
24.8544
24.1084
23.5474
23.1975
23.0943
23.2676
23.6768
24.289
25.0801
26.0321
27.1288
28.346
29.5816
30.7894
31.9079
32.8359
33.4404
33.5228
33.031
32.17
31.0889
29.8953
28.6582
27.4277
26.2997
25.3094
24.4761
23.8173
23.3556
23.1214
17.2523
17.65
18.3393
19.2779
20.4363
21.7978
23.3519
25.0809
26.9047
28.7039
30.3012
31.4997
32.0536
31.6883
30.61
29.0861
27.3157
25.4859
23.7278
22.1305
20.7239
19.518
18.5268
17.776
17.3047
17.1656
17.3995
17.9497
18.7676
19.8173
21.0767
22.5342
24.1803
25.964
27.7919
29.517
30.9448
31.8676
31.9938
31.2435
29.9225
28.2546
26.4357
24.6287
22.9394
21.4329
20.1221
19.0177
18.1391
17.5191
17.2032
13.533
14.0024
14.8093
15.8916
17.206
18.7341
20.4799
22.4597
24.6104
26.7782
28.7363
30.2069
30.8731
30.4352
29.1157
27.2412
25.098
22.9267
20.8975
19.1032
17.5283
16.1654
15.027
14.1508
13.5952
13.4314
13.7074
14.3551
15.3059
16.5063
17.9254
19.557
21.4116
23.4897
25.6718
27.7694
29.5281
30.6517
30.8025
29.8946
28.2693
26.2327
24.0515
21.9337
20.015
18.3259
16.852
15.594
14.5765
13.8484
13.4753
11.3369
11.8806
12.8066
14.0222
15.4584
17.085
18.9137
20.9893
23.2569
25.5616
27.6603
29.2348
29.9322
29.4763
28.0667
26.0549
23.7711
21.4767
19.3448
17.4718
15.8049
14.3258
13.0552
12.054
11.4109
11.222
11.5415
12.2897
13.3705
14.7008
16.2301
17.9499
19.89
22.0726
24.3819
26.6217
28.5096
29.7043
29.8602
28.9021
27.159
24.98
22.6666
20.4383
18.4295
16.655
15.0765
13.6919
12.5418
11.7031
11.2707
10.0283
10.6644
11.7397
13.121
14.7012
16.4253
18.2995
20.3796
22.621
24.8901
26.9525
28.4883
29.1538
28.7213
27.3503
25.3748
23.1272
20.8638
18.7399
16.8288
15.0761
13.4625
12.0284
10.8702
10.1178
9.89807
10.2712
11.1455
12.3893
13.8784
15.5304
17.3218
19.2879
21.4542
23.7298
25.9331
27.784
28.9401
29.0871
28.1664
26.4613
24.3187
22.0402
19.8336
17.8101
15.9771
14.2879
12.7508
11.4349
10.4573
9.95169
9.16331
9.91019
11.1665
12.7525
14.5152
16.3649
18.2868
20.3228
22.4514
24.5733
26.4823
27.8864
28.4828
28.097
26.8479
25.0237
22.9276
20.7888
18.7306
16.7895
14.9274
13.1421
11.5047
10.1554
9.27176
9.0154
9.4524
10.4785
11.9216
13.6096
15.4187
17.2987
19.2685
21.3513
23.4928
25.5423
27.2464
28.2947
28.425
27.595
26.0304
24.0422
21.9051
19.7974
17.7945
15.893
14.0616
12.3323
10.8128
9.66754
9.07434
8.47947
9.34703
10.7991
12.6093
14.5784
16.5802
18.5676
20.5384
22.5105
24.4222
26.1112
27.339
27.8577
27.5224
26.4323
24.8237
22.9445
20.978
19.0084
17.0309
15.0342
13.0526
11.1914
9.63515
8.6089
8.31191
8.81921
10.0099
11.6694
13.578
15.5695
17.5625
19.5329
21.5023
23.4563
25.2846
26.7824
27.6957
27.8088
27.0864
25.7151
23.949
22.012
20.0404
18.0707
16.0777
14.0783
12.134
10.3926
9.06572
8.37665
7.8331
8.82103
10.4565
12.4721
14.6324
16.7732
18.8081
20.7148
22.5332
24.2344
25.7034
26.7588
27.2048
26.9164
25.9807
24.5869
22.9255
21.1291
19.2456
17.2463
15.1293
12.9652
10.8987
9.1503
7.98467
7.64361
8.22491
9.5737
11.4329
13.5445
15.7068
17.7963
19.758
21.6165
23.384
24.9902
26.2833
27.0668
27.1642
26.5438
25.3627
23.8196
22.0824
20.2443
18.3127
16.2467
14.0897
11.9464
10.0011
8.50219
7.71486
7.12499
8.20226
9.96299
12.1156
14.4074
16.6515
18.7286
20.5947
22.2955
23.8235
25.105
26.0115
26.3946
26.1468
25.3448
24.1352
22.6548
20.9916
19.1671
17.1445
14.9348
12.6432
10.4393
8.56103
7.29442
6.91767
7.55735
9.01804
11.0111
13.2597
15.5436
17.7118
19.6734
21.4517
23.0701
24.4895
25.6065
26.2773
26.3611
25.8292
24.8122
23.4578
21.8829
20.1448
18.2361
16.1065
13.835
11.5565
9.47497
7.85659
6.99401
6.28729
7.39223
9.17988
11.3576
13.6781
15.9516
18.0403
19.8814
21.506
22.9126
24.0554
24.8482
25.1824
24.9663
24.2672
23.1951
21.8437
20.2687
18.4806
16.4534
14.2156
11.8939
9.66416
7.75966
6.46446
6.07344
6.73494
8.22441
10.2431
12.5188
14.834
17.0274
18.9834
20.7117
22.2292
23.5135
24.4977
25.0815
25.1546
24.6913
23.7988
22.5823
21.1192
19.4438
17.5497
15.4009
13.0987
10.7924
8.68578
7.0394
6.15097
5.27606
6.32039
7.997
10.039
12.2287
14.3976
16.4136
18.2025
19.7625
21.0818
22.1268
22.8384
23.1372
22.9442
22.3189
21.3441
20.0845
18.5796
16.8449
14.8828
12.7414
10.5451
8.45212
6.66708
5.44597
5.0727
5.7022
7.10331
8.99478
11.1341
13.3304
15.4363
17.3344
19.0069
20.4482
21.6372
22.5272
23.0483
23.1136
22.6997
21.8957
20.7763
19.3946
17.778
15.9349
13.868
11.6791
9.50791
7.53412
5.98815
5.1456
4.0619
4.93766
6.33429
8.03593
9.87626
11.7313
13.505
15.1284
16.5571
17.7599
18.7019
19.3365
19.6024
19.4309
18.8746
17.9987
16.8533
15.4755
13.896
12.1546
10.3125
8.4604
6.71394
5.22777
4.20597
3.89031
4.42121
5.59126
7.16558
8.95384
10.8134
12.637
14.3388
15.8669
17.1857
18.2637
19.0611
19.524
19.5819
19.214
18.4952
17.4829
16.2202
14.7396
13.0732
11.2714
9.41046
7.59188
5.94885
4.65987
3.95134
2.62704
3.22097
4.16025
5.3008
6.54049
7.8137
9.08351
10.3099
11.4172
12.3604
13.1017
13.6011
13.8107
13.6756
13.2381
12.5489
11.6496
10.578
9.37636
8.11109
6.83744
5.58614
4.41518
3.417
2.7256
2.50989
2.87182
3.66158
4.7175
5.91707
7.1779
8.44971
9.70832
10.8804
11.9099
12.7574
13.3849
13.749
13.7946
13.5048
12.9391
12.1426
11.154
10.0111
8.76172
7.49152
6.22383
5.00241
3.90133
3.03311
2.55134
0.960958
1.17711
1.5129
1.91302
2.34272
2.78853
3.2635
3.76997
4.24601
4.66161
4.99344
5.21891
5.31387
5.25271
5.05497
4.74573
4.34778
3.88409
3.38254
2.89538
2.44575
2.01226
1.60305
1.24783
0.997157
0.917884
1.05054
1.3355
1.70921
2.12655
2.56313
3.0166
3.51804
4.0133
4.46198
4.83874
5.121
5.28574
5.30637
5.17513
4.9201
4.56467
4.13125
3.64345
3.13339
2.67258
2.2324
1.80873
1.4209
1.10908
0.933093
)
;

boundaryField
{
    top
    {
        type            fixedValue;
        value           uniform 0;
    }
    bottom
    {
        type            fixedValue;
        value           uniform 36.5;
    }
    frontAndBack
    {
        type            empty;
    }
    left_cyc
    {
        type            cyclic;
    }
    right_cyc
    {
        type            cyclic;
    }
}


// ************************************************************************* //
