/*--------------------------------*- C++ -*----------------------------------*\
| =========                 |                                                 |
| \\      /  F ield         | OpenFOAM: The Open Source CFD Toolbox           |
|  \\    /   O peration     | Version:  2.3.0                                 |
|   \\  /    A nd           | Web:      www.OpenFOAM.org                      |
|    \\/     M anipulation  |                                                 |
\*---------------------------------------------------------------------------*/
FoamFile
{
    version     2.0;
    format      ascii;
    class       volScalarField;
    location    "10000";
    object      T;
}
// * * * * * * * * * * * * * * * * * * * * * * * * * * * * * * * * * * * * * //

dimensions      [0 0 0 1 0 0 0];

internalField   nonuniform List<scalar> 
3060
(
34.177
34.1881
34.2084
34.2377
34.2753
34.3208
34.3738
34.434
34.5013
34.5755
34.6569
34.7454
34.841
34.9417
35.0452
35.1513
35.2601
35.3707
35.4814
35.5897
35.6926
35.7864
35.8672
35.9305
35.972
35.9879
35.9761
35.9383
35.8779
35.7993
35.7069
35.6047
35.4965
35.3854
35.2739
35.1641
35.0566
34.9518
34.8496
34.7526
34.6629
34.5806
34.5057
34.4382
34.378
34.3255
34.2808
34.2444
34.2168
34.1983
34.1895
34.1909
34.2022
34.2231
34.2531
34.2917
34.3384
34.393
34.4551
34.5245
34.6013
34.6855
34.7772
34.8759
34.9789
35.0843
35.1924
35.3028
35.4144
35.5251
35.632
35.732
35.8213
35.8956
35.9505
35.9818
35.9863
35.9635
35.9159
35.8476
35.763
35.6665
35.5618
35.4526
35.3417
35.2314
35.1233
35.018
34.9152
34.8154
34.7216
34.6349
34.5554
34.483
34.4176
34.3592
34.3081
34.2646
34.2292
34.2022
34.1842
34.1757
29.6665
29.6974
29.7544
29.8359
29.941
30.0684
30.2173
30.3871
30.5777
30.7891
31.0218
31.2761
31.5523
31.8498
32.161
32.4793
32.8055
33.1373
33.4692
33.7936
34.1017
34.383
34.6257
34.8169
34.9429
34.9916
34.9556
34.8405
34.6581
34.4217
34.1446
33.8386
33.5146
33.1815
32.8473
32.5176
32.1954
31.8801
31.5783
31.2981
31.0405
30.8053
30.5922
30.401
30.2315
30.0839
29.9589
29.8572
29.78
29.7285
29.7039
29.7077
29.7394
29.7977
29.8814
29.9893
30.1202
30.2735
30.4487
30.6456
30.8644
31.1053
31.3688
31.6547
31.9618
32.2782
32.6024
32.9338
33.2685
33.6001
33.9204
34.22
34.4878
34.7114
34.8775
34.9729
34.9869
34.917
34.7728
34.5668
34.3128
34.0234
33.7101
33.3829
33.0503
32.7195
32.3952
32.0792
31.7699
31.478
31.2075
30.9589
30.7318
30.5258
30.3407
30.1763
30.0329
29.9113
29.8123
29.737
29.6868
29.6628
25.4663
25.5148
25.6038
25.7315
25.8961
26.096
26.33
26.5973
26.8978
27.2313
27.5985
27.9997
28.4353
28.9048
29.406
29.9244
30.4589
31.0037
31.5491
32.0821
32.5884
33.0514
33.4522
33.7693
33.9796
34.0615
34.001
33.8089
33.5061
33.1156
32.6593
32.1565
31.624
31.0767
30.5278
29.9878
29.4629
28.9548
28.4786
28.037
27.6307
27.2598
26.9238
26.6224
26.3556
26.1237
25.9275
25.7681
25.6472
25.5666
25.5281
25.5339
25.5836
25.6749
25.806
25.9751
26.1807
26.4217
26.6975
27.0079
27.353
27.7331
28.1485
28.599
29.0832
29.5967
30.1265
30.6699
31.2197
31.7646
32.2909
32.7834
33.2245
33.5943
33.8705
34.0301
34.0536
33.9363
33.6959
33.3548
32.9357
32.4597
31.9449
31.4072
30.8608
30.3177
29.7869
29.2728
28.779
28.3182
27.8915
27.4992
27.1409
26.816
26.5242
26.2655
26.0403
25.8496
25.6945
25.5767
25.4981
25.4606
21.7262
21.7897
21.9065
22.0739
22.2897
22.5519
22.8589
23.2096
23.6035
24.0405
24.5211
25.0458
25.6152
26.2289
26.8856
27.5752
28.2936
29.0312
29.773
30.4998
31.1906
31.8228
32.3711
32.8065
33.0968
33.2106
33.1266
32.8614
32.4455
31.9112
31.2881
30.602
29.876
29.1315
28.3881
27.662
26.9634
26.2976
25.6752
25.0982
24.5671
24.0817
23.6416
23.2465
22.8966
22.5923
22.3348
22.1258
21.9672
21.8613
21.8108
21.8185
21.8837
22.0035
22.1755
22.3973
22.6671
22.9833
23.3451
23.7519
24.2037
24.701
25.244
25.8327
26.4662
27.1414
27.8482
28.5804
29.3259
30.0677
30.7855
31.4575
32.0601
32.5666
32.9464
33.167
33.1995
33.0369
32.7056
32.2377
31.6648
31.015
30.3126
29.5799
28.8374
28.1034
27.3914
26.7091
26.0642
25.4621
24.9044
24.3912
23.922
23.4963
23.1137
22.7743
22.4789
22.2287
22.0253
21.8709
21.7678
21.7186
18.5385
18.6149
18.7552
18.9562
19.2151
19.5293
19.8966
20.3156
20.7853
21.3056
21.8768
22.4998
23.1753
23.9036
24.6834
25.5111
26.3798
27.2774
28.1856
29.0808
29.9349
30.7174
31.3963
31.9363
32.2974
32.4395
32.3349
32.005
31.4891
30.8276
30.0565
29.2083
28.3137
27.4017
26.4968
25.6185
24.78
23.9894
23.2509
22.5663
21.9359
21.3591
20.8352
20.364
19.9459
19.5817
19.2731
19.0222
18.8317
18.7045
18.6438
18.653
18.7314
18.8754
19.0819
19.348
19.6712
20.0496
20.4816
20.9666
21.5042
22.095
22.7395
23.4381
24.1904
24.9941
25.8439
26.7307
27.6396
28.5496
29.4351
30.2662
31.0119
31.6392
32.1105
32.3852
32.4257
32.2228
31.811
31.231
30.5219
29.7177
28.85
27.9488
27.0413
26.1498
25.2908
24.4753
23.7085
22.9938
22.3319
21.7225
21.1647
20.6576
20.2011
19.7955
19.4419
19.1419
18.8979
18.7125
18.5886
18.5295
15.9304
16.0178
16.1782
16.4078
16.703
17.0603
17.4768
17.9504
18.4798
19.0644
19.7046
20.4015
21.1566
21.9709
22.8438
23.7767
24.761
25.7828
26.8219
27.8515
28.8388
29.7464
30.5343
31.1605
31.5792
31.7441
31.6229
31.2406
30.6427
29.8754
28.981
28.0002
26.9709
25.9271
24.8967
23.9015
22.9564
22.0712
21.2455
20.4804
19.7751
19.1285
18.5397
18.0086
17.5357
17.1226
16.7715
16.4854
16.2678
16.1222
16.0527
16.0633
16.153
16.3177
16.5535
16.8568
17.2243
17.6532
18.1414
18.6875
19.2913
19.9532
20.6741
21.4551
22.2969
23.1979
24.157
25.1629
26.199
27.242
28.2621
29.2242
30.0893
30.8167
31.363
31.6813
31.728
31.4927
31.0153
30.3426
29.5195
28.5873
27.5855
26.5505
25.5137
24.5003
23.5287
22.6117
21.7529
20.9538
20.2139
19.5318
18.9062
18.336
17.8211
17.3623
16.961
16.6196
16.3413
16.1294
15.9877
15.92
13.8712
13.9686
14.1473
14.4025
14.7295
15.1239
15.5817
16.0998
16.676
17.3095
18.0006
18.7507
19.5621
20.4368
21.3761
22.3838
23.4506
24.5619
25.6961
26.8244
27.9109
28.9131
29.7844
30.4757
30.9366
31.1176
30.9849
30.5645
29.905
29.0568
28.0692
26.9896
25.8613
24.7216
23.601
22.5221
21.5012
20.5485
19.6614
18.839
18.0796
17.3813
16.7431
16.1646
15.6471
15.1929
14.8051
14.488
14.246
14.0839
14.0064
14.0183
14.1182
14.3015
14.5635
14.8995
15.3049
15.7759
16.3095
16.9036
17.5575
18.2716
19.0473
19.8867
20.7915
21.7622
22.799
23.8904
25.0183
26.1581
27.2775
28.3374
29.2933
30.0972
30.6992
31.0489
31.0999
30.8415
30.3156
29.5725
28.6623
27.6337
26.5325
25.3995
24.2689
23.1676
22.1154
21.1256
20.2023
19.3441
18.5488
17.8143
17.1383
16.5197
15.9586
15.456
15.0145
14.6373
14.3286
14.0929
13.9351
13.8596
12.2913
12.3987
12.5953
12.8755
13.233
13.6621
14.1571
14.7137
15.3287
16.0005
16.7293
17.5167
18.3658
19.2801
20.2629
21.3187
22.4384
23.6072
24.8032
25.9963
27.1481
28.2131
29.1398
29.8739
30.361
30.5512
30.4121
29.9684
29.2686
28.3668
27.3175
26.1728
24.9797
23.7779
22.5989
21.4665
20.3966
19.3997
18.472
17.611
16.8134
16.0766
15.3992
14.7814
14.225
13.7334
13.3114
12.9645
12.6988
12.5204
12.4351
12.4481
12.5582
12.7598
13.0472
13.4143
13.8549
14.3638
14.9365
15.5699
16.2628
17.0153
17.8293
18.7077
19.6537
20.6699
21.757
22.9032
24.0905
25.2933
26.4779
27.6024
28.6184
29.4728
30.1108
30.4793
30.5327
30.2607
29.7041
28.9144
27.9464
26.854
25.6872
24.49
23.2986
22.1407
21.0364
19.9986
19.0345
18.1377
17.305
16.5332
15.8194
15.1623
14.5624
14.0215
13.5432
13.1323
12.7944
12.5355
12.3617
12.2785
11.1021
11.2201
11.4361
11.7427
12.1323
12.597
13.1292
13.7228
14.3732
15.0778
15.8362
16.6503
17.5238
18.4617
19.4694
20.5509
21.6981
22.8966
24.1246
25.3514
26.5375
27.635
28.5898
29.3444
29.8427
30.0359
29.8948
29.4416
28.7228
27.7941
26.713
25.5344
24.3075
23.0734
21.8644
20.704
19.6078
18.5852
17.6331
16.7467
15.9214
15.154
14.4429
13.7889
13.195
12.6661
12.2088
11.8307
11.5399
11.3441
11.2504
11.2647
11.3855
11.6068
11.9211
12.3205
12.7972
13.3436
13.9536
14.6227
15.3485
16.1308
16.9718
17.8751
18.8454
19.8876
21.0015
22.1762
23.3943
24.6299
25.8484
27.0065
28.0533
28.9328
29.5874
29.9632
30.0172
29.7404
29.1701
28.3576
27.3601
26.2345
25.0334
23.8027
22.5798
21.3927
20.2613
19.198
18.2096
17.2893
16.4318
15.6325
14.8883
14.1978
13.5619
12.9838
12.4686
12.0228
11.6541
11.3705
11.1795
11.0881
10.2129
10.3429
10.5805
10.917
11.3423
11.8461
12.4187
13.0514
13.7377
14.4738
15.2585
16.0934
16.983
17.9333
18.9516
20.0411
21.1947
22.3994
23.6338
24.8675
26.0603
27.1635
28.1217
28.8769
29.373
29.5639
29.4246
28.9738
28.2552
27.3236
26.2372
25.0522
23.8186
22.578
21.3627
20.1954
19.0908
18.057
17.0916
16.1882
15.3409
14.546
13.8023
13.1115
12.4779
11.9085
11.4123
10.9995
10.6806
10.4652
10.3621
10.3778
10.5108
10.754
11.0984
11.5339
12.0501
12.637
13.2861
13.9911
14.7482
15.5565
16.418
17.3371
18.3198
19.3726
20.4946
21.676
22.9004
24.1426
25.3679
26.5323
27.5839
28.4655
29.1192
29.4923
29.5455
29.2713
28.7027
27.8889
26.8873
25.7555
24.5476
23.3102
22.0809
20.8877
19.7495
18.6778
17.6783
16.7447
15.87
15.0485
14.2765
13.5532
12.8804
12.2627
11.7073
11.223
10.8199
10.5084
10.2981
10.1975
9.54173
9.68542
9.94777
10.3181
10.7841
11.3324
11.9503
12.6266
13.3524
14.1219
14.9331
15.787
16.6883
17.644
18.6626
19.7464
20.8901
22.0819
23.3016
24.5194
25.6957
26.7819
27.723
28.4619
28.9449
29.1297
28.9949
28.5563
27.8536
26.9391
25.8699
24.7016
23.4839
22.2581
21.0556
19.8982
18.7989
17.7642
16.7927
15.8764
15.0089
14.1864
13.408
12.6767
11.9988
11.3839
10.8437
10.3915
10.0404
9.8029
9.68913
9.70641
9.85321
10.1213
10.5
10.9764
11.5373
12.1696
12.8622
13.6063
14.3964
15.2305
16.1102
17.0402
18.0273
19.0795
20.1949
21.3658
22.5768
23.8038
25.013
26.1605
27.1949
28.0595
28.698
29.0604
29.1119
28.8462
28.2917
27.4946
26.5101
25.3953
24.2037
22.9819
21.7669
20.5859
19.4569
18.3896
17.3882
16.4476
15.5593
14.7168
13.9166
13.1581
12.4446
11.7826
11.1817
10.6537
10.2115
9.86819
9.63594
9.52473
9.02086
9.17988
9.47008
9.87873
10.3906
10.9892
11.6584
12.3839
13.1541
13.9611
14.8013
15.675
16.5868
17.5441
18.556
19.6244
20.7458
21.9101
23.0984
24.2822
25.4232
26.4741
27.3818
28.0915
28.5532
28.7288
28.6006
28.1815
27.5068
26.6252
25.5911
24.4581
23.2745
22.0803
20.9055
19.7702
18.6861
17.6575
16.6836
15.7558
14.8673
14.0143
13.1972
12.4203
11.6926
11.0262
10.4364
9.93962
9.55247
9.28998
9.16425
9.18332
9.34558
9.6418
10.059
10.5816
11.193
11.8767
12.6183
13.4063
14.2331
15.0952
15.9935
16.9327
17.9201
18.9634
20.0617
21.2087
22.391
23.5857
24.7603
25.8724
26.8721
27.7048
28.3171
28.6629
28.7119
28.459
27.9284
27.1618
26.2114
25.132
23.9756
22.7871
21.6026
20.4481
19.3397
18.2859
17.2888
16.3442
15.443
14.5783
13.7467
12.9488
12.1893
11.4773
10.8251
10.2476
9.76116
9.3821
9.12512
9.00207
8.59758
8.7734
9.09421
9.54505
10.1076
10.7618
11.488
12.2684
13.0883
13.9376
14.8107
15.7068
16.63
17.5876
18.5884
19.635
20.7255
21.8515
22.996
24.132
25.2233
26.225
27.087
27.7583
28.1928
28.3572
28.2368
27.8423
27.2044
26.3674
25.3818
24.2984
23.1627
22.0126
20.8761
19.7718
18.7094
17.6914
16.7164
15.7761
14.8639
13.9767
13.1159
12.2883
11.505
10.7816
10.1369
9.59101
9.16413
8.87424
8.73541
8.75644
8.93563
9.26271
9.72239
10.296
10.9631
11.7038
12.5
13.3372
14.2053
15.0991
16.0182
16.9668
17.9525
18.9821
20.056
21.17
22.3122
23.4617
24.5877
25.6503
26.602
27.3919
27.9701
28.2954
28.3414
28.1043
27.6042
26.8784
25.975
24.9451
23.8381
22.6966
21.5546
20.4365
19.3569
18.3223
17.3331
16.3854
15.4699
14.58
13.7129
12.8706
12.0598
11.2921
10.5829
9.95068
9.41548
8.997
8.71285
8.57684
8.23284
8.42658
8.78008
9.27603
9.89285
10.6069
11.3946
12.2345
13.1089
14.005
14.9151
15.837
16.7736
17.732
18.7196
19.7406
20.7948
21.8757
22.9677
24.0461
25.0772
26.0198
26.8276
27.4541
27.8578
28.0099
27.898
27.5312
26.9358
26.1513
25.224
24.2004
23.1225
22.0251
20.9339
19.866
18.829
17.8238
16.8473
15.8925
14.9533
14.0277
13.1188
12.2356
11.3921
10.6074
9.90368
9.30528
8.83594
8.51679
8.36403
8.38713
8.58437
8.94438
9.44948
10.0776
10.8047
11.6068
12.4623
13.3534
14.2673
15.1966
16.1395
17.0992
18.0828
19.0961
20.1416
21.2166
22.3116
23.4068
24.4742
25.477
26.3715
27.111
27.6501
27.9524
27.9954
27.7757
27.3105
26.6324
25.7848
24.8148
23.7675
22.6826
21.5913
20.5162
19.4702
18.458
17.4782
16.5266
15.5944
14.6758
13.7689
12.8776
12.0107
11.1826
10.412
9.72107
9.13363
8.67299
8.35984
8.21003
7.89869
8.11098
8.49835
9.04103
9.7141
10.4902
11.3419
12.2443
13.1765
14.1229
15.0738
16.0247
16.9773
17.9376
18.912
19.906
20.9213
21.9536
22.9882
24.0022
24.9659
25.8425
26.5906
27.1689
27.541
27.6808
27.5773
27.2386
26.6884
25.9617
25.0992
24.1424
23.1289
22.0895
21.0469
20.0179
19.0078
18.0155
17.0364
16.0647
15.0953
14.1275
13.1671
12.2251
11.3187
10.47
9.70521
9.0524
8.5391
8.18965
8.02246
8.04771
8.26365
8.65777
9.20988
9.89455
10.6838
11.55
12.4676
13.4159
14.3791
15.3476
16.3173
17.2903
18.2725
19.2691
20.2844
21.3176
22.3618
23.3968
24.3988
25.3348
26.1659
26.8504
27.3484
27.6275
27.6676
27.4654
27.0365
26.4101
25.6244
24.7211
23.7409
22.719
21.6827
20.6539
19.6439
18.6553
17.6849
16.7275
15.7758
14.8248
13.8745
12.9307
12.0045
11.1132
10.2787
9.52687
8.88533
8.38104
8.03784
7.87373
7.57549
7.80653
8.22792
8.81733
9.54655
10.3846
11.3005
12.2659
13.2568
14.2552
15.2498
16.2325
17.2036
18.1676
19.13
20.0974
21.0728
22.0529
23.0261
23.9733
24.8677
25.677
26.3647
26.8947
27.2351
27.3628
27.2675
26.9567
26.4517
25.7831
24.9865
24.0982
23.1513
22.1729
21.183
20.1942
19.2106
18.23
17.2466
16.2555
15.2534
14.2409
13.2272
12.2256
11.2558
10.3432
9.51742
8.8103
8.25299
7.87306
7.69128
7.7187
7.95353
8.38191
8.98104
9.7221
10.5735
11.5037
12.4841
13.4905
14.5052
15.5154
16.5145
17.5031
18.4853
19.4663
20.4514
21.4412
22.4298
23.4022
24.3367
25.2045
25.9713
26.6005
27.0574
27.3136
27.3507
27.1659
26.7734
26.1989
25.4759
24.641
23.7298
22.7735
21.7967
20.8171
19.8437
18.8779
17.9159
16.9504
15.9765
14.9904
13.994
12.9961
12.0099
11.0549
10.1565
9.34391
8.64835
8.10036
7.72693
7.54837
7.24955
7.49914
7.95366
8.58805
9.37096
10.2681
11.2453
12.2711
13.319
14.368
15.4041
16.4186
17.4094
18.3787
19.3314
20.2749
21.2128
22.1432
23.0573
23.9389
24.7654
25.5086
26.1373
26.6203
26.93
27.046
26.9585
26.6748
26.2136
25.6016
24.8693
24.048
23.166
22.2466
21.3066
20.3554
19.3958
18.4246
17.4353
16.4238
15.3889
14.3339
13.2689
12.2099
11.1793
10.2057
9.32177
8.56266
7.96289
7.55318
7.35685
7.38648
7.64001
8.10175
8.74613
9.54111
10.4517
11.4432
12.4837
13.5463
14.6101
15.6605
16.6895
17.695
18.679
19.6467
20.6041
21.5529
22.4888
23.4004
24.269
25.07
25.774
26.3495
26.7667
27.0006
27.0351
26.8671
26.5099
25.986
25.3243
24.5564
23.7129
22.8208
21.9011
20.9681
20.0288
19.0834
18.1272
17.1524
16.1553
15.1347
14.0942
13.0439
11.9995
10.9836
10.0242
9.1536
8.40631
7.81615
7.41318
7.22022
6.91049
7.17745
7.66225
8.33713
9.16788
10.1175
11.1492
12.2293
13.3289
14.4251
15.5013
16.5473
17.5587
18.5353
19.4816
20.4052
21.31
22.1955
23.055
23.8754
24.6379
25.3189
25.8919
26.3305
26.6111
26.7159
26.6357
26.3775
25.9576
25.3988
24.727
23.9685
23.1471
22.2821
21.3869
20.4689
19.5292
18.5642
17.5672
16.5345
15.4674
14.3716
13.259
12.1479
11.063
10.0351
9.09949
8.29399
7.65593
7.21887
7.00885
7.04061
7.3116
7.80379
8.48884
9.33184
10.295
11.341
12.4355
13.5493
14.6591
15.7484
16.807
17.8304
18.8184
19.7762
20.7101
21.6226
22.5109
23.3661
24.1732
24.9115
25.5564
26.0814
26.4611
26.6742
26.7061
26.5541
26.2303
25.7542
25.1504
24.4456
23.6658
22.8335
21.9662
21.0752
20.1656
19.2366
18.2832
17.2974
16.2767
15.2221
14.1395
13.0406
11.9436
10.8732
9.85953
8.93744
8.14396
7.51571
7.08558
6.87902
6.5501
6.83177
7.34181
8.05002
8.91991
9.91239
10.989
12.1143
13.2579
14.3951
15.5076
16.5831
17.6149
18.6004
19.5439
20.4522
21.3298
22.1767
22.9881
23.7539
24.4586
25.083
25.6052
26.0032
26.2571
26.3515
26.278
26.043
25.6607
25.1502
24.5332
23.8312
23.0638
22.2465
21.3898
20.4991
19.5745
18.6123
17.6061
16.5526
15.4556
14.3233
13.1694
12.0142
10.8841
9.8117
8.83395
7.99049
7.32086
6.86098
6.63932
6.67291
6.95866
7.47618
8.19467
9.0769
10.083
11.1739
12.3134
13.4707
14.6208
15.7451
16.8316
17.8732
18.8671
19.8189
20.7344
21.6165
22.4636
23.2692
24.0212
24.703
25.2944
25.7734
26.119
26.3131
26.3428
26.2056
25.9124
25.4799
24.9288
24.2814
23.559
22.78
21.9585
21.1032
20.2177
19.3007
18.3469
17.3492
16.3055
15.2194
14.0991
12.9582
11.8168
10.7011
9.64296
8.67879
7.84748
7.18778
6.73492
6.5168
6.16256
6.45506
6.98325
7.71504
8.61236
9.63493
10.7434
11.9015
13.0779
14.2469
15.3887
16.4892
17.5395
18.5343
19.4778
20.3757
21.2321
22.0476
22.8188
23.5378
24.1924
24.7673
25.2449
25.607
25.8371
25.9222
25.8546
25.64
25.2907
24.8226
24.2532
23.6001
22.8786
22.1012
21.2757
20.4061
19.4919
18.5297
17.514
16.442
15.32
14.1584
12.9728
11.7849
10.6223
9.51847
8.5112
7.64116
6.94917
6.47282
6.24257
6.27753
6.57412
7.1098
7.85188
8.76156
9.79779
10.9204
12.0926
13.2824
14.4637
15.6165
16.7265
17.7847
18.7855
19.7346
20.6369
21.4951
22.3086
23.0724
23.7774
24.4103
24.955
25.3938
25.7093
25.8866
25.9144
25.7905
25.5244
25.1305
24.6258
24.0284
23.3555
22.6219
21.8385
21.0121
20.1449
19.2355
18.2791
17.2694
16.2054
15.0931
13.9427
12.7696
11.5953
10.447
9.35742
8.36375
7.50589
6.82387
6.35457
6.12788
5.74375
6.04206
6.57941
7.32248
8.23252
9.26901
10.3926
11.5673
12.7615
13.9492
15.1095
16.2271
17.2908
18.2934
19.2379
20.129
20.9697
21.7608
22.4996
23.1803
23.7934
24.3267
24.7664
25.0978
25.3077
25.3847
25.3219
25.1245
24.8032
24.3707
23.8412
23.2284
22.5445
21.7989
20.9978
20.1437
19.2365
18.2733
17.2501
16.1649
15.0262
13.8464
12.6426
11.4373
10.2587
9.1401
8.1193
7.23697
6.53424
6.04952
5.8146
5.85035
6.1527
6.69746
7.45073
8.37303
9.42309
10.5608
11.7494
12.9568
14.1564
15.3271
16.4531
17.5233
18.53
19.4781
20.3713
21.2116
21.9987
22.729
23.3954
23.9877
24.4933
24.8981
25.1883
25.3514
25.3778
25.2652
25.0224
24.6613
24.1958
23.6403
23.0085
22.3118
21.5589
20.7546
19.9008
18.9959
18.0364
17.0175
15.9389
14.8091
13.6399
12.4484
11.2566
10.0922
8.98774
7.98046
7.11022
6.41738
5.93966
5.70828
5.29082
5.5889
6.12462
6.8643
7.76944
8.80034
9.91871
11.0895
12.2822
13.4708
14.6344
15.7565
16.8247
17.8296
18.7733
19.6584
20.4869
21.2588
21.9722
22.6222
23.2018
23.7013
24.1099
24.4162
24.6091
24.6793
24.6203
24.4372
24.1386
23.7351
23.2378
22.6574
22.0033
21.2828
20.5006
19.6589
18.7578
17.7958
16.7707
15.6817
14.5392
13.357
12.1531
10.9503
9.77607
8.66308
7.648
6.77046
6.07088
5.58752
5.3527
5.3885
5.69051
6.23346
6.9831
7.90027
8.94451
10.0768
11.2614
12.467
13.6673
14.8407
15.9706
17.0441
18.0524
18.9982
19.8838
20.7101
21.4766
22.1803
22.816
23.3757
23.8496
24.2268
24.4963
24.6478
24.6731
24.5701
24.3466
24.0126
23.5791
23.0576
22.4588
21.7916
21.0625
20.2756
19.4323
18.5319
17.5721
16.5501
15.467
14.3328
13.161
11.9693
10.7797
9.61954
8.52055
7.51878
6.6531
5.96319
5.48665
5.25528
4.80192
5.09282
5.61459
6.33408
7.21411
8.21679
9.30589
10.4484
11.6154
12.7821
13.9281
15.0369
16.0951
17.092
18.0281
18.9038
19.7194
20.4742
21.166
21.7909
22.3431
22.8152
23.1987
23.4844
23.6635
23.728
23.6721
23.5003
23.2201
22.84
22.3687
21.8146
21.185
20.4856
19.7205
18.8918
18.0006
17.0469
16.0306
14.9527
13.8248
12.6615
11.4807
10.3045
9.15938
8.07595
7.08891
6.23578
5.55524
5.08436
4.8551
4.89011
5.18476
5.71345
6.4425
7.33412
8.34972
9.45235
10.6083
11.788
12.9662
14.1219
15.238
16.3008
17.301
18.2386
19.1136
19.9259
20.6742
21.3558
21.9664
22.4997
22.948
23.303
23.5557
23.698
23.7225
23.6274
23.4196
23.1075
22.7001
22.2062
21.6343
20.9914
20.2828
19.5119
18.6804
17.7887
16.8364
15.8228
14.7505
13.6308
12.4777
11.3089
10.1458
9.01438
7.94459
6.97042
6.12871
5.45745
4.9931
4.76715
4.27608
4.55214
5.04641
5.72726
6.55984
7.50903
8.54162
9.62746
10.7401
11.857
12.959
14.0301
15.0573
16.0294
16.9446
17.8011
18.5974
19.3315
20.0009
20.6018
21.1293
21.5774
21.9393
22.2075
22.375
22.4347
22.3813
22.219
21.9544
21.5943
21.1458
20.6156
20.0095
19.3324
18.588
17.7792
16.9079
15.976
14.9861
13.9407
12.8521
11.7345
10.6052
9.4845
8.39676
7.36999
6.43582
5.62877
4.98472
4.53855
4.32091
4.3542
4.63375
5.13449
5.82431
6.6678
7.62923
8.67473
9.77353
10.8986
12.0267
13.1381
14.2166
15.2484
16.2239
17.1404
17.9958
18.7881
19.5152
20.1743
20.7612
21.2707
21.6969
22.0327
22.2713
22.4058
22.4297
22.3413
22.1468
21.8534
21.4684
20.9989
20.4516
19.8323
19.1457
18.395
17.5827
16.7105
15.7798
14.7927
13.753
12.6726
11.5652
10.4476
9.33962
8.26505
7.25127
6.32928
5.53297
4.89762
4.45756
4.243
3.71306
3.9662
4.41871
5.04146
5.80286
6.67152
7.61799
8.61579
9.64175
10.676
11.7018
12.7047
13.6728
14.5955
15.4687
16.2883
17.0509
17.7534
18.3925
18.9643
19.4642
19.8871
20.2272
20.4784
20.6346
20.6899
20.6391
20.4863
20.2372
19.8977
19.4735
18.9702
18.3929
17.7462
17.0339
16.2595
15.4262
14.5379
13.5991
12.615
11.5967
10.5574
9.51239
8.47978
7.48079
6.54001
5.6853
4.9473
4.35817
3.94961
3.74996
3.78054
4.03684
4.4952
5.1261
5.89746
6.77735
7.73578
8.74568
9.78337
10.8284
11.8635
12.8739
13.847
14.7737
15.6483
16.4668
17.2254
17.921
18.55
19.1085
19.5917
19.9944
20.3109
20.5355
20.6622
20.6854
20.6032
20.4216
20.1466
19.7843
19.3408
18.8216
18.2318
17.5757
16.8572
16.0793
15.2451
14.3582
13.423
12.4449
11.4348
10.4054
9.37165
8.35105
7.36433
6.43555
5.59201
4.86379
4.28255
3.87953
3.68267
3.1134
3.33545
3.73181
4.27681
4.94302
5.70349
6.53324
7.40998
8.31442
9.23009
10.1431
11.0416
11.9158
12.757
13.5586
14.3147
15.0203
15.6713
16.2637
16.7932
17.2556
17.6458
17.959
18.1898
18.333
18.3833
18.336
18.1948
17.965
17.6515
17.2593
16.7934
16.2585
15.6589
14.9989
14.2826
13.5145
12.6997
11.8449
10.9571
10.0457
9.12144
8.19696
7.28723
6.40986
5.58538
4.83726
4.19156
3.67594
3.31801
3.14282
3.16969
3.39447
3.79591
4.34799
5.0229
5.79324
6.63357
7.52117
8.43626
9.36195
10.2839
11.19
12.0698
12.9154
13.7189
14.4741
15.1762
15.8209
16.4041
16.9215
17.3687
17.7408
18.033
18.2402
18.3574
18.3793
18.3043
18.1377
17.8849
17.5511
17.1415
16.6612
16.1147
15.5066
14.8409
14.1216
13.3531
12.5403
11.6898
10.8085
9.90512
8.99023
8.07607
7.17718
6.31075
5.49686
4.75853
4.12136
3.6126
3.25946
3.0867
2.47828
2.66141
2.98786
3.43632
3.98428
4.60989
5.2931
6.01626
6.76425
7.52438
8.28612
9.04088
9.78166
10.5028
11.1958
11.8533
12.4698
13.0404
13.5607
14.0264
14.4332
14.7764
15.0517
15.2545
15.3801
15.424
15.382
15.2575
15.0549
14.7788
14.4334
14.0232
13.5526
13.026
12.4476
11.8221
11.1545
10.4508
9.71879
8.96727
8.20244
7.43188
6.66493
5.91294
5.18953
4.51081
3.89544
3.36435
2.94003
2.64518
2.50066
2.52285
2.7082
3.03878
3.49302
4.04811
4.68185
5.37385
6.10611
6.86317
7.63202
8.40187
9.16385
9.91076
10.6366
11.3318
11.9891
12.6028
13.1682
13.6807
14.136
14.5297
14.8575
15.1149
15.2975
15.4009
15.4206
15.3549
15.2087
14.9866
14.6931
14.3328
13.9103
13.4299
12.896
12.3129
11.6852
11.0178
10.3167
9.58987
8.84475
8.08736
7.32508
6.56699
5.82415
5.10985
4.43989
3.83255
3.30844
2.88972
2.59877
2.45622
1.80945
1.94661
2.19079
2.52586
2.93495
3.40182
3.91174
4.45189
5.01147
5.58165
6.15543
6.72753
7.29434
7.85389
8.39655
8.91495
9.40353
9.85767
10.2732
10.646
10.9721
11.2477
11.4689
11.6319
11.7328
11.7679
11.7339
11.6335
11.4704
11.2482
10.9707
10.6416
10.2648
9.84432
9.38414
8.88864
8.36267
7.81211
7.2448
6.67035
6.09107
5.511
4.93596
4.37357
3.83335
3.32684
2.86761
2.47109
2.15401
1.93343
1.82518
1.84181
1.98061
2.22784
2.56718
2.98155
3.45447
3.97095
4.51795
5.08446
5.66147
6.24185
6.82024
7.39307
7.9571
8.50203
9.02066
9.50745
9.95774
10.3673
10.732
11.0481
11.3115
11.5186
11.6657
11.7492
11.7652
11.7126
11.5951
11.4166
11.1808
10.8916
10.5529
10.1686
9.74258
9.27902
8.78219
8.25694
7.70928
7.14742
6.57874
6.00562
5.43209
4.86386
4.30838
3.77498
3.27498
2.82171
2.43035
2.11741
1.89971
1.79292
1.10902
1.19435
1.34608
1.554
1.8075
2.09643
2.41168
2.7454
3.0911
3.44367
3.79932
4.15571
4.51223
4.87058
5.22157
5.55918
5.87914
6.17791
6.45231
6.69933
6.916
7.09944
7.24686
7.35556
7.42292
7.44632
7.4235
7.35635
7.24743
7.09927
6.91449
6.69585
6.44621
6.16851
5.86585
5.54151
5.19916
4.84335
4.48053
4.11952
3.75886
3.39944
3.04394
2.69653
2.36276
2.04959
1.76535
1.5196
1.32282
1.18573
1.11837
1.12873
1.21506
1.36866
1.57919
1.83591
2.12853
2.4478
2.78572
3.13573
3.49262
3.85262
4.21351
4.57498
4.9368
5.28967
5.62777
5.94683
6.24331
6.514
6.75586
6.96596
7.14146
7.27964
7.37791
7.43374
7.44456
7.40943
7.33104
7.21198
7.05488
6.86249
6.63761
6.38315
6.10208
5.79747
5.47257
5.13112
4.77783
4.41976
4.063
3.70646
3.35121
2.99994
2.65677
2.32717
2.01798
1.73737
1.49477
1.30051
1.16519
1.09871
0.379036
0.408294
0.460232
0.531246
0.617599
0.715726
0.822443
0.93504
1.05132
1.16959
1.28875
1.40838
1.52926
1.65484
1.77933
1.89996
2.01495
2.1229
2.22249
2.31251
2.39173
2.459
2.51316
2.55316
2.57796
2.58658
2.57817
2.55344
2.51336
2.45892
2.39117
2.31123
2.22027
2.1195
2.01018
1.89365
1.77139
1.64529
1.5184
1.3961
1.27506
1.15463
1.03534
0.918451
0.805793
0.699736
0.603164
0.519422
0.452192
0.40526
0.382163
0.385717
0.41531
0.467868
0.539749
0.627166
0.726505
0.834533
0.9485
1.06618
1.18588
1.30653
1.42788
1.55121
1.6783
1.80364
1.92458
2.03938
2.1466
2.24494
2.33315
2.41003
2.47441
2.5252
2.56138
2.58194
2.58593
2.573
2.54413
2.50034
2.44265
2.37215
2.28999
2.19735
2.09545
1.98554
1.86895
1.74718
1.62227
1.49791
1.37729
1.25768
1.13862
1.0207
0.905178
0.793873
0.689113
0.593735
0.511034
0.444643
0.398299
0.3755
)
;

boundaryField
{
    top
    {
        type            fixedValue;
        value           uniform 0;
    }
    bottom
    {
        type            fixedValue;
        value           uniform 36.5;
    }
    frontAndBack
    {
        type            empty;
    }
    left_cyc
    {
        type            cyclic;
    }
    right_cyc
    {
        type            cyclic;
    }
}


// ************************************************************************* //
