/*--------------------------------*- C++ -*----------------------------------*\
| =========                 |                                                 |
| \\      /  F ield         | OpenFOAM: The Open Source CFD Toolbox           |
|  \\    /   O peration     | Version:  2.3.0                                 |
|   \\  /    A nd           | Web:      www.OpenFOAM.org                      |
|    \\/     M anipulation  |                                                 |
\*---------------------------------------------------------------------------*/
FoamFile
{
    version     2.0;
    format      ascii;
    class       volVectorField;
    location    "10000";
    object      U;
}
// * * * * * * * * * * * * * * * * * * * * * * * * * * * * * * * * * * * * * //

dimensions      [0 1 -1 0 0 0 0];

internalField   nonuniform List<vector> 
3060
(
(1.70307 0 -2.35442)
(4.32615 0 -2.26497)
(6.82599 0 -2.09681)
(9.12859 0 -1.84948)
(11.1621 0 -1.52375)
(12.8599 0 -1.12519)
(14.1668 0 -0.670259)
(15.0493 0 -0.194217)
(15.5094 0 0.246044)
(15.5996 0 0.587222)
(15.4131 0 0.789959)
(15.052 0 0.863094)
(14.5658 0 0.849067)
(13.9631 0 0.789485)
(13.2174 0 0.710616)
(12.2955 0 0.628601)
(11.1808 0 0.571424)
(9.87892 0 0.562366)
(8.41271 0 0.57611)
(6.85059 0 0.561113)
(5.30722 0 0.50235)
(3.88776 0 0.412485)
(2.66422 0 0.312286)
(1.65962 0 0.223294)
(0.841816 0 0.161252)
(0.138683 0 0.134093)
(-0.541402 0 0.144353)
(-1.29327 0 0.191076)
(-2.19989 0 0.269101)
(-3.31367 0 0.366188)
(-4.63623 0 0.462461)
(-6.11323 0 0.535754)
(-7.65251 0 0.569933)
(-9.13672 0 0.563596)
(-10.4714 0 0.55787)
(-11.6182 0 0.594591)
(-12.562 0 0.666142)
(-13.3097 0 0.739857)
(-13.8889 0 0.793746)
(-14.3271 0 0.803586)
(-14.6235 0 0.732983)
(-14.7417 0 0.543775)
(-14.5959 0 0.224938)
(-14.1024 0 -0.193046)
(-13.2054 0 -0.652498)
(-11.8993 0 -1.09579)
(-10.2152 0 -1.48495)
(-8.20747 0 -1.80111)
(-5.94318 0 -2.03705)
(-3.49589 0 -2.19091)
(-0.942041 0 -2.26241)
(1.64042 0 -2.25118)
(4.17304 0 -2.15734)
(6.57821 0 -1.9812)
(8.78007 0 -1.7232)
(10.7063 0 -1.38619)
(12.2926 0 -0.979788)
(13.4896 0 -0.527366)
(14.2747 0 -0.072783)
(14.6663 0 0.323446)
(14.7312 0 0.608155)
(14.5582 0 0.762353)
(14.2216 0 0.807309)
(13.7459 0 0.782279)
(13.125 0 0.72091)
(12.3259 0 0.645195)
(11.3266 0 0.579965)
(10.1265 0 0.556269)
(8.74546 0 0.567641)
(7.23477 0 0.565291)
(5.70103 0 0.519294)
(4.25811 0 0.437637)
(2.98919 0 0.338926)
(1.93428 0 0.245334)
(1.0766 0 0.174954)
(0.35322 0 0.13788)
(-0.323739 0 0.137875)
(-1.04965 0 0.174943)
(-1.91251 0 0.245397)
(-2.97575 0 0.339319)
(-4.25726 0 0.438875)
(-5.71871 0 0.522034)
(-7.27886 0 0.569917)
(-8.82532 0 0.573309)
(-10.2505 0 0.560544)
(-11.5028 0 0.582682)
(-12.5646 0 0.650146)
(-13.436 0 0.733235)
(-14.1387 0 0.808475)
(-14.7083 0 0.858846)
(-15.1623 0 0.853517)
(-15.4825 0 0.748586)
(-15.6048 0 0.506508)
(-15.4204 0 0.132327)
(-14.8473 0 -0.324176)
(-13.8466 0 -0.799219)
(-12.4278 0 -1.24124)
(-10.6316 0 -1.62084)
(-8.51724 0 -1.9253)
(-6.15318 0 -2.15088)
(-3.61205 0 -2.29738)
(-0.968209 0 -2.36526)
(1.40434 0 -3.67932)
(3.58098 0 -3.57413)
(5.69352 0 -3.3789)
(7.70809 0 -3.09875)
(9.59925 0 -2.74313)
(11.354 0 -2.32851)
(12.975 0 -1.88122)
(14.4802 0 -1.4377)
(15.8944 0 -1.03725)
(17.2308 0 -0.704483)
(18.4707 0 -0.431489)
(19.5567 0 -0.177864)
(20.4155 0 0.107615)
(20.9765 0 0.46844)
(21.1707 0 0.926411)
(20.9216 0 1.45976)
(20.1353 0 1.97727)
(18.7773 0 2.37965)
(16.8863 0 2.63034)
(14.5477 0 2.70659)
(11.9335 0 2.61609)
(9.25323 0 2.37575)
(6.69668 0 2.0414)
(4.38015 0 1.70431)
(2.3134 0 1.45014)
(0.415429 0 1.33284)
(-1.44493 0 1.37366)
(-3.40779 0 1.56437)
(-5.58186 0 1.86614)
(-8.00223 0 2.20564)
(-10.5984 0 2.4877)
(-13.2037 0 2.63595)
(-15.6123 0 2.6223)
(-17.6269 0 2.43006)
(-19.1262 0 2.07209)
(-20.0606 0 1.57588)
(-20.4279 0 1.01856)
(-20.3126 0 0.510533)
(-19.7997 0 0.0980329)
(-18.9627 0 -0.228842)
(-17.8764 0 -0.507903)
(-16.6173 0 -0.787336)
(-15.2486 0 -1.10897)
(-13.7997 0 -1.48784)
(-12.2665 0 -1.9075)
(-10.6291 0 -2.33279)
(-8.87059 0 -2.72767)
(-6.98823 0 -3.06452)
(-4.99457 0 -3.32533)
(-2.91481 0 -3.4995)
(-0.782685 0 -3.58135)
(1.36372 0 -3.56848)
(3.48532 0 -3.46126)
(5.54479 0 -3.26288)
(7.51032 0 -2.98014)
(9.35972 0 -2.62539)
(11.0844 0 -2.21909)
(12.6915 0 -1.79151)
(14.2002 0 -1.37983)
(15.6283 0 -1.01611)
(16.9719 0 -0.708908)
(18.1915 0 -0.434341)
(19.2176 0 -0.146838)
(19.9744 0 0.200315)
(20.3865 0 0.639607)
(20.3802 0 1.16892)
(19.8647 0 1.72168)
(18.7731 0 2.18445)
(17.1273 0 2.49983)
(14.9896 0 2.64338)
(12.5058 0 2.61164)
(9.88324 0 2.42172)
(7.32182 0 2.11495)
(4.96604 0 1.77671)
(2.85668 0 1.49932)
(0.934445 0 1.34698)
(-0.922113 0 1.3497)
(-2.85456 0 1.50758)
(-4.98448 0 1.79106)
(-7.37187 0 2.13678)
(-9.97759 0 2.45341)
(-12.6594 0 2.65603)
(-15.2191 0 2.70331)
(-17.4493 0 2.57832)
(-19.1997 0 2.28378)
(-20.4042 0 1.84451)
(-21.0356 0 1.31058)
(-21.1546 0 0.79166)
(-20.8531 0 0.360364)
(-20.2036 0 0.0234377)
(-19.2756 0 -0.24854)
(-18.1401 0 -0.502446)
(-16.8693 0 -0.788893)
(-15.5114 0 -1.14114)
(-14.0744 0 -1.55689)
(-12.5398 0 -2.00546)
(-10.8833 0 -2.447)
(-9.09063 0 -2.84756)
(-7.16365 0 -3.18374)
(-5.11921 0 -3.44128)
(-2.98542 0 -3.61214)
(-0.797823 0 -3.69209)
(1.33313 0 -5.85145)
(3.40525 0 -5.70336)
(5.43217 0 -5.43053)
(7.39067 0 -5.04379)
(9.26329 0 -4.56103)
(11.0391 0 -4.00918)
(12.7122 0 -3.42488)
(14.2772 0 -2.85046)
(15.7216 0 -2.32146)
(17.0204 0 -1.84884)
(18.1403 0 -1.41075)
(19.0508 0 -0.964591)
(19.7338 0 -0.468406)
(20.1858 0 0.109174)
(20.4151 0 0.786951)
(20.4355 0 1.57304)
(20.2371 0 2.47501)
(19.7394 0 3.49721)
(18.7928 0 4.53176)
(17.2395 0 5.27649)
(15.001 0 5.5588)
(12.2261 0 5.42727)
(9.21063 0 4.99463)
(6.21622 0 4.44597)
(3.36351 0 3.98782)
(0.636013 0 3.76455)
(-2.05781 0 3.83615)
(-4.82283 0 4.17965)
(-7.71835 0 4.68844)
(-10.693 0 5.17629)
(-13.5429 0 5.43314)
(-15.9689 0 5.3159)
(-17.7439 0 4.74681)
(-18.8591 0 3.77751)
(-19.4594 0 2.7143)
(-19.7048 0 1.75106)
(-19.7085 0 0.907185)
(-19.5004 0 0.171818)
(-19.0702 0 -0.460942)
(-18.4067 0 -1.00463)
(-17.511 0 -1.48525)
(-16.3988 0 -1.93986)
(-15.0994 0 -2.40887)
(-13.647 0 -2.91787)
(-12.0706 0 -3.46394)
(-10.3878 0 -4.01788)
(-8.6078 0 -4.53979)
(-6.73895 0 -4.99284)
(-4.79327 0 -5.34904)
(-2.78853 0 -5.58957)
(-0.747689 0 -5.70331)
(1.30306 0 -5.68539)
(3.33661 0 -5.53657)
(5.32742 0 -5.2633)
(7.25379 0 -4.87862)
(9.09952 0 -4.40372)
(10.8539 0 -3.86917)
(12.5091 0 -3.31353)
(14.0541 0 -2.7755)
(15.4684 0 -2.27846)
(16.7205 0 -1.81693)
(17.7763 0 -1.35931)
(18.6101 0 -0.864767)
(19.2098 0 -0.298885)
(19.5782 0 0.361014)
(19.7285 0 1.1254)
(19.6651 0 2.00037)
(19.3381 0 2.99716)
(18.6137 0 4.06412)
(17.3311 0 4.94912)
(15.3673 0 5.39097)
(12.797 0 5.39568)
(9.88548 0 5.0583)
(6.91843 0 4.54332)
(4.05905 0 4.06396)
(1.32224 0 3.78757)
(-1.37004 0 3.79758)
(-4.12463 0 4.09408)
(-7.019 0 4.59443)
(-10.0378 0 5.13283)
(-13.0178 0 5.49775)
(-15.6719 0 5.52525)
(-17.7285 0 5.11881)
(-19.1015 0 4.26303)
(-19.9098 0 3.20843)
(-20.3125 0 2.21632)
(-20.4468 0 1.34719)
(-20.3701 0 0.591051)
(-20.0813 0 -0.0583059)
(-19.5664 0 -0.611353)
(-18.8201 0 -1.09037)
(-17.8498 0 -1.52991)
(-16.6775 0 -1.97369)
(-15.3356 0 -2.46106)
(-13.8562 0 -3.00499)
(-12.2607 0 -3.58626)
(-10.559 0 -4.16576)
(-8.75582 0 -4.70187)
(-6.85824 0 -5.16051)
(-4.87893 0 -5.51741)
(-2.83708 0 -5.75679)
(-0.75716 0 -5.86947)
(1.27426 0 -7.94451)
(3.25814 0 -7.76811)
(5.20716 0 -7.44445)
(7.10275 0 -6.98815)
(8.92932 0 -6.42118)
(10.6736 0 -5.77296)
(12.3221 0 -5.07856)
(13.8575 0 -4.3737)
(15.2551 0 -3.68553)
(16.4846 0 -3.02233)
(17.5163 0 -2.3697)
(18.3299 0 -1.69808)
(18.9166 0 -0.976271)
(19.2763 0 -0.179625)
(19.4144 0 0.708181)
(19.3373 0 1.69833)
(19.0486 0 2.80083)
(18.5628 0 4.01259)
(17.8925 0 5.3015)
(16.9551 0 6.61533)
(15.5081 0 7.75515)
(13.3289 0 8.27217)
(10.49 0 8.12167)
(7.30294 0 7.60486)
(4.0394 0 7.07607)
(0.795739 0 6.79646)
(-2.43109 0 6.8761)
(-5.66049 0 7.27394)
(-8.85635 0 7.79678)
(-11.8339 0 8.11727)
(-14.2676 0 7.88768)
(-15.9654 0 6.94996)
(-17.0344 0 5.65356)
(-17.7535 0 4.33234)
(-18.2664 0 3.07056)
(-18.5856 0 1.90665)
(-18.6913 0 0.854768)
(-18.5781 0 -0.0928718)
(-18.2418 0 -0.945911)
(-17.6772 0 -1.7167)
(-16.8836 0 -2.42508)
(-15.8684 0 -3.09812)
(-14.6502 0 -3.76363)
(-13.2573 0 -4.43828)
(-11.7215 0 -5.11877)
(-10.0703 0 -5.78268)
(-8.32459 0 -6.39708)
(-6.50068 0 -6.9279)
(-4.61361 0 -7.3459)
(-2.67984 0 -7.62913)
(-0.718006 0 -7.76343)
(1.25148 0 -7.74226)
(3.20766 0 -7.56664)
(5.13053 0 -7.24516)
(7.00202 0 -6.79408)
(8.80622 0 -6.23744)
(10.528 0 -5.60615)
(12.1504 0 -4.93474)
(13.6505 0 -4.25431)
(14.9992 0 -3.58277)
(16.1648 0 -2.91758)
(17.1213 0 -2.23782)
(17.8531 0 -1.51486)
(18.3554 0 -0.723239)
(18.6306 0 0.154659)
(18.6841 0 1.12973)
(18.5194 0 2.21177)
(18.1452 0 3.40525)
(17.5816 0 4.68742)
(16.7886 0 6.0158)
(15.5765 0 7.26403)
(13.6758 0 8.02014)
(11.0641 0 8.0713)
(7.99782 0 7.65953)
(4.78226 0 7.14263)
(1.55385 0 6.81884)
(-1.67522 0 6.83943)
(-4.92633 0 7.20386)
(-8.18505 0 7.76089)
(-11.3113 0 8.21351)
(-13.9943 0 8.20476)
(-15.9681 0 7.48681)
(-17.245 0 6.26015)
(-18.0927 0 4.94423)
(-18.7102 0 3.67221)
(-19.1446 0 2.4881)
(-19.376 0 1.41691)
(-19.3947 0 0.455643)
(-19.1966 0 -0.406183)
(-18.7751 0 -1.18057)
(-18.126 0 -1.886)
(-17.2513 0 -2.54929)
(-16.1629 0 -3.20234)
(-14.8841 0 -3.87196)
(-13.4458 0 -4.56655)
(-11.8773 0 -5.27182)
(-10.201 0 -5.9572)
(-8.4329 0 -6.58641)
(-6.58597 0 -7.1256)
(-4.67402 0 -7.54734)
(-2.71346 0 -7.83169)
(-0.723583 0 -7.96601)
(1.21142 0 -9.87953)
(3.09879 0 -9.68204)
(4.95624 0 -9.31998)
(6.76682 0 -8.80966)
(8.51464 0 -8.17442)
(10.1839 0 -7.44343)
(11.7571 0 -6.64894)
(13.2127 0 -5.82121)
(14.5243 0 -4.98161)
(15.6633 0 -4.13635)
(16.6042 0 -3.27545)
(17.3297 0 -2.37881)
(17.8323 0 -1.42514)
(18.1114 0 -0.397678)
(18.171 0 0.714099)
(18.0175 0 1.91554)
(17.6602 0 3.20984)
(17.1133 0 4.6006)
(16.3874 0 6.08644)
(15.4829 0 7.64144)
(14.3773 0 9.16632)
(12.8845 0 10.4408)
(10.6536 0 11.0299)
(7.70213 0 10.8938)
(4.36659 0 10.489)
(0.889775 0 10.2285)
(-2.5996 0 10.2862)
(-5.99059 0 10.6002)
(-9.11228 0 10.8651)
(-11.6529 0 10.5968)
(-13.394 0 9.54367)
(-14.5975 0 8.06998)
(-15.5419 0 6.49519)
(-16.3035 0 4.95675)
(-16.8802 0 3.50561)
(-17.2672 0 2.1499)
(-17.4498 0 0.887184)
(-17.4176 0 -0.285331)
(-17.1644 0 -1.37056)
(-16.6865 0 -2.37517)
(-15.9841 0 -3.31161)
(-15.0636 0 -4.19744)
(-13.9408 0 -5.05087)
(-12.6398 0 -5.88281)
(-11.1898 0 -6.69029)
(-9.61874 0 -7.45563)
(-7.95084 0 -8.1513)
(-6.20604 0 -8.74674)
(-4.40196 0 -9.21375)
(-2.55564 0 -9.52979)
(-0.684554 0 -9.67962)
(1.19321 0 -9.656)
(3.05936 0 -9.46007)
(4.89593 0 -9.10129)
(6.68563 0 -8.59697)
(8.41141 0 -7.9714)
(10.0552 0 -7.25383)
(11.596 0 -6.47464)
(13.0086 0 -5.65935)
(14.264 0 -4.82197)
(15.3341 0 -3.96128)
(16.1965 0 -3.06356)
(16.8384 0 -2.1101)
(17.2551 0 -1.08446)
(17.4478 0 0.0241878)
(17.421 0 1.22112)
(17.1816 0 2.50889)
(16.7416 0 3.8906)
(16.1149 0 5.36726)
(15.3032 0 6.92416)
(14.3036 0 8.48938)
(12.9918 0 9.89309)
(11.039 0 10.7479)
(8.3059 0 10.8252)
(5.08574 0 10.5025)
(1.65562 0 10.2387)
(-1.84089 0 10.2714)
(-5.29433 0 10.5983)
(-8.55646 0 10.9789)
(-11.3418 0 10.9535)
(-13.3471 0 10.1398)
(-14.7031 0 8.76192)
(-15.7439 0 7.21408)
(-16.6003 0 5.67192)
(-17.2773 0 4.21098)
(-17.7739 0 2.8467)
(-18.0767 0 1.57798)
(-18.1726 0 0.40124)
(-18.0535 0 -0.68696)
(-17.7134 0 -1.69311)
(-17.1495 0 -2.62942)
(-16.3639 0 -3.5142)
(-15.3666 0 -4.36918)
(-14.1774 0 -5.21263)
(-12.8235 0 -6.05037)
(-11.3333 0 -6.87165)
(-9.73179 0 -7.65194)
(-8.03933 0 -8.35979)
(-6.27272 0 -8.96341)
(-4.44765 0 -9.43505)
(-2.58024 0 -9.75321)
(-0.687788 0 -9.90361)
(1.14163 0 -11.7233)
(2.92028 0 -11.5058)
(4.67076 0 -11.1065)
(6.37632 0 -10.5424)
(8.02026 0 -9.83657)
(9.58511 0 -9.01688)
(11.0515 0 -8.11276)
(12.3971 0 -7.151)
(13.5969 0 -6.15082)
(14.6258 0 -5.12005)
(15.4622 0 -4.05476)
(16.0915 0 -2.94312)
(16.5067 0 -1.77107)
(16.7069 0 -0.526582)
(16.6949 0 0.798482)
(16.476 0 2.20801)
(16.0582 0 3.70204)
(15.453 0 5.2763)
(14.6754 0 6.92066)
(13.7415 0 8.62013)
(12.6586 0 10.3458)
(11.3896 0 11.9979)
(9.74607 0 13.3051)
(7.37224 0 13.8948)
(4.30869 0 13.8957)
(0.905955 0 13.7704)
(-2.54909 0 13.7645)
(-5.78173 0 13.7923)
(-8.47879 0 13.4591)
(-10.3815 0 12.401)
(-11.7548 0 10.8284)
(-12.8804 0 9.09218)
(-13.8455 0 7.35336)
(-14.6535 0 5.65978)
(-15.29 0 4.02891)
(-15.7395 0 2.47369)
(-15.9891 0 1.00106)
(-16.0301 0 -0.386605)
(-15.8575 0 -1.69028)
(-15.4684 0 -2.91456)
(-14.8636 0 -4.06781)
(-14.0493 0 -5.16098)
(-13.0387 0 -6.20421)
(-11.8525 0 -7.20169)
(-10.5158 0 -8.14755)
(-9.05469 0 -9.02511)
(-7.49335 0 -9.80992)
(-5.85314 0 -10.4744)
(-4.15326 0 -10.992)
(-2.41168 0 -11.3411)
(-0.646031 0 -11.5063)
(1.12606 0 -11.4803)
(2.88692 0 -11.2642)
(4.61895 0 -10.8676)
(6.30448 0 -10.3078)
(7.92529 0 -9.60796)
(9.46171 0 -8.79533)
(10.8916 0 -7.89709)
(12.1901 0 -6.93601)
(13.3311 0 -5.926)
(14.2902 0 -4.86995)
(15.0487 0 -3.76154)
(15.5952 0 -2.58993)
(15.9255 0 -1.34465)
(16.0397 0 -0.0183102)
(15.9415 0 1.39263)
(15.6366 0 2.88824)
(15.1349 0 4.46512)
(14.4502 0 6.1147)
(13.5983 0 7.82283)
(12.5914 0 9.56837)
(11.414 0 11.2836)
(9.93456 0 12.7587)
(7.82027 0 13.6139)
(4.94077 0 13.7996)
(1.6202 0 13.7534)
(-1.84769 0 13.7973)
(-5.1878 0 13.926)
(-8.0992 0 13.8097)
(-10.2479 0 13.0063)
(-11.7584 0 11.5658)
(-12.9666 0 9.87538)
(-14.0081 0 8.15157)
(-14.9008 0 6.46541)
(-15.6328 0 4.83868)
(-16.1881 0 3.28546)
(-16.5525 0 1.81415)
(-16.7154 0 0.427698)
(-16.6698 0 -0.874965)
(-16.4109 0 -2.09885)
(-15.9368 0 -3.25321)
(-15.2497 0 -4.35091)
(-14.3588 0 -5.40592)
(-13.2807 0 -6.42848)
(-12.0384 0 -7.41951)
(-10.6573 0 -8.36782)
(-9.1618 0 -9.25166)
(-7.57343 0 -10.043)
(-5.9109 0 -10.7126)
(-4.19135 0 -11.2335)
(-2.43145 0 -11.5842)
(-0.648056 0 -11.7498)
(1.06285 0 -13.4494)
(2.71798 0 -13.2125)
(4.34508 0 -12.777)
(5.92705 0 -12.1597)
(7.44654 0 -11.3832)
(8.88536 0 -10.4739)
(10.2239 0 -9.45927)
(11.4408 0 -8.36402)
(12.5136 0 -7.20671)
(13.421 0 -5.99717)
(14.1449 0 -4.73645)
(14.6729 0 -3.41919)
(14.9986 0 -2.03747)
(15.1208 0 -0.583928)
(15.0416 0 0.946255)
(14.766 0 2.55437)
(14.3014 0 4.23796)
(13.6579 0 5.9905)
(12.8485 0 7.80023)
(11.8887 0 9.64895)
(10.7927 0 11.5108)
(9.56784 0 13.3466)
(8.15561 0 15.0478)
(6.34008 0 16.323)
(3.83502 0 16.9473)
(0.833616 0 17.0945)
(-2.25369 0 16.9759)
(-5.0196 0 16.5145)
(-7.11529 0 15.4657)
(-8.65247 0 13.8681)
(-9.9257 0 12.0374)
(-11.0531 0 10.1513)
(-12.0439 0 8.26492)
(-12.8846 0 6.40661)
(-13.5601 0 4.59723)
(-14.0567 0 2.85165)
(-14.3633 0 1.17914)
(-14.472 0 -0.415105)
(-14.378 0 -1.92929)
(-14.0789 0 -3.36485)
(-13.5756 0 -4.72585)
(-12.874 0 -6.01749)
(-11.9855 0 -7.24346)
(-10.9274 0 -8.40253)
(-9.72104 0 -9.48592)
(-8.38959 0 -10.4768)
(-6.95574 0 -11.3524)
(-5.44074 0 -12.087)
(-3.86433 0 -12.6558)
(-2.24522 0 -13.0379)
(-0.601595 0 -13.2184)
(1.04857 0 -13.19)
(2.68733 0 -12.9538)
(4.29668 0 -12.5193)
(5.85834 0 -11.9033)
(7.35337 0 -11.128)
(8.76164 0 -10.2187)
(10.0615 0 -9.20061)
(11.2299 0 -8.09535)
(12.2441 0 -6.91759)
(13.0833 0 -5.67391)
(13.732 0 -4.36386)
(14.1802 0 -2.98302)
(14.4236 0 -1.5263)
(14.4622 0 0.00975349)
(14.2992 0 1.62575)
(13.9401 0 3.31896)
(13.3937 0 5.08318)
(12.6718 0 6.90777)
(11.7889 0 8.77621)
(10.7598 0 10.6657)
(9.59624 0 12.5446)
(8.26966 0 14.3389)
(6.61674 0 15.816)
(4.32298 0 16.6891)
(1.4292 0 17.0332)
(-1.67486 0 17.0854)
(-4.5811 0 16.8367)
(-6.89292 0 16.0369)
(-8.5653 0 14.6102)
(-9.91299 0 12.852)
(-11.1016 0 11.0029)
(-12.1618 0 9.14148)
(-13.082 0 7.30114)
(-13.8475 0 5.50535)
(-14.4433 0 3.77057)
(-14.8571 0 2.10697)
(-15.0795 0 0.519873)
(-15.104 0 -0.989264)
(-14.9262 0 -2.42275)
(-14.5447 0 -3.78622)
(-13.9622 0 -5.08742)
(-13.1866 0 -6.33394)
(-12.2319 0 -7.52972)
(-11.1173 0 -8.67148)
(-9.86489 0 -9.74684)
(-8.49683 0 -10.7353)
(-7.034 0 -11.6109)
(-5.49561 0 -12.3462)
(-3.89955 0 -12.9156)
(-2.26306 0 -13.2979)
(-0.60322 0 -13.4782)
(0.974889 0 -15.0445)
(2.49187 0 -14.788)
(3.98038 0 -14.3157)
(5.42299 0 -13.644)
(6.80206 0 -12.7952)
(8.09944 0 -11.7947)
(9.29621 0 -10.6689)
(10.3728 0 -9.44173)
(11.3099 0 -8.13216)
(12.0893 0 -6.75237)
(12.6964 0 -5.3076)
(13.121 0 -3.79767)
(13.3577 0 -2.21962)
(13.4053 0 -0.570071)
(13.266 0 1.15274)
(12.9445 0 2.94758)
(12.4478 0 4.80942)
(11.7853 0 6.72903)
(10.9689 0 8.69246)
(10.012 0 10.6809)
(8.92851 0 12.6717)
(7.73213 0 14.6379)
(6.42652 0 16.5314)
(4.92923 0 18.2097)
(3.03191 0 19.3835)
(0.685822 0 19.8564)
(-1.75548 0 19.6034)
(-3.87611 0 18.6414)
(-5.51644 0 17.0883)
(-6.87906 0 15.2144)
(-8.10562 0 13.2335)
(-9.21956 0 11.2149)
(-10.2067 0 9.18836)
(-11.0539 0 7.17675)
(-11.7475 0 5.2005)
(-12.2751 0 3.27617)
(-12.6268 0 1.41586)
(-12.795 0 -0.372398)
(-12.7749 0 -2.0841)
(-12.5642 0 -3.71775)
(-12.1636 0 -5.27363)
(-11.5781 0 -6.75221)
(-10.817 0 -8.15201)
(-9.89475 0 -9.46725)
(-8.82917 0 -10.6862)
(-7.64032 0 -11.791)
(-6.34879 0 -12.7592)
(-4.97482 0 -13.566)
(-3.53801 0 -14.1877)
(-2.05734 0 -14.6039)
(-0.551457 0 -14.8002)
(0.961146 0 -14.7693)
(2.46203 0 -14.5124)
(3.93267 0 -14.0388)
(5.35436 0 -13.3648)
(6.70795 0 -12.5117)
(7.97369 0 -11.5041)
(9.13117 0 -10.3663)
(10.1598 0 -9.11967)
(11.04 0 -7.78057)
(11.7547 0 -6.35898)
(12.2908 0 -4.85932)
(12.6401 0 -3.28229)
(12.799 0 -1.62731)
(12.7676 0 0.105577)
(12.549 0 1.91418)
(12.1488 0 3.79305)
(11.5749 0 5.73306)
(10.8383 0 7.72092)
(9.95176 0 9.73892)
(8.92888 0 11.7657)
(7.78291 0 13.7779)
(6.5257 0 15.7399)
(5.10772 0 17.5557)
(3.35033 0 18.97)
(1.10727 0 19.7433)
(-1.35057 0 19.7999)
(-3.59831 0 19.128)
(-5.36372 0 17.7891)
(-6.79321 0 16.0268)
(-8.066 0 14.1058)
(-9.23318 0 12.1293)
(-10.2835 0 10.1366)
(-11.2033 0 8.15276)
(-11.979 0 6.19947)
(-12.5972 0 4.29428)
(-13.0468 0 2.44981)
(-13.3191 0 0.674122)
(-13.4076 0 -1.02884)
(-13.3083 0 -2.65877)
(-13.0199 0 -4.21802)
(-12.5446 0 -5.71006)
(-11.889 0 -7.13736)
(-11.0648 0 -8.49882)
(-10.0876 0 -9.78742)
(-8.97609 0 -10.989)
(-7.74982 0 -12.083)
(-6.4282 0 -13.0445)
(-5.02992 0 -13.8472)
(-3.57297 0 -14.4661)
(-2.07492 0 -14.8805)
(-0.553169 0 -15.0757)
(0.878278 0 -16.4944)
(2.24354 0 -16.218)
(3.58002 0 -15.7082)
(4.87021 0 -14.9814)
(6.0966 0 -14.0597)
(7.24165 0 -12.9681)
(8.28775 0 -11.7327)
(9.21749 0 -10.3777)
(10.0143 0 -8.9232)
(10.6635 0 -7.38371)
(11.1532 0 -5.76808)
(11.4756 0 -4.08039)
(11.6266 0 -2.32173)
(11.6058 0 -0.492236)
(11.4158 0 1.40707)
(11.0614 0 3.37259)
(10.5498 0 5.3971)
(9.89014 0 7.46918)
(9.09365 0 9.57285)
(8.17337 0 11.6879)
(7.14349 0 13.7911)
(6.01941 0 15.8587)
(4.82289 0 17.8597)
(3.55346 0 19.7112)
(2.13678 0 21.1712)
(0.504301 0 21.859)
(-1.18715 0 21.5147)
(-2.70421 0 20.2614)
(-4.02372 0 18.4734)
(-5.24178 0 16.4693)
(-6.38874 0 14.3818)
(-7.44466 0 12.2508)
(-8.39189 0 10.0983)
(-9.21623 0 7.94695)
(-9.90427 0 5.81836)
(-10.4443 0 3.73092)
(-10.8266 0 1.69902)
(-11.0437 0 -0.266942)
(-11.0903 0 -2.16005)
(-10.9636 0 -3.97606)
(-10.6637 0 -5.71191)
(-10.194 0 -7.36407)
(-9.56211 0 -8.9268)
(-8.77934 0 -10.3904)
(-7.86044 0 -11.7404)
(-6.82245 0 -12.9573)
(-5.68364 0 -14.0179)
(-4.46277 0 -14.8978)
(-3.1787 0 -15.5733)
(-1.85024 0 -16.0245)
(-0.496163 0 -16.2369)
(0.864753 0 -16.2034)
(2.21374 0 -15.9253)
(3.53204 0 -15.4117)
(4.80085 0 -14.6786)
(6.00134 0 -13.7473)
(7.11468 0 -12.6419)
(8.12217 0 -11.3868)
(9.00577 0 -10.0042)
(9.74897 0 -8.51245)
(10.3378 0 -6.92463)
(10.762 0 -5.24922)
(11.0151 0 -3.4912)
(11.0946 0 -1.6538)
(11.0014 0 0.25975)
(10.7388 0 2.24464)
(10.3128 0 4.29303)
(9.73157 0 6.39345)
(9.00527 0 8.53039)
(8.14616 0 10.6844)
(7.16798 0 12.8333)
(6.08517 0 14.9549)
(4.91769 0 17.0256)
(3.67856 0 18.9912)
(2.31569 0 20.6718)
(0.737268 0 21.7106)
(-0.963866 0 21.7682)
(-2.54199 0 20.8327)
(-3.90733 0 19.2307)
(-5.15282 0 17.3234)
(-6.33172 0 15.2994)
(-7.4319 0 13.2194)
(-8.43331 0 11.1104)
(-9.32116 0 8.99614)
(-10.0815 0 6.89907)
(-10.7016 0 4.83839)
(-11.1711 0 2.82883)
(-11.4811 0 0.880636)
(-11.6252 0 -1.00003)
(-11.5991 0 -2.8104)
(-11.401 0 -4.54987)
(-11.0322 0 -6.21822)
(-10.4978 0 -7.81373)
(-9.80688 0 -9.33118)
(-8.97208 0 -10.7602)
(-8.00874 0 -12.0847)
(-6.93377 0 -13.2832)
(-5.76467 0 -14.3308)
(-4.51903 0 -15.2014)
(-3.21441 0 -15.8706)
(-1.86829 0 -16.3177)
(-0.498197 0 -16.528)
(0.77384 0 -17.7862)
(1.9753 0 -17.4898)
(3.14817 0 -16.9424)
(4.27524 0 -16.1607)
(5.33961 0 -15.1667)
(6.32476 0 -13.986)
(7.21473 0 -12.6449)
(7.99439 0 -11.1684)
(8.64993 0 -9.57823)
(9.16962 0 -7.89137)
(9.54448 0 -6.11978)
(9.76878 0 -4.27109)
(9.84015 0 -2.34985)
(9.75931 0 -0.359241)
(9.52966 0 1.69714)
(9.15689 0 3.81349)
(8.64868 0 5.98057)
(8.01464 0 8.18502)
(7.26629 0 10.409)
(6.41722 0 12.6303)
(5.48337 0 14.8234)
(4.48389 0 16.9611)
(3.44683 0 19.011)
(2.40828 0 20.9005)
(1.37933 0 22.4181)
(0.340724 0 23.1579)
(-0.704606 0 22.7919)
(-1.73806 0 21.474)
(-2.77153 0 19.6386)
(-3.80941 0 17.5879)
(-4.82117 0 15.4346)
(-5.7728 0 13.2166)
(-6.64252 0 10.9595)
(-7.41345 0 8.68894)
(-8.07124 0 6.42845)
(-8.60375 0 4.1984)
(-9.00085 0 2.01517)
(-9.25438 0 -0.108746)
(-9.35828 0 -2.16419)
(-9.30877 0 -4.14437)
(-9.10468 0 -6.04324)
(-8.74795 0 -7.85384)
(-8.24387 0 -9.56679)
(-7.60117 0 -11.169)
(-6.83165 0 -12.6432)
(-5.94949 0 -13.9679)
(-4.97057 0 -15.1189)
(-3.9119 0 -16.071)
(-2.79115 0 -16.8003)
(-1.62648 0 -17.2865)
(-0.436372 0 -17.5152)
(0.760553 0 -17.4792)
(1.94561 0 -17.1797)
(3.10019 0 -16.6259)
(4.2059 0 -15.8341)
(5.24469 0 -14.8257)
(6.19903 0 -13.6251)
(7.05218 0 -12.2575)
(7.78863 0 -10.7466)
(8.39479 0 -9.11272)
(8.85963 0 -7.37208)
(9.17534 0 -5.53663)
(9.33754 0 -3.61494)
(9.34519 0 -1.61357)
(9.20019 0 0.461368)
(8.90697 0 2.60263)
(8.47222 0 4.80019)
(7.9046 0 7.04051)
(7.2148 0 9.30611)
(6.41553 0 11.5756)
(5.52177 0 13.8247)
(4.55127 0 16.0278)
(3.52853 0 18.1584)
(2.49009 0 20.1675)
(1.45869 0 21.9016)
(0.421947 0 23.0011)
(-0.623633 0 23.0578)
(-1.6579 0 22.0615)
(-2.68815 0 20.4091)
(-3.72901 0 18.463)
(-4.75937 0 16.3848)
(-5.74314 0 14.229)
(-6.65556 0 12.0253)
(-7.47858 0 9.80071)
(-8.19694 0 7.57984)
(-8.79763 0 5.38379)
(-9.26966 0 3.2292)
(-9.60395 0 1.12825)
(-9.79333 0 -0.91084)
(-9.83272 0 -2.88302)
(-9.71941 0 -4.78497)
(-9.45349 0 -6.6133)
(-9.03824 0 -8.36277)
(-8.4803 0 -10.0247)
(-7.78947 0 -11.5857)
(-6.97813 0 -13.0274)
(-6.06052 0 -14.3272)
(-5.05203 0 -15.4593)
(-3.9688 0 -16.3975)
(-2.82747 0 -17.1169)
(-1.64503 0 -17.5967)
(-0.438775 0 -17.8223)
(0.662466 0 -18.9085)
(1.68952 0 -18.5924)
(2.6889 0 -18.0082)
(3.64415 0 -17.1729)
(4.53938 0 -16.1092)
(5.35949 0 -14.8433)
(6.09037 0 -13.4024)
(6.71918 0 -11.813)
(7.23477 0 -10.0985)
(7.62814 0 -8.27831)
(7.89286 0 -6.36728)
(8.02542 0 -4.37608)
(8.02522 0 -2.31229)
(7.89441 0 -0.181785)
(7.63756 0 2.00945)
(7.26144 0 4.25351)
(6.77471 0 6.53926)
(6.18792 0 8.85142)
(5.51359 0 11.17)
(4.76662 0 13.4704)
(3.96508 0 15.7233)
(3.1318 0 17.8952)
(2.29894 0 19.9437)
(1.513 0 21.7894)
(0.818269 0 23.2375)
(0.21744 0 23.9315)
(-0.361861 0 23.5864)
(-1.01388 0 22.3348)
(-1.76543 0 20.5565)
(-2.58279 0 18.5218)
(-3.4153 0 16.3438)
(-4.22408 0 14.0714)
(-4.98316 0 11.7386)
(-5.67281 0 9.37547)
(-6.27708 0 7.00854)
(-6.78265 0 4.66045)
(-7.17835 0 2.3496)
(-7.45496 0 0.0904594)
(-7.60525 0 -2.10569)
(-7.62414 0 -4.22969)
(-7.509 0 -6.27276)
(-7.26 0 -8.22493)
(-6.88026 0 -10.0736)
(-6.37599 0 -11.8027)
(-5.75625 0 -13.3922)
(-5.03253 0 -14.8184)
(-4.21833 0 -16.0555)
(-3.32867 0 -17.0772)
(-2.37971 0 -17.8587)
(-1.38851 0 -18.3793)
(-0.372722 0 -18.6239)
(0.649664 0 -18.5854)
(1.66056 0 -18.265)
(2.64204 0 -17.672)
(3.57659 0 -16.8231)
(4.44736 0 -15.7405)
(5.23847 0 -14.4495)
(5.93527 0 -12.9765)
(6.52476 0 -11.3469)
(6.99605 0 -9.58351)
(7.34082 0 -7.70522)
(7.5537 0 -5.72715)
(7.63237 0 -3.66107)
(7.57746 0 -1.51647)
(7.39228 0 0.697927)
(7.08253 0 2.97255)
(6.65601 0 5.29532)
(6.12245 0 7.65074)
(5.49359 0 10.0192)
(4.78338 0 12.3771)
(4.00869 0 14.6967)
(3.19053 0 16.9471)
(2.35764 0 19.0922)
(1.55324 0 21.0732)
(0.827257 0 22.7429)
(0.201325 0 23.7831)
(-0.373183 0 23.8382)
(-0.995573 0 22.8998)
(-1.71793 0 21.3138)
(-2.52166 0 19.4002)
(-3.35858 0 17.3126)
(-4.18581 0 15.1147)
(-4.97444 0 12.8455)
(-5.70317 0 10.5373)
(-6.35493 0 8.21799)
(-6.9155 0 5.91103)
(-7.37293 0 3.63509)
(-7.71718 0 1.40427)
(-7.9401 0 -0.771285)
(-8.03549 0 -2.88434)
(-7.99942 0 -4.92912)
(-7.83047 0 -6.89943)
(-7.53002 0 -8.78698)
(-7.1024 0 -10.58)
(-6.55478 0 -12.2625)
(-5.89679 0 -13.8137)
(-5.14011 0 -15.2093)
(-4.29794 0 -16.4225)
(-3.38471 0 -17.426)
(-2.41575 0 -18.1944)
(-1.40712 0 -18.7064)
(-0.375409 0 -18.9469)
(0.544989 0 -19.8512)
(1.38839 0 -19.5162)
(2.20586 0 -18.897)
(2.98215 0 -18.0112)
(3.70282 0 -16.8821)
(4.35449 0 -15.537)
(4.92505 0 -14.0046)
(5.40398 0 -12.3128)
(5.78262 0 -10.4872)
(6.05446 0 -8.54949)
(6.21547 0 -6.51709)
(6.26421 0 -4.40348)
(6.20186 0 -2.21886)
(6.03208 0 0.0283932)
(5.7608 0 2.33008)
(5.396 0 4.67629)
(4.94748 0 7.05403)
(4.4269 0 9.44605)
(3.84795 0 11.8301)
(3.22683 0 14.1786)
(2.58317 0 16.4579)
(1.94164 0 18.6275)
(1.33516 0 20.6342)
(0.808163 0 22.3897)
(0.405156 0 23.7174)
(0.12539 0 24.333)
(-0.125975 0 24.0227)
(-0.472322 0 22.8853)
(-0.951991 0 21.2145)
(-1.53052 0 19.2393)
(-2.15893 0 17.0755)
(-2.79888 0 14.7841)
(-3.42258 0 12.4081)
(-4.00854 0 9.98274)
(-4.53931 0 7.53822)
(-5.0003 0 5.09962)
(-5.37912 0 2.68745)
(-5.66533 0 0.318128)
(-5.85037 0 -1.99504)
(-5.92775 0 -4.24064)
(-5.89328 0 -6.4074)
(-5.7453 0 -8.48262)
(-5.48486 0 -10.4508)
(-5.11579 0 -12.2931)
(-4.64462 0 -13.9867)
(-4.08032 0 -15.5059)
(-3.43396 0 -16.8229)
(-2.71843 0 -17.9097)
(-1.94808 0 -18.7405)
(-1.13842 0 -19.2935)
(-0.305769 0 -19.5534)
(0.53306 0 -19.5125)
(1.36113 0 -19.1721)
(2.16173 0 -18.542)
(2.91872 0 -17.6395)
(3.61687 0 -16.4876)
(4.2422 0 -15.113)
(4.78228 0 -13.5438)
(5.22657 0 -11.8074)
(5.56672 0 -9.92882)
(5.79694 0 -7.92977)
(5.91413 0 -5.8282)
(5.91799 0 -3.63872)
(5.81089 0 -1.37352)
(5.59766 0 0.95627)
(5.28539 0 3.33886)
(4.88315 0 5.76021)
(4.40191 0 8.20285)
(3.85462 0 10.645)
(3.25657 0 13.0603)
(2.62616 0 15.4172)
(1.9863 0 17.6787)
(1.36718 0 19.7985)
(0.81062 0 21.706)
(0.365722 0 23.2597)
(0.0535887 0 24.1984)
(-0.191797 0 24.2515)
(-0.49982 0 23.4122)
(-0.939542 0 21.9432)
(-1.49303 0 20.1066)
(-2.1129 0 18.0488)
(-2.75778 0 15.8445)
(-3.39743 0 13.5425)
(-4.00877 0 11.1811)
(-4.57322 0 8.79209)
(-5.07534 0 6.40174)
(-5.50202 0 4.03084)
(-5.8421 0 1.69539)
(-6.08628 0 -0.592554)
(-6.22712 0 -2.82371)
(-6.25929 0 -4.99001)
(-6.17979 0 -7.08273)
(-5.98815 0 -9.09087)
(-5.68652 0 -11)
(-5.27964 0 -12.7913)
(-4.77463 0 -14.4421)
(-4.18071 0 -15.9261)
(-3.50885 0 -17.2147)
(-2.77154 0 -18.2797)
(-1.98248 0 -19.0945)
(-1.15635 0 -19.6371)
(-0.308577 0 -19.8919)
(0.422149 0 -20.6055)
(1.07383 0 -20.2532)
(1.70217 0 -19.6019)
(2.29361 0 -18.6699)
(2.83556 0 -17.4816)
(3.31661 0 -16.0655)
(3.72684 0 -14.452)
(4.05801 0 -12.6706)
(4.3038 0 -10.749)
(4.46002 0 -8.71118)
(4.52476 0 -6.57704)
(4.4985 0 -4.36249)
(4.38409 0 -2.08018)
(4.18665 0 0.259254)
(3.91341 0 2.64551)
(3.57349 0 5.06681)
(3.17776 0 7.50833)
(2.73883 0 9.95091)
(2.27124 0 12.37)
(1.79188 0 14.7351)
(1.3207 0 17.0085)
(0.881884 0 19.1438)
(0.505449 0 21.0798)
(0.227677 0 22.7241)
(0.0800831 0 23.9224)
(0.0508257 0 24.4588)
(0.047619 0 24.1834)
(-0.0451084 0 23.1653)
(-0.272153 0 21.6185)
(-0.612665 0 19.7299)
(-1.02845 0 17.6123)
(-1.48601 0 15.335)
(-1.95867 0 12.9482)
(-2.42479 0 10.4921)
(-2.86629 0 8.00026)
(-3.26771 0 5.50024)
(-3.61567 0 3.01461)
(-3.8986 0 0.561694)
(-4.10673 0 -1.84329)
(-4.23221 0 -4.18679)
(-4.26934 0 -6.45524)
(-4.21477 0 -8.63338)
(-4.06759 0 -10.7032)
(-3.82949 0 -12.643)
(-3.50463 0 -14.4277)
(-3.09956 0 -16.0291)
(-2.62297 0 -17.4175)
(-2.08547 0 -18.5631)
(-1.49928 0 -19.4388)
(-0.877949 0 -20.0216)
(-0.235977 0 -20.2954)
(0.411552 0 -20.2524)
(1.04941 0 -19.8937)
(1.66262 0 -19.2296)
(2.23691 0 -18.2783)
(2.75905 0 -17.064)
(3.21724 0 -15.6149)
(3.60135 0 -13.9609)
(3.90325 0 -12.1314)
(4.11703 0 -10.1539)
(4.23916 0 -8.05265)
(4.26868 0 -5.84822)
(4.20716 0 -3.55785)
(4.05861 0 -1.19617)
(3.82933 0 1.22341)
(3.52772 0 3.68704)
(3.16405 0 6.17877)
(2.75036 0 8.67922)
(2.30057 0 11.1645)
(1.8308 0 13.6055)
(1.35997 0 15.9669)
(0.910938 0 18.2063)
(0.512059 0 20.2697)
(0.198773 0 22.0791)
(0.00804508 0 23.5036)
(-0.0520215 0 24.3381)
(-0.0497091 0 24.389)
(-0.105433 0 23.651)
(-0.290079 0 22.3114)
(-0.598425 0 20.5754)
(-0.995165 0 18.5776)
(-1.44544 0 16.3993)
(-1.92099 0 14.0965)
(-2.39892 0 11.713)
(-2.8602 0 9.28452)
(-3.28864 0 6.83979)
(-3.67024 0 4.40183)
(-3.99289 0 1.98852)
(-4.24618 0 -0.386288)
(-4.42149 0 -2.71135)
(-4.51214 0 -4.97647)
(-4.51364 0 -7.17059)
(-4.42376 0 -9.28028)
(-4.24269 0 -11.2886)
(-3.97297 0 -13.1744)
(-3.61939 0 -14.9127)
(-3.18884 0 -16.4751)
(-2.69003 0 -17.8317)
(-2.13332 0 -18.9524)
(-1.53045 0 -19.8096)
(-0.894321 0 -20.3803)
(-0.238701 0 -20.6483)
(0.294592 0 -21.1637)
(0.747489 0 -20.7963)
(1.18048 0 -20.1168)
(1.58218 0 -19.1446)
(1.94217 0 -17.9051)
(2.25132 0 -16.4283)
(2.50201 0 -14.746)
(2.68826 0 -12.8898)
(2.80599 0 -10.8893)
(2.85307 0 -8.77046)
(2.8295 0 -6.55559)
(2.73744 0 -4.26283)
(2.5812 0 -1.90703)
(2.36715 0 0.499068)
(2.10361 0 2.94323)
(1.80062 0 5.41193)
(1.4698 0 7.88868)
(1.12432 0 10.3526)
(0.778969 0 12.7771)
(0.450437 0 15.1292)
(0.157668 0 17.3681)
(-0.077636 0 19.4433)
(-0.230805 0 21.29)
(-0.275987 0 22.8175)
(-0.196796 0 23.8948)
(-0.0147853 0 24.3622)
(0.188604 0 24.1173)
(0.315641 0 23.2073)
(0.319685 0 21.7841)
(0.206558 0 19.9965)
(0.0013733 0 17.9491)
(-0.269627 0 15.7144)
(-0.583191 0 13.3469)
(-0.919133 0 10.8904)
(-1.2598 0 8.38113)
(-1.58957 0 5.84898)
(-1.89454 0 3.31832)
(-2.16242 0 0.809183)
(-2.38247 0 -1.66144)
(-2.54573 0 -4.07803)
(-2.6452 0 -6.42486)
(-2.67601 0 -8.68439)
(-2.63558 0 -10.8361)
(-2.52361 0 -12.8561)
(-2.34215 0 -14.7167)
(-2.09541 0 -16.3876)
(-1.7897 0 -17.837)
(-1.43321 0 -19.0334)
(-1.03575 0 -19.948)
(-0.608523 0 -20.5569)
(-0.163729 0 -20.8429)
(0.285806 0 -20.798)
(0.727093 0 -20.4232)
(1.14743 0 -19.7295)
(1.53484 0 -18.7359)
(1.87849 0 -17.4679)
(2.16895 0 -15.9553)
(2.39855 0 -14.2298)
(2.56152 0 -12.3231)