/*--------------------------------*- C++ -*----------------------------------*\
| =========                 |                                                 |
| \\      /  F ield         | OpenFOAM: The Open Source CFD Toolbox           |
|  \\    /   O peration     | Version:  2.3.0                                 |
|   \\  /    A nd           | Web:      www.OpenFOAM.org                      |
|    \\/     M anipulation  |                                                 |
\*---------------------------------------------------------------------------*/
FoamFile
{
    version     2.0;
    format      ascii;
    class       volScalarField;
    location    "25000";
    object      p;
}
// * * * * * * * * * * * * * * * * * * * * * * * * * * * * * * * * * * * * * //

dimensions      [0 2 -2 0 0 0 0];

internalField   nonuniform List<scalar> 
192
(
-1662.46
-1671.3
-1679.96
-1689.14
-1699.77
-1712.78
-1728.67
-1746.83
-1765.1
-1779.59
-1784.41
-1775.11
-1758.7
-1497.28
-1505.79
-1514.56
-1523.91
-1534.19
-1545.59
-1558.01
-1570.91
-1582.7
-1591.25
-1594.14
-1588.63
-1578.72
-1359.59
-1366.65
-1374.14
-1382.1
-1390.56
-1399.46
-1408.57
-1417.15
-1424
-1428.19
-1429.6
-1426.93
-1421.82
-1237.02
-1242.01
-1247.3
-1252.81
-1258.46
-1264.16
-1269.68
-1274.24
-1277.01
-1277.91
-1278.14
-1277.71
-1276.3
-1118.05
-1120.87
-1123.79
-1126.74
-1129.67
-1132.55
-1135.16
-1136.9
-1137.15
-1136.15
-1135.62
-1136.6
-1137.32
-996.829
-997.819
-998.766
-999.643
-1000.45
-1001.16
-1001.59
-1001.36
-1000.08
-998.025
-997.079
-998.845
-1000.76
-871.254
-870.852
-870.345
-869.752
-869.071
-868.212
-867.049
-865.354
-862.962
-860.221
-859.093
-861.268
-864.004
-741.077
-739.677
-738.168
-736.552
-734.781
-732.741
-730.313
-727.393
-724.058
-720.879
-719.693
-722.041
-725.385
-606.946
-604.788
-602.504
-600.047
-597.329
-594.246
-590.686
-586.682
-582.552
-579.093
-577.883
-580.297
-584.088
-469.8
-466.889
-463.826
-460.515
-456.842
-452.698
-448.039
-443.03
-438.185
-434.472
-433.218
-435.685
-439.882
-331.299
-327.385
-323.306
-318.921
-314.093
-308.724
-302.843
-296.738
-291.08
-286.975
-285.612
-288.211
-292.946
-195.317
-189.884
-184.337
-178.48
-172.144
-165.232
-157.816
-150.28
-143.439
-138.574
-136.964
-139.915
-145.57
-67.9948
-60.1118
-52.0019
-43.5024
-34.4844
-24.9066
-14.9244
-5.03716
3.78258
10.0375
12.1273
8.43752
23.6621
33.2844
43.0275
53.0923
63.7485
75.2364
87.5947
100.379
112.348
121.234
124.339
119.026
73.9353
69.1311
63.364
56.636
48.8139
39.7148
29.2633
17.7533
6.27105
-2.90733
-5.85339
-0.51647
)
;

boundaryField
{
    top
    {
        type            calculated;
        value           nonuniform List<scalar> 
12
(
-9.81
-9.81
-9.81
-9.81
-9.81
-9.81
-9.81
-9.81
-9.81
-9.81
-9.81
-9.81
)
;
    }
    bottom
    {
        type            calculated;
        value           nonuniform List<scalar> 
13
(
-1753.48
-1762.44
-1770.99
-1779.94
-1790.39
-1803.52
-1820.02
-1838.83
-1857.98
-1873.64
-1879.1
-1868.71
-1851.19
)
;
    }
    frontAndBack
    {
        type            empty;
    }
    left_cyc
    {
        type            cyclic;
    }
    right_cyc
    {
        type            cyclic;
    }
    procBoundary0to1
    {
        type            processor;
        value           nonuniform List<scalar> 
16
(
-1740.04
-1566.23
-1414.16
-1272.8
-1136.5
-1001.66
-866.154
-728.609
-588.246
-444.882
-298.874
-152.784
1.17029
1.17029
108.861
9.93929
)
;
    }
    procBoundary0to3throughleft_cyc
    {
        type            processorCyclic;
        value           nonuniform List<scalar> 
15
(
-1653.02
-1488.74
-1352.85
-1232.37
-1115.42
-995.848
-871.549
-742.348
-608.997
-472.639
-335.188
-200.834
-75.842
14.176
77.7543
)
;
    }
}


// ************************************************************************* //
