/*--------------------------------*- C++ -*----------------------------------*\
| =========                 |                                                 |
| \\      /  F ield         | OpenFOAM: The Open Source CFD Toolbox           |
|  \\    /   O peration     | Version:  2.3.0                                 |
|   \\  /    A nd           | Web:      www.OpenFOAM.org                      |
|    \\/     M anipulation  |                                                 |
\*---------------------------------------------------------------------------*/
FoamFile
{
    version     2.0;
    format      ascii;
    class       volScalarField;
    location    "25000";
    object      p_rgh;
}
// * * * * * * * * * * * * * * * * * * * * * * * * * * * * * * * * * * * * * //

dimensions      [0 2 -2 0 0 0 0];

internalField   nonuniform List<scalar> 
192
(
-1753.48
-1762.44
-1770.99
-1779.94
-1790.39
-1803.52
-1820.02
-1838.83
-1857.98
-1873.64
-1879.1
-1868.71
-1851.19
-1722.61
-1732.38
-1741.64
-1751.04
-1761.52
-1774.15
-1789.43
-1808
-1829.12
-1849.96
-1859.31
-1842.82
-1821.35
-1679.22
-1689.94
-1700.25
-1710.54
-1721.43
-1733.91
-1749.52
-1771.71
-1801.34
-1835.39
-1852.19
-1823.17
-1789.72
-1650.68
-1661.66
-1672.43
-1682.93
-1693.25
-1704.17
-1719.03
-1743.19
-1780.69
-1828.57
-1852.91
-1811.11
-1765.33
-1649.47
-1659.2
-1668.9
-1678
-1686.02
-1693.73
-1705.54
-1728.76
-1771.72
-1831.19
-1861.39
-1809.5
-1753.53
-1669.35
-1677.29
-1684.96
-1691.31
-1695.57
-1699.15
-1705.99
-1726.95
-1773.68
-1841.16
-1874.63
-1816.86
-1753.47
-1699.82
-1705.79
-1710.71
-1713.42
-1713.46
-1712.79
-1716.9
-1737.81
-1785.62
-1853.86
-1888.05
-1829.71
-1765.28
-1732.77
-1736.32
-1738.12
-1737.84
-1736.48
-1734.91
-1739.64
-1759.71
-1803.41
-1865.66
-1898.81
-1843.93
-1785.26
-1762.4
-1764.58
-1765.46
-1765.19
-1763.96
-1763.95
-1769.64
-1787.5
-1823.87
-1875.78
-1906.09
-1858.1
-1809.29
-1785.33
-1788.89
-1791.22
-1792.49
-1793.38
-1795.42
-1801.53
-1816.16
-1843.91
-1883.59
-1909.4
-1870.77
-1833.46
-1787.1
-1795.41
-1802.54
-1808.57
-1813.86
-1819.27
-1826.56
-1838.61
-1858.65
-1886.64
-1906.86
-1878.52
-1852
-1732.98
-1750.63
-1766.87
-1781.79
-1795.51
-1808.26
-1820.75
-1834.4
-1851.08
-1871.2
-1886.04
-1866.38
-1846.65
-1549.8
-1579.15
-1606.62
-1632.56
-1657.19
-1680.58
-1702.77
-1723.93
-1744.31
-1763.35
-1774.84
-1759.39
-1151.81
-1185.88
-1218.44
-1249.67
-1279.49
-1307.58
-1333.48
-1356.76
-1377.04
-1393.42
-1401.12
-1390.1
-427.586
-458.353
-489.83
-522.105
-555.268
-589.229
-623.494
-656.845
-686.847
-709.311
-717.134
-704.018
)
;

boundaryField
{
    top
    {
        type            fixedValue;
        value           uniform 0;
    }
    bottom
    {
        type            fixedFluxPressure;
        gradient        uniform 0;
        value           nonuniform List<scalar> 
13
(
-1753.48
-1762.44
-1770.99
-1779.94
-1790.39
-1803.52
-1820.02
-1838.83
-1857.98
-1873.64
-1879.1
-1868.71
-1851.19
)
;
    }
    frontAndBack
    {
        type            empty;
    }
    left_cyc
    {
        type            cyclic;
    }
    right_cyc
    {
        type            cyclic;
    }
    procBoundary0to1
    {
        type            processor;
        value           nonuniform List<scalar> 
16
(
-1831.73
-1800.95
-1762.56
-1732.73
-1718.22
-1716.74
-1727.54
-1750.27
-1779.65
-1810.37
-1834.71
-1830.92
-1739.38
-1739.38
-1372.11
-678.365
)
;
    }
    procBoundary0to3throughleft_cyc
    {
        type            processorCyclic;
        value           nonuniform List<scalar> 
15
(
-1743.66
-1711.78
-1667.89
-1639.52
-1640.12
-1661.93
-1693.87
-1728.28
-1759.02
-1780.57
-1777.54
-1713.79
-1518.32
-1115.92
-397.503
)
;
    }
}


// ************************************************************************* //
