/*--------------------------------*- C++ -*----------------------------------*\
| =========                 |                                                 |
| \\      /  F ield         | OpenFOAM: The Open Source CFD Toolbox           |
|  \\    /   O peration     | Version:  2.3.0                                 |
|   \\  /    A nd           | Web:      www.OpenFOAM.org                      |
|    \\/     M anipulation  |                                                 |
\*---------------------------------------------------------------------------*/
FoamFile
{
    version     2.0;
    format      ascii;
    class       surfaceScalarField;
    location    "25000";
    object      phi;
}
// * * * * * * * * * * * * * * * * * * * * * * * * * * * * * * * * * * * * * //

dimensions      [0 3 -1 0 0 0 0];

internalField   nonuniform List<scalar> 
356
(
0.308006
0.00234336
0.313081
-0.00507464
0.327274
-0.0141925
0.35044
-0.0231665
0.378545
-0.028105
0.401385
-0.0228396
0.401655
-0.000270004
0.357244
0.0444111
0.247397
0.109847
0.0678879
0.179509
-0.139552
0.20744
-0.296066
0.156514
0.0847194
0.547202
-0.00590939
0.562222
-0.0200946
0.584325
-0.0362955
0.611386
-0.0502282
0.637034
-0.053753
0.648658
-0.0344636
0.626112
0.0222762
0.541804
0.128719
0.368398
0.283253
0.0997367
0.44817
-0.205777
0.512954
-0.443127
0.393864
0.223825
0.578474
-0.0205242
0.596086
-0.0377063
0.615802
-0.0560113
0.634795
-0.0692215
0.647234
-0.0661917
0.642967
-0.0301969
0.606081
0.059162
0.514775
0.220025
0.34574
0.452288
0.0928775
0.701033
-0.191718
0.797549
-0.417089
0.619235
0.362825
0.517382
-0.03366
0.530157
-0.050481
0.541046
-0.0669011
0.547315
-0.0754901
0.544511
-0.0633872
0.525768
-0.0114547
0.481062
0.103868
0.397407
0.30368
0.260915
0.588781
0.0692195
0.892728
-0.142426
1.0092
-0.316417
0.793225
0.479268
0.409295
-0.040396
0.413229
-0.054415
0.412808
-0.0664794
0.405947
-0.0686293
0.389901
-0.0473417
0.36107
0.0173765
0.315154
0.149785
0.247566
0.371267
0.15482
0.681527
0.0400065
1.00754
-0.0813551
1.13056
-0.18997
0.90184
0.563294
0.26682
-0.0391666
0.26143
-0.0490246
0.250779
-0.0558293
0.233775
-0.0516253
0.209422
-0.0229879
0.177105
0.0496931
0.137243
0.189646
0.0921272
0.416383
0.0474107
0.726244
0.0109305
1.04402
-0.0204782
1.16197
-0.0612151
0.942577
0.609724
0.100772
-0.030914
0.0881298
-0.0363819
0.0706415
-0.038341
0.0481829
-0.0291667
0.0212543
0.00394064
-0.00821066
0.079158
-0.0360869
0.217523
-0.0544376
0.434734
-0.050687
0.722493
-0.0150664
1.0084
0.0338185
1.11308
0.0573607
0.919034
0.616267
-0.0722026
-0.0182304
-0.088901
-0.0196835
-0.109561
-0.0176809
-0.133499
-0.00522904
-0.15878
0.0292215
-0.181215
0.101594
-0.193242
0.229549
-0.182493
0.423986
-0.132907
0.672907
-0.0364485
0.911942
0.0778821
0.99875
0.15778
0.839137
0.583057
-0.233559
-0.00409452
-0.251446
-0.0017966
-0.272639
0.00351248
-0.295589
0.0177205
-0.31679
0.0504233
-0.329806
0.114609
-0.324053
0.223797
-0.284618
0.38455
-0.195448
0.583737
-0.0525427
0.769037
0.110021
0.836187
0.234894
0.714264
0.513606
-0.365543
0.0091947
-0.382477
0.0151377
-0.402208
0.0232428
-0.422328
0.0378404
-0.437956
0.0660518
-0.440697
0.11735
-0.418002
0.201102
-0.354304
0.320851
-0.235795
0.465228
-0.0629342
0.596177
0.129397
0.643855
0.28495
0.558711
0.415692
-0.449687
0.0202289
-0.463825
0.0292755
-0.479987
0.0394046
-0.495345
0.0531987
-0.504321
0.0750281
-0.497654
0.110683
-0.462317
0.165765
-0.383563
0.242097
-0.250482
0.332147
-0.0668472
0.412542
0.134774
0.442234
0.303201
0.390284
0.302031
-0.466692
0.028012
-0.475826
0.0384095
-0.485463
0.0490415
-0.493229
0.0609648
-0.494226
0.076025
-0.480196
0.0966537
-0.439623
0.125192
-0.359896
0.16237
-0.232611
0.204861
-0.0624546
0.242386
0.123178
0.256602
0.281139
0.232322
-0.410495
0.0306208
-0.411124
0.0390395
-0.409575
0.0474921
-0.404827
0.0562163
-0.394256
0.0654546
-0.373002
0.0753992
-0.333911
0.0861015
-0.26885
0.0973081
-0.172173
0.108185
-0.0467044
0.116917
0.0897668
0.120131
0.114703
-0.355382
0.0188027
-0.339224
0.0228822
-0.318758
0.0270251
-0.293845
0.0313035
-0.264148
0.0357579
-0.229105
0.0403559
-0.187952
0.0449489
-0.139875
0.049231
-0.0844301
0.05274
-0.0224804
0.0549677
0.0420851
0.0555655
0.0544435
-0.343148
-0.325763
-0.303976
-0.277592
-0.246367
-0.210083
-0.168663
-0.122349
-0.0719077
-0.0187394
0.035186
)
;

boundaryField
{
    top
    {
        type            calculated;
        value           nonuniform List<scalar> 
12
(
0.00569368
0.00549757
0.00523809
0.00491888
0.00453367
0.00407196
0.00352828
0.00291733
0.0022986
0.00179937
0.00164015
0.00193074
)
;
    }
    bottom
    {
        type            calculated;
        value           uniform 0;
    }
    frontAndBack
    {
        type            empty;
        value           nonuniform 0();
    }
    left_cyc
    {
        type            cyclic;
        value           nonuniform 0();
    }
    right_cyc
    {
        type            cyclic;
        value           nonuniform 0();
    }
    procBoundary0to1
    {
        type            processor;
        value           nonuniform List<scalar> 
16
(
-0.380785
-0.582232
-0.556089
-0.43286
-0.273996
-0.107645
0.0508176
0.19099
0.304345
0.382864
0.416861
0.39213
0.191041
0.207386
0.102345
0.0876987
)
;
    }
    procBoundary0to3throughleft_cyc
    {
        type            processorCyclic;
        value           nonuniform List<scalar> 
15
(
-0.31035
-0.538949
-0.56386
-0.504246
-0.402559
-0.268049
-0.109025
0.059519
0.219423
0.352254
0.438653
0.458909
0.407886
0.3672
0.356257
)
;
    }
}


// ************************************************************************* //
