/*--------------------------------*- C++ -*----------------------------------*\
| =========                 |                                                 |
| \\      /  F ield         | OpenFOAM: The Open Source CFD Toolbox           |
|  \\    /   O peration     | Version:  2.3.0                                 |
|   \\  /    A nd           | Web:      www.OpenFOAM.org                      |
|    \\/     M anipulation  |                                                 |
\*---------------------------------------------------------------------------*/
FoamFile
{
    version     2.0;
    format      ascii;
    class       volVectorField;
    location    "25000";
    object      U;
}
// * * * * * * * * * * * * * * * * * * * * * * * * * * * * * * * * * * * * * //

dimensions      [0 1 -1 0 0 0 0];

internalField   nonuniform List<vector> 
192
(
(46.1596 0 0.553694)
(46.2971 0 -0.0314692)
(47.7125 0 -0.809172)
(50.5813 0 -1.67061)
(54.6673 0 -2.32518)
(58.958 0 -2.27353)
(61.3823 0 -0.91161)
(58.8495 0 2.08392)
(47.8269 0 6.55326)
(25.6178 0 11.3422)
(-5.84696 0 13.2945)
(-35.0846 0 9.75245)
(-53.1021 0 4.82934)
(81.2438 0 0.0757057)
(82.9487 0 -1.64723)
(85.7537 0 -3.69979)
(89.5795 0 -5.61729)
(93.8598 0 -6.47691)
(97.2393 0 -4.85453)
(97.3007 0 0.880382)
(90.3486 0 11.9796)
(71.9109 0 28.1411)
(38.2415 0 45.3026)
(-8.73899 0 52.0964)
(-52.3861 0 39.6542)
(-80.2803 0 21.9396)
(85.5639 0 -1.95803)
(87.9861 0 -4.45352)
(90.8454 0 -7.21042)
(93.8972 0 -9.41114)
(96.5373 0 -9.55628)
(97.6145 0 -5.38885)
(95.2111 0 5.80885)
(86.4919 0 26.3935)
(67.8201 0 56.2013)
(35.845 0 88.0483)
(-8.16882 0 100.462)
(-49.1045 0 77.5724)
(-75.9965 0 44.7278)
(76.6163 0 -4.21171)
(78.5961 0 -6.86081)
(80.4461 0 -9.5722)
(81.8624 0 -11.298)
(82.3267 0 -10.1981)
(81.0089 0 -3.52092)
(76.6606 0 12.1177)
(67.5792 0 39.765)
(51.6123 0 79.5335)
(26.7675 0 122.115)
(-6.00374 0 138.54)
(-36.7516 0 108.13)
(-58.2595 0 64.2169)
(60.9677 0 -5.81941)
(61.8161 0 -8.2018)
(62.1475 0 -10.3998)
(61.6919 0 -11.2364)
(60.0901 0 -8.69807)
(56.8645 0 0.205719)
(51.4098 0 19.1368)
(43.081 0 51.367)
(31.192 0 96.9966)
(15.424 0 145.384)
(-3.29392 0 163.789)
(-21.3195 0 129.6)
(-35.7815 0 79.5187)
(40.249 0 -6.26349)
(39.7934 0 -8.08262)
(38.6334 0 -9.5045)
(36.6004 0 -9.31878)
(33.5301 0 -5.47859)
(29.2832 0 5.02708)
(23.8181 0 25.8176)
(17.319 0 60.0211)
(10.3323 0 107.39)
(4.08668 0 156.646)
(-0.612502 0 175.072)
(-5.83247 0 140.78)
(-12.6394 0 89.4389)
(15.8879 0 -5.48133)
(14.3437 0 -6.62362)
(12.0966 0 -7.25193)
(9.09573 0 -6.18638)
(5.35191 0 -1.43635)
(1.01453 0 9.86805)
(-3.49658 0 31.0832)
(-7.34621 0 64.8997)
(-8.95901 0 110.431)
(-6.03698 0 156.407)
(1.72274 0 173.328)
(8.09921 0 141.875)
(8.99667 0 93.4542)
(-9.73129 0 -3.79817)
(-11.9282 0 -4.30319)
(-14.7419 0 -4.26791)
(-18.1304 0 -2.57974)
(-21.9288 0 2.60826)
(-25.7151 0 13.8819)
(-28.6589 0 34.1812)
(-29.3089 0 65.5124)
(-25.3865 0 106.277)
(-14.2821 0 146.033)
(3.53453 0 160.502)
(19.53 0 133.768)
(27.6872 0 91.3981)
(-33.8326 0 -1.68389)
(-36.2369 0 -1.61404)
(-39.2009 0 -1.04315)
(-42.5986 0 1.01185)
(-46.0874 0 6.16254)
(-48.9599 0 16.6)
(-49.9795 0 34.6753)
(-47.2083 0 61.662)
(-38.0969 0 95.5658)
(-20.3584 0 127.518)
(4.76153 0 139.087)
(27.9794 0 117.94)
(42.3773 0 83.491)
(-53.6963 0 0.446026)
(-55.9739 0 1.07119)
(-58.7783 0 2.09789)
(-61.8947 0 4.30676)
(-64.8141 0 8.96696)
(-66.5774 0 17.7766)
(-65.6165 0 32.4424)
(-59.7344 0 53.6694)
(-46.455 0 79.5241)
(-24.1307 0 103.183)
(5.40103 0 111.761)
(33.1842 0 96.318)
(52.1957 0 70.5552)
(-66.507 0 2.32441)
(-68.4117 0 3.48893)
(-70.7493 0 4.90356)
(-73.2602 0 7.08583)
(-75.3531 0 10.8989)
(-75.9413 0 17.4845)
(-73.3272 0 27.9476)
(-65.3002 0 42.6517)
(-49.6502 0 60.1305)
(-25.3575 0 75.7962)
(5.44581 0 81.5326)
(34.7749 0 71.4043)
(56.0778 0 54.2279)
(-69.3712 0 3.61937)
(-70.6528 0 5.14864)
(-72.1122 0 6.731)
(-73.5428 0 8.63076)
(-74.4362 0 11.3047)
(-73.8261 0 15.3577)
(-70.1967 0 21.3756)
(-61.6088 0 29.5512)
(-46.2257 0 39.0984)
(-23.4157 0 47.5892)
(4.82542 0 50.7738)
(31.9213 0 45.2852)
(52.2947 0 35.9555)
(-61.458 0 5.47911)
(-61.7008 0 7.22392)
(-61.6474 0 9.02003)
(-61.2353 0 10.9134)
(-60.2179 0 12.9855)
(-58.05 0 15.3387)
(-53.8135 0 18.0654)
(-46.2806 0 21.1757)
(-34.2437 0 24.4633)
(-17.2604 0 27.3005)
(3.39819 0 28.4144)
(23.329 0 26.5658)
(-54.3574 0 3.11895)
(-52.2572 0 3.92907)
(-49.5128 0 4.72263)
(-46.1183 0 5.5208)
(-42.0388 0 6.32885)
(-37.2066 0 7.12967)
(-31.5187 0 7.87943)
(-24.8483 0 8.50908)
(-17.0789 0 8.94194)
(-8.20716 0 9.14088)
(1.50504 0 9.16298)
(11.0637 0 9.09892)
(-52.6139 0 2.93264)
(-50.3305 0 3.11779)
(-47.3985 0 3.28824)
(-43.7941 0 3.44835)
(-39.483 0 3.60005)
(-34.4271 0 3.7419)
(-28.5986 0 3.86875)
(-22.0026 0 3.97242)
(-14.7071 0 4.04458)
(-6.87374 0 4.08211)
(1.2475 0 4.09304)
(9.31513 0 4.07531)
)
;

boundaryField
{
    top
    {
        type            directionMixed;
        refValue        uniform (0 0 0);
        refGradient     uniform (0 0 0);
        valueFraction   uniform (0 0 0 0 0 1);
        value           nonuniform List<vector> 
12
(
(-52.6139 0 0)
(-50.3305 0 0)
(-47.3985 0 0)
(-43.7941 0 0)
(-39.483 0 0)
(-34.4271 0 0)
(-28.5986 0 0)
(-22.0026 0 0)
(-14.7071 0 0)
(-6.87374 0 0)
(1.2475 0 0)
(9.31513 0 0)
)
;
    }
    bottom
    {
        type            fixedValue;
        value           uniform (0 0 0);
    }
    frontAndBack
    {
        type            empty;
    }
    left_cyc
    {
        type            cyclic;
    }
    right_cyc
    {
        type            cyclic;
    }
    procBoundary0to1
    {
        type            processor;
        value           nonuniform List<vector> 
16
(
(-60.7109 0 0.81321)
(-94.1183 0 7.35167)
(-90.6824 0 17.8442)
(-71.5282 0 28.3346)
(-46.3835 0 38.1643)
(-19.6391 0 46.1792)
(6.24605 0 51.412)
(29.5781 0 53.236)
(48.862 0 51.2991)
(62.5733 0 45.6896)
(68.8712 0 37.2447)
(65.2199 0 26.6134)
(38.7491 0 23.4362)
(38.7491 0 23.4362)
(19.5995 0 8.83027)
(17.0027 0 4.02883)
)
;
    }
    procBoundary0to3throughleft_cyc
    {
        type            processorCyclic;
        value           nonuniform List<vector> 
15
(
(46.9744 0 0.95603)
(80.4686 0 1.32193)
(83.6041 0 -0.0678769)
(74.6574 0 -2.13016)
(59.7972 0 -3.86725)
(40.1627 0 -4.7041)
(16.8184 0 -4.46499)
(-8.12375 0 -3.34489)
(-31.9955 0 -1.76554)
(-51.9864 0 -0.166644)
(-65.1019 0 1.18651)
(-68.3185 0 2.07169)
(-60.923 0 3.79304)
(-55.8008 0 2.27786)
(-54.262 0 2.73003)
)
;
    }
}


// ************************************************************************* //
