/*--------------------------------*- C++ -*----------------------------------*\
| =========                 |                                                 |
| \\      /  F ield         | OpenFOAM: The Open Source CFD Toolbox           |
|  \\    /   O peration     | Version:  2.3.0                                 |
|   \\  /    A nd           | Web:      www.OpenFOAM.org                      |
|    \\/     M anipulation  |                                                 |
\*---------------------------------------------------------------------------*/
FoamFile
{
    version     2.0;
    format      ascii;
    class       volScalarField;
    location    "24000";
    object      NUEff;
}
// * * * * * * * * * * * * * * * * * * * * * * * * * * * * * * * * * * * * * //

dimensions      [0 2 -1 0 0 0 0];

internalField   nonuniform List<scalar> 
3060
(
0.175142
0.174948
0.174595
0.174095
0.173462
0.17271
0.171853
0.170902
0.169868
0.16876
0.167584
0.166348
0.165064
0.16377
0.162493
0.161235
0.159998
0.158793
0.157638
0.156557
0.155574
0.154715
0.154007
0.153479
0.153158
0.153067
0.153217
0.153592
0.154168
0.154916
0.155809
0.156819
0.157921
0.159091
0.160306
0.161549
0.162812
0.164096
0.165394
0.166669
0.167891
0.169051
0.170141
0.171154
0.172082
0.172912
0.173633
0.17423
0.17469
0.174999
0.175146
0.175121
0.174927
0.174573
0.174073
0.173439
0.172686
0.171827
0.170874
0.169839
0.168728
0.16755
0.166311
0.165025
0.16373
0.162453
0.161195
0.159958
0.158753
0.1576
0.156522
0.155542
0.154688
0.153985
0.153464
0.15315
0.153068
0.153226
0.153609
0.154191
0.154945
0.155842
0.156856
0.15796
0.159131
0.160346
0.161589
0.162852
0.164135
0.165433
0.166705
0.167925
0.169082
0.17017
0.171182
0.172107
0.172936
0.173655
0.174252
0.174711
0.17502
0.175166
0.635382
0.627691
0.613347
0.592321
0.564712
0.531042
0.492549
0.451252
0.40964
0.37005
0.334123
0.302645
0.275717
0.253042
0.234547
0.219485
0.207051
0.196743
0.18822
0.181224
0.175551
0.17105
0.167617
0.165196
0.163776
0.16338
0.164035
0.165706
0.168376
0.172069
0.176853
0.182841
0.1902
0.199146
0.209952
0.222993
0.23883
0.258408
0.282145
0.310241
0.34291
0.379897
0.420196
0.461948
0.502711
0.540062
0.572173
0.598014
0.617201
0.629694
0.63551
0.634532
0.626813
0.612419
0.591325
0.563638
0.529896
0.491355
0.450051
0.408481
0.368972
0.333153
0.301791
0.274978
0.25241
0.234024
0.219045
0.206679
0.19643
0.187958
0.181008
0.175376
0.170912
0.167515
0.165129
0.163745
0.163385
0.164077
0.165783
0.168488
0.172218
0.17704
0.183071
0.190477
0.199477
0.210344
0.223457
0.239382
0.259074
0.282921
0.311133
0.343918
0.381007
0.421379
0.463159
0.503902
0.541196
0.57323
0.598994
0.618116
0.630563
0.636356
0.940595
0.939846
0.938435
0.936315
0.933399
0.929542
0.924522
0.917994
0.909416
0.897919
0.882038
0.859186
0.82456
0.769098
0.67836
0.549595
0.419776
0.327955
0.271399
0.236332
0.213678
0.198577
0.188452
0.181925
0.178299
0.177309
0.17895
0.18326
0.190599
0.201803
0.218486
0.243668
0.283055
0.347089
0.449487
0.584212
0.704975
0.785779
0.834865
0.865881
0.886626
0.901203
0.911843
0.919826
0.925922
0.93061
0.9342
0.936892
0.938812
0.940038
0.940604
0.940509
0.939757
0.938338
0.936208
0.933277
0.929398
0.924346
0.917772
0.909128
0.897528
0.881483
0.858356
0.823243
0.766904
0.674809
0.545092
0.41605
0.325561
0.269917
0.235381
0.213046
0.198149
0.188167
0.18175
0.17822
0.177322
0.179056
0.183464
0.190921
0.202282
0.219196
0.244744
0.284756
0.349844
0.453598
0.588638
0.708148
0.787687
0.83602
0.866621
0.887128
0.901562
0.912111
0.920034
0.926088
0.930748
0.934318
0.936996
0.938907
0.940127
0.94069
0.971835
0.971529
0.970958
0.970111
0.968964
0.967483
0.965609
0.963261
0.960315
0.956592
0.951814
0.94555
0.93709
0.925206
0.907611
0.879912
0.831983
0.740668
0.577167
0.403995
0.302607
0.250702
0.222508
0.206712
0.198634
0.196502
0.200051
0.209806
0.22809
0.260741
0.321855
0.441227
0.624089
0.769604
0.84687
0.888242
0.912774
0.928632
0.939499
0.947317
0.953152
0.957628
0.961131
0.963908
0.966123
0.967887
0.969275
0.970338
0.971109
0.971606
0.971837
0.971798
0.971491
0.970918
0.970067
0.968915
0.967426
0.965542
0.96318
0.960216
0.956466
0.95165
0.94533
0.936782
0.924757
0.906915
0.878745
0.829823
0.736391
0.570626
0.399257
0.30017
0.249407
0.22178
0.206311
0.198462
0.196531
0.200283
0.210286
0.228947
0.262281
0.324814
0.446779
0.630298
0.773148
0.848675
0.889251
0.913399
0.929038
0.939779
0.947519
0.953304
0.957746
0.961225
0.963984
0.966187
0.967942
0.969323
0.970381
0.971149
0.971644
0.971874
0.982587
0.982395
0.982036
0.981506
0.980794
0.979883
0.978745
0.977341
0.975611
0.973475
0.97081
0.967434
0.963072
0.957279
0.94932
0.93788
0.920416
0.891482
0.8379
0.726855
0.530061
0.363943
0.283156
0.245392
0.228175
0.223849
0.231095
0.25235
0.297836
0.39596
0.583255
0.762807
0.854928
0.900319
0.925588
0.941193
0.951587
0.958912
0.964291
0.968372
0.971546
0.974063
0.976085
0.977724
0.979055
0.98013
0.980986
0.981647
0.982129
0.982442
0.982588
0.982563
0.98237
0.982009
0.981477
0.980763
0.979848
0.978704
0.977292
0.975552
0.973402
0.970718
0.967316
0.962914
0.957063
0.949012
0.937418
0.919675
0.890178
0.835309
0.721349
0.522756
0.359897
0.281287
0.244502
0.227821
0.223907
0.23158
0.253453
0.300156
0.40098
0.59073
0.767299
0.857034
0.901418
0.926232
0.941603
0.951864
0.959109
0.964437
0.968482
0.971632
0.974131
0.976142
0.977771
0.979095
0.980165
0.981016
0.981675
0.982155
0.982466
0.982612
0.987786
0.987639
0.987367
0.986965
0.986429
0.985748
0.984903
0.98387
0.982613
0.981081
0.979199
0.97686
0.973902
0.970079
0.965
0.957987
0.947881
0.932472
0.907079
0.860484
0.763792
0.577384
0.397068
0.309039
0.272992
0.26445
0.278877
0.324468
0.432726
0.630714
0.795308
0.875224
0.914802
0.937023
0.950804
0.959984
0.966428
0.971145
0.974722
0.977504
0.979715
0.981499
0.982955
0.98415
0.985131
0.985931
0.986573
0.987072
0.987438
0.987675
0.987786
0.987768
0.98762
0.987346
0.986944
0.986405
0.985721
0.984872
0.983833
0.98257
0.981028
0.979134
0.976778
0.973795
0.969937
0.964804
0.957708
0.947464
0.931807
0.90592
0.858208
0.758862
0.569783
0.392525
0.307095
0.272284
0.264564
0.279865
0.326961
0.438357
0.638087
0.799271
0.877079
0.915782
0.937601
0.951173
0.960234
0.966604
0.971276
0.974821
0.977582
0.979777
0.98155
0.982997
0.984185
0.985161
0.985958
0.986597
0.987093
0.987457
0.987694
0.987805
0.990709
0.990584
0.990353
0.990014
0.989563
0.988992
0.98829
0.987438
0.986412
0.985173
0.98367
0.981824
0.979522
0.976593
0.972773
0.967615
0.96041
0.949897
0.933643
0.906459
0.856006
0.752649
0.570947
0.413945
0.343243
0.326971
0.354618
0.444127
0.620264
0.785824
0.871973
0.914754
0.938459
0.952946
0.962467
0.969072
0.973845
0.977406
0.980156
0.982329
0.98408
0.98551
0.98669
0.987669
0.988479
0.989145
0.989683
0.990104
0.990413
0.990615
0.990709
0.990693
0.990568
0.990336
0.989995
0.989542
0.988969
0.988264
0.987408
0.986376
0.985131
0.983617
0.981758
0.979438
0.976484
0.972626
0.96741
0.960115
0.949452
0.932925
0.905194
0.853512
0.747465
0.564007
0.410103
0.341879
0.327186
0.356544
0.448959
0.627295
0.790081
0.874007
0.915819
0.93908
0.953339
0.962731
0.969257
0.973979
0.977507
0.980234
0.982391
0.98413
0.985551
0.986724
0.987698
0.988504
0.989167
0.989703
0.990122
0.99043
0.990631
0.990725
0.992492
0.992378
0.992167
0.991858
0.991449
0.990934
0.990305
0.989548
0.988643
0.987561
0.986262
0.984682
0.982733
0.980281
0.97712
0.972915
0.967159
0.958985
0.946828
0.927623
0.894829
0.83367
0.717272
0.556812
0.449403
0.42216
0.468055
0.595492
0.752666
0.852891
0.904878
0.933347
0.950372
0.961329
0.96879
0.974096
0.978003
0.980959
0.983268
0.985113
0.986615
0.987854
0.988888
0.989752
0.990475
0.991073
0.991559
0.991941
0.992223
0.992407
0.992493
0.992478
0.992364
0.992152
0.991842
0.991431
0.990914
0.990282
0.989521
0.988612
0.987524
0.986216
0.984626
0.982662
0.98019
0.976998
0.972749
0.966925
0.958644
0.946302
0.926756
0.893277
0.83066
0.711888
0.551557
0.447138
0.422524
0.471177
0.601288
0.757389
0.855375
0.906182
0.934093
0.950836
0.961635
0.969001
0.974248
0.978115
0.981044
0.983334
0.985166
0.986658
0.98789
0.988917
0.989778
0.990497
0.991092
0.991576
0.991956
0.992237
0.992421
0.992507
0.993639
0.993529
0.993326
0.993028
0.992636
0.992145
0.991548
0.990837
0.989993
0.988995
0.987806
0.986376
0.984628
0.982449
0.979664
0.976005
0.971069
0.964196
0.954244
0.939123
0.91476
0.87293
0.798833
0.684789
0.579293
0.546408
0.600264
0.715496
0.821234
0.885681
0.92205
0.943556
0.957112
0.966151
0.972459
0.977027
0.980438
0.983049
0.985105
0.986765
0.988128
0.989265
0.990221
0.991029
0.99171
0.992277
0.992742
0.993108
0.99338
0.993557
0.993641
0.993627
0.993516
0.993312
0.993013
0.99262
0.992126
0.991528
0.990812
0.989965
0.988961
0.987765
0.986325
0.984564
0.982368
0.979557
0.975861
0.97087
0.96391
0.953818
0.938455
0.913644
0.870954
0.795391
0.680374
0.576659
0.546866
0.603656
0.719865
0.824214
0.887355
0.923008
0.94414
0.95749
0.966407
0.97264
0.97716
0.980537
0.983124
0.985165
0.986812
0.988167
0.989297
0.990248
0.991052
0.99173
0.992295
0.992758
0.993123
0.993393
0.99357
0.993653
0.994408
0.994297
0.994092
0.993794
0.993402
0.992913
0.992324
0.991625
0.990804
0.989842
0.988707
0.987355
0.985718
0.983696
0.981133
0.977802
0.973364
0.967281
0.958657
0.945941
0.926341
0.894816
0.84344
0.767758
0.691175
0.664141
0.707476
0.788329
0.858551
0.904178
0.932098
0.949623
0.961121
0.969
0.974607
0.978728
0.981842
0.984251
0.986164
0.987722
0.989014
0.990102
0.991026
0.991814
0.992484
0.993046
0.993509
0.993875
0.994148
0.994326
0.99441
0.994396
0.994285
0.99408
0.993781
0.993387
0.992896
0.992304
0.991602
0.990778
0.98981
0.988668
0.987308
0.985659
0.983621
0.981035
0.977671
0.973186
0.967031
0.958293
0.945389
0.925466
0.893382
0.841139
0.764761
0.689078
0.664532
0.710051
0.791227
0.860584
0.905423
0.932863
0.950112
0.961448
0.969227
0.97477
0.978848
0.981933
0.984321
0.986219
0.987766
0.98905
0.990132
0.991052
0.991836
0.992503
0.993063
0.993524
0.993889
0.99416
0.994338
0.994422
0.994944
0.99483
0.994618
0.99431
0.993906
0.993404
0.992802
0.992093
0.991267
0.990306
0.989185
0.987863
0.986278
0.984338
0.981901
0.978768
0.974644
0.969069
0.961309
0.950155
0.933589
0.90835
0.870163
0.818023
0.766696
0.748244
0.777693
0.831901
0.881082
0.91568
0.93838
0.953351
0.96351
0.970635
0.975793
0.979636
0.982572
0.984869
0.986709
0.988221
0.989489
0.990566
0.991491
0.992286
0.992966
0.993542
0.994017
0.994395
0.994677
0.994861
0.994948
0.994933
0.994819
0.994606
0.994297
0.993892
0.993388
0.992783
0.992071
0.991241
0.990276
0.989149
0.987818
0.986222
0.984267
0.981809
0.978646
0.974479
0.968841
0.960985
0.949679
0.932866
0.907239
0.868521
0.816014
0.765277
0.748514
0.779421
0.833868
0.882569
0.916665
0.939021
0.953777
0.963802
0.970842
0.975944
0.979748
0.982658
0.984935
0.986762
0.988264
0.989523
0.990595
0.991515
0.992307
0.992984
0.993557
0.994031
0.994408
0.994688
0.994873
0.994959
0.995337
0.995217
0.994994
0.99467
0.994244
0.993718
0.993088
0.992351
0.991497
0.990513
0.989375
0.988046
0.986469
0.984559
0.982183
0.979165
0.975238
0.970003
0.96284
0.952784
0.938336
0.917351
0.887603
0.849928
0.814945
0.802667
0.822329
0.859697
0.895894
0.923329
0.942459
0.955638
0.964858
0.971466
0.976328
0.979998
0.982836
0.98508
0.986898
0.988406
0.989683
0.99078
0.991729
0.992552
0.993261
0.993863
0.994363
0.994761
0.995057
0.995252
0.995342
0.995327
0.995207
0.994983
0.994657
0.994231
0.993702
0.99307
0.99233
0.991472
0.990483
0.989339
0.988002
0.986415
0.98449
0.982095
0.979049
0.975083
0.969791
0.962545
0.952361
0.93772
0.916455
0.886373
0.84853
0.813998
0.802846
0.823491
0.861091
0.897033
0.924137
0.943012
0.956019
0.965126
0.97166
0.976471
0.980105
0.982918
0.985144
0.986949
0.988447
0.989717
0.990808
0.991753
0.992572
0.993278
0.993878
0.994376
0.994773
0.995068
0.995262
0.995353
0.995643
0.995516
0.995279
0.994933
0.99448
0.99392
0.993251
0.992471
0.991573
0.990544
0.989364
0.988
0.986397
0.984476
0.982117
0.979156
0.975351
0.970348
0.963623
0.954394
0.941547
0.923685
0.899799
0.871539
0.846837
0.838449
0.851953
0.878685
0.906306
0.928685
0.945167
0.95699
0.965505
0.971741
0.976404
0.979971
0.982764
0.985001
0.986833
0.98837
0.989685
0.990824
0.991819
0.992686
0.993436
0.994076
0.994607
0.995031
0.995347
0.995554
0.99565
0.995634
0.995506
0.995268
0.994921
0.994467
0.993905
0.993234
0.992451
0.991549
0.990515
0.989329
0.987957
0.986344
0.98441
0.982032
0.979044
0.975203
0.970149
0.963349
0.954013
0.941011
0.922945
0.898847
0.87053
0.846188
0.83857
0.85276
0.879711
0.907204
0.929363
0.945654
0.957337
0.965755
0.971923
0.97654
0.980074
0.982844
0.985064
0.986883
0.98841
0.989718
0.990852
0.991842
0.992705
0.993453
0.99409
0.99462
0.995042
0.995357
0.995563
0.995659
0.995898
0.995762
0.995509
0.995139
0.994655
0.994055
0.99334
0.992507
0.991551
0.990461
0.989219
0.987795
0.98614
0.984178
0.981801
0.978856
0.975122
0.970286
0.963901
0.955343
0.943794
0.92839
0.908855
0.887107
0.869113
0.863189
0.872776
0.892483
0.91407
0.932633
0.947011
0.95773
0.965677
0.971626
0.976152
0.979665
0.982452
0.984714
0.98659
0.988182
0.989558
0.990759
0.991814
0.992738
0.993539
0.994224
0.994792
0.995245
0.995583
0.995804
0.995906
0.995889
0.995753
0.995499
0.995128
0.994642
0.994041
0.993323
0.992487
0.991527
0.990433
0.989185
0.987753
0.986088
0.984113
0.981718
0.978748
0.974981
0.970097
0.963646
0.954997
0.943325
0.927771
0.908103
0.886359
0.868654
0.863273
0.873352
0.893257
0.914792
0.933209
0.947442
0.958047
0.965911
0.9718
0.976284
0.979766
0.98253
0.984776
0.98664
0.988222
0.98959
0.990787
0.991837
0.992757
0.993556
0.994238
0.994805
0.995256
0.995593
0.995813
0.995915
0.996124
0.99598
0.99571
0.995316
0.994798
0.994156
0.99339
0.992498
0.991475
0.990313
0.988993
0.987492
0.985763
0.983738
0.981318
0.978362
0.974668
0.969956
0.96386
0.955893
0.945476
0.932132
0.916022
0.899018
0.885579
0.881263
0.888276
0.903145
0.920244
0.935753
0.948344
0.958097
0.965546
0.971256
0.975684
0.979172
0.981979
0.98429
0.986234
0.987901
0.989354
0.990632
0.991758
0.992747
0.993605
0.994338
0.994946
0.99543
0.99579
0.996025
0.996134
0.996116
0.995971
0.9957
0.995305
0.994786
0.994142
0.993374
0.992479
0.991452
0.990284
0.988959
0.98745
0.985711
0.983673
0.981236
0.978257
0.974532
0.969776
0.963623
0.955579
0.945065
0.931613
0.915424
0.898453
0.885245
0.881324
0.888699
0.903738
0.920828
0.936243
0.948727
0.958387
0.965765
0.971423
0.975811
0.97927
0.982056
0.984351
0.986283
0.987941
0.989387
0.990659
0.991781
0.992766
0.993621
0.994352
0.994958
0.995441
0.995799
0.996034
0.996142
0.996337
0.996184
0.995898
0.99548
0.99493
0.994247
0.99343
0.992478
0.991385
0.990143
0.988737
0.987146
0.98533
0.983227
0.980749
0.977768
0.974103
0.969518
0.963708
0.956303
0.946923
0.935361
0.922022
0.908588
0.898383
0.895173
0.900408
0.911798
0.925462
0.938456
0.949478
0.958335
0.965306
0.970778
0.975108
0.978583
0.981426
0.9838
0.985825
0.987581
0.989123
0.990486
0.991689
0.992745
0.993661
0.994442
0.995089
0.995603
0.995984
0.996233
0.996348
0.996329
0.996176
0.995889
0.99547
0.994918
0.994233
0.993414
0.992458
0.991362
0.990115
0.988703
0.987105
0.985279
0.983163
0.980669
0.977666
0.973973
0.969349
0.963489
0.95602
0.946563
0.934927
0.921544
0.908158
0.898136
0.895218
0.900723
0.912257
0.925935
0.938871
0.949815
0.958599
0.96551
0.970936
0.975231
0.978679
0.981501
0.98386
0.985874
0.987621
0.989156
0.990513
0.991711
0.992763
0.993677
0.994455
0.9951
0.995613
0.995993
0.996241
0.996356
0.996545
0.996384
0.996084
0.995645
0.995066
0.994346
0.993483
0.992474
0.991315
0.989997
0.988509
0.986829
0.984924
0.982743
0.980206
0.9772
0.973571
0.969119
0.963603
0.956757
0.948357
0.938384
0.927352
0.9167
0.908881
0.906466
0.910419
0.919211
0.930157
0.94102
0.950622
0.958621
0.965111
0.970337
0.974564
0.978022
0.980898
0.983338
0.985445
0.987291
0.98892
0.990364
0.991639
0.992759
0.993728
0.994553
0.995234
0.995775
0.996176
0.996437
0.996558
0.996537
0.996377
0.996076
0.995635
0.995055
0.994333
0.993467
0.992455
0.991292
0.98997
0.988476
0.986788
0.984874
0.98268
0.980129
0.977102
0.973446
0.968961
0.963402
0.956504
0.948046
0.938023
0.926971
0.91637
0.908698
0.906499
0.910655
0.919567
0.930539
0.94137
0.950916
0.958859
0.965299
0.970485
0.97468
0.978114
0.980972
0.983396
0.985493
0.98733
0.988952
0.99039
0.991661
0.992777
0.993743
0.994565
0.995245
0.995784
0.996184
0.996444
0.996565
0.996755
0.996589
0.996277
0.995822
0.99522
0.994472
0.993573
0.992519
0.991306
0.989925
0.988365
0.986608
0.984625
0.982377
0.979795
0.976781
0.973207
0.968915
0.963722
0.957455
0.950007
0.941485
0.932421
0.923999
0.918001
0.916176
0.919172
0.925962
0.934697
0.943711
0.951996
0.959148
0.965134
0.970085
0.974183
0.977604
0.9805
0.982991
0.985169
0.987092
0.988798
0.990311
0.991648
0.992818
0.99383
0.994688
0.995397
0.995958
0.996373
0.996644
0.996769
0.996748
0.996581
0.99627
0.995813
0.99521
0.994459
0.993558
0.992501
0.991284
0.989898
0.988332
0.986568
0.984576
0.982316
0.97972
0.976688
0.973091
0.968769
0.963541
0.957233
0.949743
0.941188
0.93212
0.923747
0.917864
0.916201
0.919349
0.926236
0.935002
0.944002
0.952249
0.959359
0.965305
0.970222
0.974292
0.977692
0.98057
0.983048
0.985216
0.987131
0.988829
0.990337
0.991669
0.992836
0.993844
0.9947
0.995407
0.995966
0.996381
0.996651
0.996776
0.996972
0.996802
0.996484
0.996019
0.995405
0.99464
0.99372
0.992639
0.991392
0.989969
0.988361
0.986551
0.984518
0.982232
0.979636
0.97665
0.973174
0.969087
0.964268
0.958615
0.952114
0.944938
0.937587
0.930991
0.92642
0.925047
0.927307
0.932515
0.939413
0.946794
0.953835
0.960131
0.965571
0.970197
0.974121
0.977465
0.980346
0.982858
0.985078
0.987053
0.98881
0.990369
0.991745
0.992948
0.993985
0.994863
0.995586
0.996158
0.996582
0.996859
0.996987
0.996966
0.996795
0.996477
0.996011
0.995396
0.994629
0.993706
0.992622
0.991371
0.989944
0.98833
0.986513
0.984471
0.982174
0.979566
0.976564
0.973067
0.968956
0.964108
0.958424
0.951894
0.944699
0.937353
0.930802
0.926319
0.925066
0.927439
0.932722
0.939653
0.94703
0.954048
0.960314
0.965723
0.970322
0.974222
0.977547
0.980412
0.982913
0.985123
0.987089
0.98884
0.990394
0.991765
0.992964
0.993998
0.994874
0.995595
0.996166
0.996589
0.996865
0.996993
0.997198
0.997027
0.996708
0.996243
0.995628
0.994863
0.99394
0.992856
0.991602
0.99017
0.98855
0.986728
0.984689
0.982414
0.979856
0.976957
0.973641
0.969829
0.965448
0.960461
0.954911
0.948997
0.943152
0.938075
0.93464
0.933622
0.935305
0.939239
0.944591
0.950513
0.956368
0.96179
0.966627
0.970861
0.974542
0.977748
0.980557
0.983039
0.985253
0.987235
0.989004
0.990574
0.991958
0.993166
0.994207
0.995086
0.99581
0.996383
0.996808
0.997085
0.997214
0.997192
0.997021
0.996702
0.996235
0.995619
0.994852
0.993927
0.99284
0.991582
0.990146
0.98852
0.986692
0.984645
0.98236
0.979792
0.976878
0.973545
0.969714
0.965311
0.960302
0.954733
0.948811
0.942975
0.937935
0.934567
0.933635
0.9354
0.939393
0.944774
0.950699
0.956542
0.961944
0.966758
0.970971
0.974633
0.977823
0.980618
0.98309
0.985295
0.98727
0.989032
0.990597
0.991977
0.993182
0.994219
0.995096
0.995819
0.99639
0.996814
0.997091
0.99722
0.997434
0.997265
0.996953
0.996496
0.995895
0.995146
0.994245
0.993185
0.991959
0.990558
0.988974
0.987195
0.985212
0.983014
0.980569
0.977833
0.974762
0.971309
0.967444
0.963175
0.958577
0.953845
0.949322
0.945511
0.942989
0.942249
0.943476
0.946379
0.950427
0.955047
0.959775
0.964305
0.968479
0.972241
0.975596
0.97858
0.981239
0.98362
0.985762
0.987692
0.989419
0.990955
0.992308
0.993489
0.994506
0.995365
0.996073
0.996634
0.997051
0.997323
0.99745
0.997429
0.99726
0.996947
0.996489
0.995887
0.995136
0.994233
0.99317
0.991941
0.990536
0.988947
0.987162
0.985172
0.982966
0.980511
0.977764
0.974679
0.971211
0.967331
0.963047
0.958438
0.953704
0.949193
0.945411
0.942938
0.942258
0.943543
0.946491
0.950563
0.95519
0.959912
0.96443
0.968589
0.972335
0.975675
0.978646
0.981295
0.983666
0.985801
0.987724
0.989445
0.990976
0.992326
0.993503
0.994517
0.995375
0.996081
0.996641
0.997056
0.997328
0.997455
0.99768
0.997518
0.997218
0.996781
0.996208
0.995495
0.994639
0.993634
0.992473
0.99115
0.989656
0.987984
0.986129
0.984088
0.98184
0.979359
0.976624
0.973618
0.970341
0.966827
0.963163
0.959515
0.956138
0.95337
0.951574
0.951053
0.951921
0.953998
0.956958
0.960435
0.964111
0.967752
0.971214
0.974427
0.977365
0.980036
0.982457
0.984652
0.986645
0.988452
0.990077
0.991525
0.992804
0.993923
0.994887
0.995704
0.996378
0.996913
0.997312
0.997574
0.997696
0.997676
0.997513
0.997213
0.996775
0.9962
0.995486
0.994628
0.99362
0.992457
0.99113
0.989632
0.987955
0.986094
0.984047
0.98179
0.979301
0.976556
0.973539
0.970252
0.966728
0.96306
0.959413
0.956047
0.953301
0.95154
0.951059
0.951967
0.954075
0.957054
0.960539
0.964214
0.967848
0.971301
0.974503
0.977431
0.980092
0.982504
0.984692
0.986679
0.98848
0.9901
0.991544
0.99282
0.993935
0.994897
0.995712
0.996385
0.996919
0.997317
0.997578
0.997701
0.997936
0.997784
0.997503
0.997097
0.996565
0.995907
0.995121
0.994201
0.993143
0.991942
0.990593
0.989091
0.987435
0.985629
0.98366
0.981519
0.979201
0.976711
0.974065
0.971309
0.968524
0.965835
0.963419
0.961487
0.960257
0.959902
0.960494
0.961924
0.964003
0.966509
0.96924
0.97203
0.974766
0.977378
0.979827
0.982101
0.984199
0.986127
0.987895
0.989511
0.990973
0.992283
0.993445
0.994465
0.995349
0.9961
0.996723
0.99722
0.997592
0.997836
0.997951
0.997932
0.99778
0.997499
0.997092
0.996559
0.9959
0.995111
0.994189
0.993129
0.991925
0.990572
0.989066
0.987406
0.985594
0.983619
0.981472
0.979147
0.976649
0.973998
0.971237
0.96845
0.965765
0.963358
0.961442
0.960234
0.959907
0.960524
0.961975
0.964068
0.966582
0.969314
0.972102
0.974833
0.977437
0.97988
0.982147
0.984239
0.986161
0.987924
0.989535
0.990993
0.992299
0.993459
0.994476
0.995358
0.996108
0.99673
0.997225
0.997596
0.99784
0.997955
0.9982
0.998061
0.997808
0.997441
0.996965
0.996379
0.995682
0.994874
0.993951
0.99291
0.99175
0.990469
0.989069
0.987556
0.985927
0.984183
0.98233
0.980383
0.978366
0.976322
0.974315
0.972432
0.970784
0.969495
0.968687
0.968456
0.968843
0.969786
0.97118
0.972902
0.974828
0.976854
0.978898
0.980902
0.982829
0.984656
0.986372
0.987973
0.989457
0.990827
0.992076
0.993205
0.994214
0.995106
0.995884
0.996551
0.997106
0.997552
0.997888
0.998109
0.998214
0.998196
0.998058
0.997804
0.997437
0.99696
0.996372
0.995675
0.994864
0.993939
0.992896
0.991733
0.990449
0.989046
0.987529
0.985895
0.984147
0.98229
0.980338
0.978318
0.976272
0.974265
0.972386
0.970745
0.969467
0.968673
0.968459
0.968862
0.969818
0.971222
0.972949
0.974878
0.976904
0.978945
0.980946
0.982868
0.984691
0.986403
0.988
0.989481
0.990846
0.992093
0.993219
0.994225
0.995116
0.995892
0.996557
0.997112
0.997557
0.997891
0.998113
0.998217
0.99847
0.998349
0.998128
0.99781
0.9974
0.996899
0.99631
0.995632
0.994865
0.99401
0.993066
0.992036
0.990923
0.989731
0.988465
0.987133
0.985745
0.984317
0.982873
0.981447
0.980082
0.978834
0.977766
0.976947
0.97644
0.976296
0.976538
0.977131
0.978022
0.979144
0.980429
0.981816
0.983252
0.984696
0.986117
0.987493
0.98881
0.990058
0.99123
0.992323
0.993331
0.994251
0.995083
0.995826
0.99648
0.997046
0.997522
0.997907
0.998198
0.998391
0.998483
0.998468
0.998346
0.998125
0.997807
0.997396
0.996894
0.996303
0.995624
0.994856
0.993999
0.993053
0.992021
0.990905
0.98971
0.988442
0.987107
0.985716
0.984286
0.982841
0.981414
0.98005
0.978805
0.977742
0.97693
0.976431
0.976297
0.976549
0.977151
0.978048
0.979174
0.980461
0.981849
0.983284
0.984726
0.986145
0.987519
0.988833
0.990078
0.991248
0.992338
0.993344
0.994262
0.995092
0.995834
0.996487
0.997051
0.997526
0.99791
0.998201
0.998394
0.998486
0.998746
0.998645
0.998461
0.998198
0.997862
0.997456
0.996983
0.996445
0.995845
0.995184
0.994465
0.99369
0.992862
0.991987
0.99107
0.990122
0.989152
0.988175
0.98721
0.986277
0.985405
0.984625
0.98397
0.983475
0.983172
0.983087
0.983231
0.983586
0.984126
0.984818
0.985626
0.986517
0.987462
0.988433
0.98941
0.990377
0.991319
0.992226
0.99309
0.993905
0.994666
0.99537
0.996015
0.996599
0.997119
0.997574
0.997961
0.998278
0.998519
0.99868
0.998757
0.998744
0.998643
0.998458
0.998195
0.997859
0.997452
0.996978
0.996439
0.995838
0.995176
0.994455
0.993679
0.992849
0.991972
0.991054
0.990104
0.989133
0.988155
0.987189
0.986257
0.985386
0.984608
0.983956
0.983465
0.983167
0.983088
0.983237
0.983598
0.984141
0.984836
0.985645
0.986538
0.987482
0.988453
0.98943
0.990394
0.991335
0.99224
0.993102
0.993916
0.994675
0.995378
0.996022
0.996605
0.997124
0.997578
0.997965
0.99828
0.998521
0.998683
0.998759
0.999025
0.998946
0.998802
0.998598
0.998341
0.998033
0.997679
0.997283
0.996847
0.996375
0.995868
0.99533
0.994763
0.994169
0.993557
0.992934
0.992309
0.991692
0.991094
0.990527
0.990008
0.989552
0.989175
0.988894
0.988723
0.988675
0.988756
0.988957
0.989265
0.989664
0.990139
0.990672
0.991249
0.991854
0.992475
0.993101
0.993722
0.99433
0.994918
0.995478
0.996008
0.996507
0.99697
0.997396
0.997781
0.998122
0.998417
0.99866
0.998847
0.998973
0.999034
0.999024
0.998944
0.9988
0.998596
0.998338
0.99803
0.997676
0.997279
0.996842
0.996369
0.995861
0.995322
0.994754
0.994159
0.993547
0.992923
0.992297
0.99168
0.991081
0.990516
0.989997
0.989542
0.989167
0.988888
0.98872
0.988676
0.98876
0.988963
0.989273
0.989674
0.99015
0.990684
0.991261
0.991866
0.992487
0.993112
0.993733
0.99434
0.994926
0.995485
0.996015
0.996512
0.996975
0.9974
0.997784
0.998125
0.998419
0.998662
0.998849
0.998975
0.999036
0.999305
0.999249
0.999147
0.999004
0.998826
0.998615
0.998377
0.998114
0.997829
0.997526
0.997207
0.996872
0.996524
0.996164
0.995797
0.995429
0.995067
0.994715
0.99438
0.994069
0.993787
0.993544
0.993346
0.993199
0.993111
0.993086
0.993128
0.993232
0.993393
0.993604
0.993858
0.994148
0.994467
0.994807
0.995162
0.995527
0.995895
0.996261
0.996619
0.996964
0.997295
0.99761
0.997909
0.998188
0.998445
0.998676
0.998878
0.999047
0.999179
0.999268
0.999312
0.999304
0.999248
0.999145
0.999003
0.998824
0.998613
0.998374
0.998111
0.997826
0.997522
0.997202
0.996867
0.996519
0.996158
0.995791
0.995423
0.99506
0.994708
0.994373
0.994062
0.993782
0.993539
0.993342
0.993196
0.993109
0.993086
0.99313
0.993235
0.993397
0.993609
0.993864
0.994154
0.994473
0.994814
0.995169
0.995534
0.995901
0.996267
0.996624
0.996968
0.997299
0.997614
0.997912
0.998191
0.998447
0.998678
0.99888
0.999049
0.99918
0.99927
0.999313
0.999585
0.999551
0.999491
0.999409
0.999306
0.999187
0.999054
0.99891
0.998757
0.998598
0.998432
0.998261
0.998086
0.997904
0.997722
0.997543
0.997368
0.997201
0.997044
0.996901
0.996773
0.996664
0.996576
0.996511
0.996472
0.996461
0.99648
0.996525
0.996596
0.996691
0.996805
0.996937
0.997085
0.997244
0.997414
0.99759
0.997771
0.997953
0.998133
0.998308
0.998477
0.998642
0.9988
0.998951
0.999092
0.999221
0.999336
0.999433
0.99951
0.999563
0.999588
0.999584
0.99955
0.999491
0.999408
0.999305
0.999186
0.999053
0.998909
0.998756
0.998596
0.99843
0.998259
0.998083
0.997902
0.997719
0.997539
0.997365
0.997198
0.997041
0.996898
0.996771
0.996662
0.996574
0.99651
0.996472
0.996461
0.99648
0.996527
0.996598
0.996693
0.996808
0.99694
0.997088
0.997247
0.997417
0.997593
0.997774
0.997956
0.998136
0.99831
0.998479
0.998644
0.998802
0.998952
0.999093
0.999222
0.999337
0.999434
0.999511
0.999564
0.999589
0.999862
0.999851
0.999831
0.999805
0.999773
0.999736
0.999695
0.999652
0.999607
0.999562
0.999515
0.999468
0.999419
0.999369
0.999319
0.99927
0.999223
0.999178
0.999137
0.9991
0.999067
0.999039
0.999017
0.999001
0.998991
0.998988
0.998993
0.999004
0.999022
0.999046
0.999075
0.999109
0.999148
0.99919
0.999235
0.999283
0.999332
0.999383
0.999433
0.999481
0.999528
0.999574
0.99962
0.999664
0.999707
0.999746
0.999782
0.999813
0.999837
0.999854
0.999863
0.999861
0.99985
0.999831
0.999805
0.999772
0.999735
0.999695
0.999652
0.999607
0.999561
0.999514
0.999467
0.999419
0.999368
0.999318
0.999269
0.999222
0.999178
0.999136
0.999099
0.999066
0.999039
0.999017
0.999
0.998991
0.998988
0.998993
0.999005
0.999023
0.999047
0.999076
0.99911
0.999149
0.999191
0.999236
0.999284
0.999333
0.999383
0.999433
0.999481
0.999528
0.999575
0.99962
0.999665
0.999707
0.999747
0.999782
0.999813
0.999838
0.999855
0.999863
)
;

boundaryField
{
    top
    {
        type            calculated;
        value           uniform 1;
    }
    bottom
    {
        type            calculated;
        value           uniform 0.148957;
    }
    frontAndBack
    {
        type            empty;
    }
    left_cyc
    {
        type            cyclic;
    }
    right_cyc
    {
        type            cyclic;
    }
}


// ************************************************************************* //
