/*--------------------------------*- C++ -*----------------------------------*\
| =========                 |                                                 |
| \\      /  F ield         | OpenFOAM: The Open Source CFD Toolbox           |
|  \\    /   O peration     | Version:  2.3.0                                 |
|   \\  /    A nd           | Web:      www.OpenFOAM.org                      |
|    \\/     M anipulation  |                                                 |
\*---------------------------------------------------------------------------*/
FoamFile
{
    version     2.0;
    format      ascii;
    class       volScalarField;
    location    "24000";
    object      p;
}
// * * * * * * * * * * * * * * * * * * * * * * * * * * * * * * * * * * * * * //

dimensions      [0 2 -2 0 0 0 0];

internalField   nonuniform List<scalar> 
3060
(
0
-3.24485
-9.29027
-18.0757
-29.5334
-43.6045
-60.2449
-79.413
-101.038
-124.983
-151.018
-178.8
-207.85
-237.52
-266.939
-295.056
-320.806
-343.302
-361.825
-376.047
-386.241
-392.976
-397.068
-399.343
-400.434
-400.7
-400.241
-398.893
-396.226
-391.548
-384.013
-372.844
-357.546
-337.964
-314.57
-288.125
-259.568
-229.986
-200.401
-171.624
-144.257
-118.742
-95.3936
-74.4149
-55.9235
-39.9789
-26.6211
-15.8979
-7.87158
-2.60891
-0.165465
-0.571519
-3.82149
-9.87691
-18.6775
-30.156
-44.254
-60.9275
-80.1347
-101.803
-125.793
-151.872
-179.691
-208.766
-238.443
-267.842
-295.904
-321.568
-343.949
-362.336
-376.422
-386.493
-393.13
-397.153
-399.385
-400.449
-400.696
-400.216
-398.838
-396.12
-391.366
-383.725
-372.428
-356.992
-337.279
-313.777
-287.253
-258.652
-229.057
-199.486
-170.738
-143.411
-117.941
-94.6374
-73.7014
-55.2478
-39.335
-26.0028
-15.2992
-7.28701
-2.03346
0.405663
34.4045
31.8326
27.0037
19.901
10.4959
-1.24359
-15.3339
-31.7475
-50.3865
-71.0701
-93.5246
-117.361
-142.035
-166.839
-191.117
-214.613
-237.145
-257.788
-275.093
-288.261
-297.701
-304.078
-308.143
-310.551
-311.776
-312.088
-311.557
-310.064
-307.289
-302.707
-295.631
-285.308
-271.109
-252.837
-231.586
-208.759
-185.062
-160.608
-135.772
-111.259
-87.7426
-65.7259
-45.5653
-27.5098
-11.7183
1.73156
12.8268
21.5907
28.0561
32.2492
34.1833
33.8626
31.2863
26.4486
19.3324
9.90842
-1.85547
-15.9753
-32.4223
-51.0967
-71.8149
-94.2999
-118.158
-142.839
-167.631
-191.882
-215.352
-237.842
-258.4
-275.575
-288.611
-297.939
-304.231
-308.234
-310.6
-311.796
-312.083
-311.527
-310.001
-307.179
-302.53
-295.36
-284.92
-270.584
-252.192
-230.87
-208.009
-184.285
-159.807
-134.964
-110.463
-86.9718
-64.9873
-44.8621
-26.8419
-11.0833
2.33813
13.4101
22.1564
28.6092
32.7944
34.7249
63.2264
60.6154
55.7447
48.6601
39.4393
28.2067
15.1431
0.478845
-15.5335
-32.654
-50.6784
-69.4436
-88.8391
-108.82
-129.311
-149.676
-168.446
-184.522
-198.105
-209.498
-217.948
-223.179
-226.17
-227.812
-228.608
-228.803
-228.466
-227.486
-225.563
-222.105
-216.144
-206.856
-194.884
-180.734
-163.957
-144.645
-124.145
-103.771
-83.9486
-64.7217
-46.1484
-28.3557
-11.5186
4.14731
18.395
30.9737
41.664
50.2999
56.7707
61.0087
62.9743
62.6477
60.0325
55.1541
48.0587
38.8246
27.5775
14.4996
-0.177658
-16.2009
-33.3299
-51.3605
-70.1298
-89.5288
-109.514
-130.004
-150.334
-169.02
-185
-198.508
-209.821
-218.156
-223.295
-226.231
-227.842
-228.619
-228.8
-228.447
-227.445
-225.486
-221.963
-215.9
-206.504
-194.458
-180.228
-163.353
-143.968
-123.446
-103.075
-83.2569
-64.0335
-45.4649
-27.6792
-10.8514
4.80285
19.0368
31.6007
42.2764
50.8994
57.3597
61.5906
63.5527
110.909
108.387
103.698
96.9106
88.1341
77.522
65.278
51.6474
36.8938
21.2661
4.96999
-11.8474
-29.0951
-46.6979
-64.4143
-81.4906
-96.9155
-110.53
-122.53
-131.875
-138.552
-143.121
-145.254
-146.043
-146.305
-146.353
-146.261
-145.909
-144.884
-142.211
-137.058
-129.819
-119.724
-107.267
-93.2471
-77.3524
-60.0238
-42.3049
-24.7921
-7.66101
9.01874
25.1428
40.5477
55.0139
68.2848
80.0979
90.2168
98.4506
104.658
108.742
110.641
110.325
107.8
103.104
96.3079
87.5211
76.8984
64.6447
51.0066
36.2483
20.6188
4.32306
-12.4927
-29.7385
-47.3376
-65.038
-82.0657
-97.4185
-110.973
-122.896
-132.133
-138.736
-143.22
-145.287
-146.051
-146.305
-146.352
-146.257
-145.894
-144.835
-142.082
-136.853
-129.528
-119.328
-106.806
-92.7211
-76.7569
-59.3899
-41.6605
-24.1451
-7.01225
9.66874
25.7925
41.1947
55.6553
68.9177
80.7205
90.8284
99.0519
105.251
109.329
111.225
158.204
155.947
151.753
145.691
137.86
128.396
117.465
105.263
91.9986
77.884
63.1235
47.9153
32.4658
17.0211
1.92663
-12.3171
-25.3233
-37.291
-48.1674
-56.4566
-61.6777
-64.4029
-65.3187
-65.293
-65.0513
-64.9599
-65.1005
-65.3405
-65.199
-63.9327
-60.6219
-54.6976
-45.6328
-34.3919
-22.2058
-8.88802
5.61478
20.8297
36.2927
51.6889
66.7869
81.3838
95.2802
108.269
120.137
130.676
139.699
147.045
152.59
156.242
157.941
157.659
155.4
151.201
145.133
137.295
127.823
116.885
104.677
91.4081
77.2916
62.532
47.3279
31.8869
16.4572
1.38894
-12.8126
-25.7736
-37.7077
-48.5192
-56.6916
-61.8123
-64.4543
-65.3239
-65.2796
-65.0416
-64.9602
-65.1096
-65.3492
-65.1807
-63.8583
-60.459
-54.4265
-45.2525
-33.9636
-21.7415
-8.37685
6.16387
21.4015
36.8772
52.2805
67.3815
81.9785
95.8722
108.856
120.717
131.249
140.264
147.603
153.142
156.789
158.486
199.737
197.686
193.88
188.39
181.319
172.802
162.999
152.094
140.284
127.768
114.744
101.407
87.9607
74.636
61.7234
49.6068
38.698
29.2552
21.4872
15.5114
11.847
11.2512
12.6395
14.5306
15.598
15.8525
15.4231
14.1074
12.1868
11.1409
12.4573
16.8231
23.2385
31.4503
41.274
52.5138
64.8654
77.9046
91.2736
104.7
117.961
130.856
143.191
154.765
165.379
174.838
182.964
189.602
194.626
197.941
199.485
199.228
197.175
193.366
187.872
180.797
172.274
162.467
151.559
139.748
127.234
114.214
100.885
87.451
74.1444
61.2588
49.1816
38.3226
28.9351
21.2304
15.3187
11.7634
11.2702
12.7059
14.587
15.6205
15.8504
15.3947
14.0443
12.1319
11.148
12.5773
17.0384
23.516
31.7889
41.6665
52.9538
65.3412
78.4046
91.7898
105.226
118.494
131.393
143.728
155.301
165.912
175.366
183.487
190.12
195.139
198.451
199.994
238.381
236.532
233.104
228.17
221.831
214.219
205.485
195.804
185.359
174.339
162.935
151.339
139.754
128.399
117.528
107.436
98.4339
90.7809
84.7961
80.9098
79.7089
81.8546
86.5586
91.4054
94.506
95.2585
93.9687
90.2966
85.2656
80.9905
79.6906
81.6434
86.0924
92.5344
100.547
109.845
120.157
131.168
142.593
154.189
165.741
177.049
187.921
198.167
207.598
216.031
223.298
229.252
233.769
236.755
238.147
237.916
236.065
232.636
227.699
221.357
213.742
205.007
195.325
184.882
173.866
162.468
150.883
139.313
127.978
117.135
107.08
98.1221
90.5219
84.6034
80.7977
79.7067
81.973
86.7318
91.5501
94.5691
95.2505
93.883
90.14
85.1004
80.9061
79.7292
81.7827
86.3077
92.8116
100.874
110.216
120.562
131.598
143.042
154.651
166.211
177.525
188.401
198.648
208.077
216.508
223.773
229.724
234.238
237.222
238.613
274.552
272.888
269.808
265.384
259.718
252.938
245.194
236.65
227.483
217.873
208.002
198.055
188.222
178.706
169.727
161.534
154.387
148.536
144.275
141.993
142.255
146.121
153.809
162.292
168.165
169.861
167.056
160.312
151.643
144.733
141.884
142.336
145.153
149.846
156.043
163.473
171.883
181.012
190.62
200.49
210.422
220.229
229.727
238.731
247.064
254.55
261.027
266.353
270.405
273.088
274.341
274.133
272.468
269.387
264.962
259.295
252.515
244.771
236.229
227.065
217.461
207.6
197.665
187.849
178.354
169.403
161.245
154.141
148.341
144.142
141.936
142.302
146.316
154.103
162.549
168.298
169.84
166.885
160.035
151.366
144.584
141.873
142.419
145.308
150.059
156.305
163.775
172.218
181.373
191.001
200.886
210.83
220.645
230.148
239.155
247.489
254.975
261.452
266.776
270.826
273.508
274.76
309.089
307.595
304.835
300.88
295.833
289.819
282.985
275.492
267.507
259.204
250.757
242.339
234.128
226.304
219.06
212.607
207.162
202.951
200.24
199.365
200.777
205.249
213.635
224.113
232.137
234.568
230.577
221.542
211.183
203.767
200.161
199.375
200.745
203.86
208.401
214.117
220.785
228.188
236.12
244.392
252.823
261.236
269.459
277.317
284.636
291.251
297.003
301.751
305.375
307.781
308.905
308.718
307.224
304.464
300.509
295.462
289.449
282.618
275.127
267.148
258.853
250.417
242.014
233.82
226.019
218.803
212.382
206.978
202.815
200.161
199.356
200.859
205.457
213.976
224.451
232.324
234.537
230.34
221.187
210.874
203.601
200.11
199.407
200.844
204.013
208.599
214.354
221.054
228.483
236.436
244.724
253.168
261.592
269.821
277.684
285.007
291.623
297.375
302.123
305.746
308.152
309.276
342.592
341.257
338.793
335.273
330.797
325.491
319.498
312.974
306.081
298.985
291.851
284.841
278.116
271.837
266.171
261.292
257.378
254.616
253.219
253.451
255.644
260.258
267.832
277.552
285.651
288.219
284.028
275.084
265.647
258.833
254.878
253.212
253.416
255.177
258.245
262.416
267.506
273.339
279.74
286.545
293.593
300.722
307.768
314.566
320.951
326.761
331.843
336.057
339.285
341.434
342.439
342.272
340.936
338.473
334.953
330.479
325.175
319.186
312.666
305.781
298.694
291.572
284.577
277.87
271.614
265.975
261.128
257.251
254.532
253.186
253.479
255.747
260.456
268.136
277.881
285.846
288.186
283.783
274.749
265.372
258.666
254.799
253.204
253.466
255.275
258.385
262.592
267.713
273.571
279.993
286.816
293.878
301.018
308.073
314.877
321.266
327.079
332.163
336.378
339.606
341.755
342.76
375.497
374.31
372.125
369.013
365.074
360.43
355.222
349.6
343.721
337.742
331.818
326.099
320.731
315.855
311.612
308.142
305.584
304.077
303.775
304.854
307.514
311.978
318.403
326.185
332.797
334.956
331.448
324.211
316.612
310.672
306.68
304.437
303.722
304.341
306.125
308.924
312.599
317.013
322.022
327.486
333.264
339.207
345.164
350.978
356.493
361.551
366.005
369.719
372.575
374.481
375.374
375.226
374.04
371.855
368.745
364.808
360.167
354.963
349.348
343.477
337.508
331.597
325.894
320.544
315.691
311.473
308.033
305.508
304.04
303.782
304.91
307.628
312.158
318.65
326.448
332.959
334.928
331.246
323.944
316.384
310.512
306.585
304.397
303.731
304.392
306.212
309.044
312.748
317.186
322.216
327.699
333.491
339.446
345.413
351.234
356.754
361.817
366.274
369.989
372.846
374.752
375.646
408.08
407.038
405.122
402.404
398.979
394.968
390.506
385.737
380.81
375.874
371.073
366.544
362.417
358.814
355.851
353.635
352.267
351.839
352.445
354.174
357.111
361.302
366.668
372.637
377.539
379.137
376.542
371.155
365.228
360.132
356.256
353.629
352.19
351.853
352.525
354.115
356.527
359.661
363.404
367.641
372.246
377.088
382.026
386.914
391.605
395.948
399.802
403.035
405.532
407.204
407.989
407.858
406.817
404.902
402.186
398.764
394.757
390.299
385.537
380.619
375.694
370.906
366.393
362.285
358.703
355.764
353.576
352.237
351.842
352.484
354.252
357.23
361.464
366.865
372.833
377.659
379.117
376.393
370.953
365.041
359.984
356.15
353.564
352.163
351.861
352.565
354.184
356.623
359.78
363.544
367.798
372.418
377.272
382.22
387.117
391.814
396.162
400.02
403.254
405.753
407.426
408.211
440.494
439.595
437.948
435.619
432.702
429.311
425.575
421.629
417.615
413.668
409.922
406.5
403.517
401.075
399.267
398.169
397.846
398.347
399.71
401.954
405.07
408.987
413.503
418.1
421.668
422.806
420.952
416.991
412.335
407.938
404.211
401.312
399.29
398.147
397.858
398.382
399.665
401.641
404.227
407.329
410.84
414.644
418.613
422.614
426.507
430.153
433.418
436.175
438.317
439.756
440.433
440.32
439.422
437.776
435.45
432.536
429.149
425.419
421.481
417.475
413.54
409.807
406.401
403.436
401.014
399.228
398.154
397.857
398.385
399.776
402.049
405.192
409.132
413.662
418.246
421.754
422.791
420.845
416.838
412.18
407.8
404.098
401.227
399.234
398.119
397.856
398.406
399.712
401.71
404.315
407.435
410.961
414.777
418.757
422.766
426.666
430.317
433.586
436.346
438.489
439.929
440.607
472.787
472.036
470.663
468.732
466.33
463.564
460.554
457.424
454.302
451.314
448.578
446.203
444.288
442.917
442.159
442.065
442.667
443.975
445.982
448.651
451.906
455.606
459.5
463.143
465.797
466.617
465.275
462.29
458.527
454.651
451.046
447.93
445.423
443.591
442.462
442.039
442.305
443.223
444.739
446.778
449.252
452.059
455.087
458.215
461.317
464.265
466.935
469.21
470.988
472.188
472.755
472.66
471.91
470.539
468.61
466.212
463.45
460.446
457.324
454.211
451.234
448.511
446.151
444.253
442.9
442.163
442.09
442.713
444.043
446.071
448.759
452.03
455.739
459.632
463.255
465.859
466.606
465.196
462.17
458.394
454.52
450.927
447.828
445.341
443.53
442.423
442.022
442.309
443.247
444.781
446.836
449.324
452.144
455.183
458.319
461.428
464.382
467.055
469.333
471.114
472.315
472.882
504.932
504.336
503.251
501.737
499.871
497.752
495.485
493.182
490.957
488.918
487.17
485.805
484.905
484.538
484.75
485.569
487
489.022
491.591
494.629
498.015
501.571
505.04
508.054
510.12
510.738
509.722
507.369
504.2
500.681
497.149
493.839
490.912
488.476
486.602
485.326
484.663
484.602
485.11
486.135
487.604
489.434
491.526
493.776
496.073
498.304
500.357
502.129
503.527
504.476
504.926
504.851
504.256
503.173
501.66
499.799
497.684
495.423
493.128
490.912
488.884
487.147
485.796
484.912
484.562
484.792
485.629
487.077
489.116
491.7
494.749
498.141
501.697
505.155
508.145
510.168
510.73
509.661
507.27
504.081
500.555
497.025
493.723
490.808
488.388
486.53
485.273
484.628
484.584
485.109
486.149
487.632
489.473
491.576
493.834
496.138
498.374
500.432
502.207
503.607
504.557
505.007
536.842
536.412
535.636
534.566
533.27
531.832
530.343
528.898
527.591
526.515
525.754
525.384
525.471
526.063
527.189
528.854
531.042
533.709
536.782
540.154
543.678
547.164
550.364
552.984
554.689
555.184
554.367
552.402
549.608
546.313
542.799
539.299
535.993
533.016
530.467
528.41
526.883
525.895
525.437
525.472
525.947
526.795
527.936
529.284
530.744
532.223
533.625
534.862
535.853
536.534
536.858
536.804
536.375
535.601
534.533
533.241
531.808
530.325
528.886
527.588
526.522
525.773
525.416
525.517
526.124
527.264
528.945
531.147
533.826
536.907
540.283
543.807
547.285
550.469
553.061
554.728
555.178
554.316
552.317
549.499
546.189
542.669
539.171
535.871
532.904
530.367
528.325
526.812
525.84
525.396
525.445
525.933
526.792
527.943
529.298
530.766
532.25
533.656
534.896
535.889
536.572
536.897
568.383
568.134
567.692
567.102
566.418
565.709
565.046
564.503
564.154
564.069
564.315
564.947
566.012
567.542
569.546
572.015
574.912
578.176
581.714
585.403
589.083
592.562
595.615
598.005
599.5
599.925
599.222
597.484
594.907
591.727
588.181
584.484
580.822
577.346
574.17
571.379
569.028
567.146
565.738
564.788
564.26
564.104
564.262
564.666
565.245
565.923
566.628
567.288
567.84
568.229
568.418
568.386
568.138
567.698
567.11
566.431
565.726
565.068
564.532
564.191
564.116
564.372
565.016
566.093
567.635
569.652
572.132
575.039
578.311
581.853
585.541
589.215
592.681
595.713
598.074
599.534
599.92
599.178
597.406
594.803
591.604
588.046
584.345
580.684
577.213
574.045
571.265
568.926
567.057
565.662
564.724
564.207
564.061
564.228
564.639
565.224
565.908
566.617
567.281
567.835
568.225
568.415
599.381
599.329
599.252
599.182
599.161
599.236
599.455
599.87
600.529
601.481
602.767
604.424
606.479
608.945
611.816
615.067
618.648
622.483
626.47
630.473
634.332
637.86
640.858
643.131
644.517
644.904
644.262
642.642
640.171
637.024
633.397
629.487
625.477
621.52
617.743
614.243
611.087
608.319
605.96
604.011
602.452
601.256
600.384
599.792
599.432
599.255
599.209
599.245
599.319
599.39
599.43
599.424
599.373
599.297
599.23
599.213
599.292
599.516
599.937
600.604
601.564
602.86
604.527
606.592
609.068
611.949
615.209
618.796
622.635
626.621
630.619
634.467
637.978
640.952
643.196
644.548
644.899
644.22
642.568
640.069
636.9
633.258
629.339
625.325
621.369
617.597
614.104
610.957
608.199
605.851
603.911
602.363
601.176
600.312
599.727
599.373
599.2
599.158
599.198
599.274
599.347
599.388
629.627
629.79
630.109
630.603
631.296
632.212
633.376
634.81
636.539
638.581
640.956
643.677
646.751
650.172
653.919
657.954
662.214
666.617
671.051
675.38
679.444
683.07
686.082
688.319
689.659
690.031
689.413
687.84
685.397
682.217
678.466
674.321
669.955
665.519
661.146
656.938
652.974
649.309
645.978
642.996
640.366
638.08
636.121
634.473
633.112
632.017
631.163
630.527
630.082
629.809
629.687
629.707
629.871
630.192
630.689
631.385
632.305
633.474
634.914
636.649
638.699
641.082
643.811
646.893
650.322
654.076
658.116
662.38
666.783
671.213
675.533
679.583
683.189
686.175
688.382
689.689
690.025
689.374
687.768
685.296
682.092
678.323
674.165
669.791
665.353
660.981
656.777
652.819
649.162
645.838
642.865
640.243
637.964
636.013
634.371
633.016
631.925
631.076
630.442
630
629.728
629.607
658.882
659.276
660.021
661.121
662.579
664.394
666.563
669.082
671.943
675.139
678.661
682.497
686.632
691.044
695.694
700.533
705.489
710.473
715.37
720.046
724.348
728.116
731.195
733.452
734.79
735.159
734.545
732.97
730.497
727.233
723.317
718.907
714.164
709.235
704.25
699.318
694.524
689.932
685.59
681.532
677.777
674.341
671.233
668.463
666.038
663.965
662.248
660.889
659.889
659.244
658.948
658.997
659.392
660.139
661.241
662.702
664.521
666.696
669.22
672.087
675.289
678.817
682.66
686.801
691.218
695.873
700.714
705.671
710.651
715.541
720.205
724.49
728.236
731.288
733.514
734.819
735.154
734.506
732.898
730.396
727.106
723.169
718.744
713.99
709.055
704.068
699.137
694.346
689.759
685.423
681.371
677.622
674.193
671.091
668.327
665.907
663.838
662.125
660.77
659.772
659.128
658.833
686.879
687.519
688.716
690.457
692.724
695.49
698.723
702.387
706.443
710.855
715.584
720.594
725.845
731.294
736.889
742.568
748.252
753.847
759.237
764.291
768.868
772.82
776.011
778.329
779.696
780.071
779.445
777.834
775.288
771.894
767.772
763.062
757.911
752.459
746.833
741.143
735.48
729.918
724.517
719.326
714.387
709.739
705.42
701.467
697.918
694.81
692.18
690.058
688.468
687.428
686.946
687.026
687.668
688.866
690.61
692.88
695.65
698.888
702.556
706.618
711.035
715.769
720.783
726.039
731.491
737.088
742.767
748.448
754.036
759.416
764.456
769.013
772.941
776.104
778.391
779.725
780.066
779.406
777.762
775.186
771.765
767.62
762.892
757.727
752.266
746.635
740.943
735.281
729.722
724.324
719.137
714.203
709.561
705.247
701.298
697.754
694.651
692.024
689.905
688.318
687.279
686.799
713.33
714.227
715.895
718.305
721.415
725.172
729.512
734.37
739.675
745.359
751.353
757.593
764.016
770.556
777.147
783.713
790.17
796.417
802.341
807.815
812.708
816.886
820.231
822.646
824.064
824.452
823.802
822.129
819.472
815.906
811.536
806.484
800.883
794.866
788.556
782.063
775.483
768.9
762.385
756.005
749.825
743.909
738.322
733.133
728.411
724.227
720.645
717.727
715.522
714.07
713.396
713.508
714.406
716.076
718.488
721.602
725.362
729.707
734.569
739.879
745.566
751.565
757.808
764.233
770.774
777.364
783.928
790.379
796.617
802.528
807.985
812.856
817.009
820.325
822.708
824.093
824.447
823.763
822.056
819.368
815.775
811.379
806.307
800.691
794.662
788.344
781.846
775.265
768.681
762.167
755.79
749.613
743.701
738.119
732.934
728.217
724.037
720.459
717.544
715.342
713.892
713.218
737.934
739.093
741.241
744.333
748.303
753.071
758.545
764.627
771.215
778.209
785.511
793.029
800.672
808.354
815.991
823.497
830.776
837.726
844.234
850.178
855.434
859.885
863.424
865.968
867.458
867.865
867.182
865.421
862.619
858.839
854.173
848.73
842.63
835.999
828.954
821.606
814.058
806.402
798.722
791.105
783.637
776.41
769.519
763.061
757.139
751.852
747.3
743.569
740.738
738.866
737.994
738.139
739.299
741.449
744.544
748.517
753.289
758.767
764.853
771.445
778.442
785.748
793.267
800.911
808.592
816.227
823.727
830.998
837.937
844.429
850.353
855.587
860.011
863.52
866.031
867.487
867.859
867.142
865.347
862.513
858.704
854.012
848.547
842.429
835.783
828.728
821.374
813.821
806.162
798.482
790.866
783.4
776.176
769.288
762.835
756.917
751.635
747.086
743.358
740.53
738.66
737.788
760.378
761.797
764.423
768.192
773.017
778.792
785.396
792.702
800.578
808.893
817.521
826.34
835.235
844.096
852.821
861.312
869.464
877.169
884.312
890.779
896.452
901.224
904.999
907.704
909.285
909.716
908.991
907.12
904.136
900.099
895.087
889.2
882.548
875.249
867.418
859.168
850.606
841.835
832.956
824.072
815.295
806.742
798.536
790.806
783.683
777.298
771.779
767.241
763.787
761.498
760.43
760.608
762.028
764.656
768.428
773.256
779.035
785.644
792.953
800.833
809.151
817.781
826.601
835.495
844.352
853.073
861.557
869.698
877.389
884.515
890.96
896.609
901.352
905.097
907.768
909.314
909.711
908.95
907.044
904.028
899.96
894.921
889.01
882.338
875.023
867.179
858.919
850.35
841.575
832.694
823.81
815.034
806.483
798.28
790.554
783.435
777.055
771.539
767.005
763.554
761.267
760.2
780.35
782.019
785.104
789.524
795.172
801.917
809.613
818.105
827.234
836.841
846.773
856.881
867.025
877.073
886.907
896.411
905.471
913.973
921.8
928.838
934.978
940.117
944.17
947.066
948.757
949.218
948.441
946.438
943.24
938.902
933.496
927.115
919.862
911.849
903.191
894.004
884.402
874.501
864.416
854.27
844.198
834.342
824.853
815.886
807.601
800.156
793.705
788.391
784.339
781.649
780.392
780.601
782.272
785.358
789.782
795.433
802.182
809.882
818.378
827.511
837.121
847.054
857.162
867.304
877.348
887.175
896.67
905.718
914.204
922.011
929.027
935.14
940.25
944.27
947.131
948.787
949.212
948.399
946.36
943.129
938.759
933.324
926.918
919.643
911.611
902.939
893.74
884.129
874.222
864.134
853.986
843.914
834.06
824.574
815.611
807.33
799.89
793.444
788.133
784.084
781.396
780.14
797.545
799.445
802.952
807.973
814.38
822.021
830.728
840.322
850.62
861.439
872.601
883.936
895.28
906.481
917.403
927.914
937.889
947.205
955.742
963.384
970.026
975.568
979.928
983.04
984.856
985.35
984.515
982.363
978.925
974.253
968.418
961.508
953.622
944.872
935.372
925.244
914.613
903.605
892.353
880.998
869.696
858.612
847.921
837.802
828.438
820.012
812.702
806.671
802.067
799.008
797.577
797.815
799.716
803.226
808.249
814.66
822.306
831.017
840.615
850.916
861.738
872.902
884.236
895.577
906.773
917.687
928.187
938.148
947.446
955.962
963.58
970.194
975.705
980.032
983.108
984.887
985.344
984.471
982.282
978.809
974.105
968.24
961.302
953.393
944.622
935.106
924.965
914.324
903.308
892.052
880.695
869.393
858.311
847.622
837.507
828.148
819.727
812.421
806.394
801.794
798.736
797.306
811.676
813.777
817.653
823.197
830.266
838.691
848.282
858.843
870.169
882.061
894.32
906.757
919.19
931.451
943.384
954.843
965.69
975.793
985.026
993.272
1000.42
1006.37
1011.05
1014.39
1016.34
1016.87
1015.97
1013.66
1009.97
1004.96
998.685
991.242
982.729
973.257
962.946
951.925
940.327
928.294
915.973
903.523
891.119
878.944
867.19
856.057
845.748
836.464
828.403
821.748
816.662
813.28
811.697
811.961
814.063
817.942
823.489
830.562
838.991
848.588
859.152
870.483
882.377
894.637
907.073
919.503
931.757
943.682
955.129
965.961
976.046
985.256
993.475
1000.59
1006.52
1011.16
1014.46
1016.37
1016.86
1015.92
1013.58
1009.85
1004.8
998.499
991.028
982.49
972.996
962.668
951.632
940.023
927.981
915.656
903.204
890.799
878.625
866.875
855.746
845.441
836.162
828.106
821.455
816.373
812.993
811.412
822.493
824.756
828.929
834.894
842.496
851.55
861.853
873.192
885.35
898.112
911.266
924.609
937.949
951.102
963.898
976.176
987.785
998.584
1008.44
1017.23
1024.84
1031.18
1036.16
1039.7
1041.77
1042.33
1041.38
1038.93
1035
1029.67
1022.99
1015.06
1005.98
995.867
984.842
973.043
960.613
947.708
934.49
921.132
907.823
894.758
882.144
870.193
859.122
849.148
840.483
833.325
827.853
824.211
822.506
822.79
825.054
829.23
835.199
842.805
851.863
862.171
873.515
885.677
898.441
911.596
924.939
938.275
951.422
964.208
976.473
988.067
998.846
1008.68
1017.44
1025.02
1031.33
1036.27
1039.78
1041.81
1042.33
1041.33
1038.84
1034.88
1029.51
1022.8
1014.84
1005.73
995.596
984.552
972.738
960.296
947.383
934.159
920.799
907.489
894.426
881.815
869.869
858.803
848.834
840.174
833.021
827.552
823.913
822.209
829.729
832.107
836.492
842.756
850.735
860.235
871.041
882.93
895.675
909.053
922.843
936.838
950.834
964.644
978.082
990.976
1003.17
1014.5
1024.84
1034.06
1042.04
1048.68
1053.89
1057.61
1059.78
1060.37
1059.37
1056.79
1052.68
1047.09
1040.09
1031.78
1022.26
1011.64
1000.07
987.681
974.627
961.074
947.198
933.185
919.228
905.531
892.308
879.779
868.17
857.709
848.616
841.102
835.354
831.527
829.735
830.033
832.413
836.8
843.068
851.052
860.556
871.368
883.261
896.011
909.391
923.183
937.176
951.17
964.973
978.401
991.283
1003.46
1014.77
1025.09
1034.28
1042.23
1048.83
1054.01
1057.69
1059.81
1060.36
1059.32
1056.71
1052.56
1046.93
1039.9
1031.55
1022
1011.37
999.773
987.367
974.301
960.739
946.858
932.842
918.885
905.19
891.97
879.446
867.842
857.386
848.299
840.789
835.045
831.221
829.43
833.333
835.771
840.265
846.683
854.856
864.582
875.641
887.806
900.843
914.525
928.629
942.944
957.267
971.407
985.171
998.379
1010.86
1022.47
1033.06
1042.5
1050.67
1057.46
1062.8
1066.6
1068.82
1069.42
1068.4
1065.77
1061.56
1055.84
1048.67
1040.16
1030.41
1019.55
1007.69
995
981.629
967.749
953.543
939.204
924.929
910.921
897.396
884.579
872.701
861.992
852.682
844.985
839.095
835.173
833.335
833.642
836.081
840.577
847
855.177
864.907
875.972
888.141
901.183
914.867
928.973
943.287
957.607
971.741
985.495
998.69
1011.16
1022.75
1033.31
1042.72
1050.85
1057.62
1062.91
1066.68
1068.86
1069.42
1068.35
1065.68
1061.43
1055.67
1048.47
1039.93
1030.16
1019.26
1007.39
994.682
981.298
967.409
953.198
938.857
924.581
910.575
897.054
884.242
872.368
861.666
852.36
844.668
838.782
834.863
833.027
)
;

boundaryField
{
    top
    {
        type            calculated;
        value           nonuniform List<scalar> 
102
(
833.606
836.078
840.631
847.132
855.404
865.242
876.424
888.718
901.889
915.707
929.948
944.4
958.863
973.147
987.053
1000.4
1013.02
1024.75
1035.45
1044.99
1053.24
1060.11
1065.51
1069.36
1071.6
1072.21
1071.18
1068.51
1064.26
1058.47
1051.23
1042.63
1032.77
1021.79
1009.81
996.984
983.473
969.45
955.1
940.623
926.21
912.065
898.405
885.456
873.449
862.621
853.201
845.409
839.443
835.468
833.604
833.915
836.389
840.945
847.449
855.725
865.569
876.756
889.055
902.23
916.051
930.294
944.745
959.205
973.483
987.379
1000.71
1013.31
1025.02
1035.7
1045.21
1053.43
1060.27
1065.63
1069.43
1071.64
1072.21
1071.13
1068.42
1064.13
1058.3
1051.03
1042.39
1032.51
1021.5
1009.5
996.663
983.14
969.108
954.754
940.274
925.861
911.718
898.062
885.117
873.116
862.293
852.878
845.091
839.129
835.157
833.295
)
;
    }
    bottom
    {
        type            calculated;
        value           nonuniform List<scalar> 
102
(
-38.8585
-42.1162
-48.1853
-57.0046
-68.5059
-82.6297
-99.3314
-118.569
-140.272
-164.304
-190.433
-218.318
-247.478
-277.264
-306.803
-335.042
-360.918
-383.54
-402.19
-416.534
-426.845
-433.684
-437.864
-440.208
-441.34
-441.619
-441.139
-439.743
-437.002
-432.231
-424.589
-413.301
-397.879
-378.171
-354.649
-328.08
-299.401
-269.701
-240.001
-211.115
-183.647
-158.04
-134.607
-113.553
-94.9935
-78.9898
-65.5818
-54.8177
-46.7602
-41.4769
-39.0236
-39.4313
-42.6943
-48.7734
-57.6079
-69.13
-83.2808
-100.016
-119.293
-141.04
-165.116
-191.29
-219.212
-248.398
-278.192
-307.71
-335.894
-361.683
-384.191
-402.705
-416.913
-427.101
-433.842
-437.953
-440.252
-441.356
-441.615
-441.114
-439.685
-436.894
-432.045
-424.297
-412.881
-397.321
-377.481
-353.852
-327.205
-298.482
-268.769
-239.082
-210.226
-182.798
-157.236
-133.849
-112.837
-94.316
-78.3442
-64.9619
-54.2175
-46.1742
-40.9
-38.4512
)
;
    }
    frontAndBack
    {
        type            empty;
    }
    left_cyc
    {
        type            cyclic;
    }
    right_cyc
    {
        type            cyclic;
    }
}


// ************************************************************************* //
