/*--------------------------------*- C++ -*----------------------------------*\
| =========                 |                                                 |
| \\      /  F ield         | OpenFOAM: The Open Source CFD Toolbox           |
|  \\    /   O peration     | Version:  2.3.0                                 |
|   \\  /    A nd           | Web:      www.OpenFOAM.org                      |
|    \\/     M anipulation  |                                                 |
\*---------------------------------------------------------------------------*/
FoamFile
{
    version     2.0;
    format      ascii;
    class       volScalarField;
    location    "24000";
    object      p;
}
// * * * * * * * * * * * * * * * * * * * * * * * * * * * * * * * * * * * * * //

dimensions      [0 2 -2 0 0 0 0];

internalField   nonuniform List<scalar> 
765
(
0
-13.6268
-38.6162
-73.7905
-117.5
-167.292
-219.369
-268.801
-311.735
-346.096
-367.326
-375.648
-377.699
-376.481
-370.097
-352.488
-320.36
-279.346
-231.103
-179.173
-128.421
-82.9916
-45.5929
-18.0161
-1.52994
3.0079
-4.69402
-24.166
-54.433
-94.1127
-141.227
-192.747
-244.163
-290.883
-329.707
-358.813
-372.789
-377.368
-377.765
-374.639
-363.831
-338.562
-301.997
-257.099
-206.566
-154.609
-106.031
-64.2426
-31.4512
-9.16964
1.51995
43.7154
34.9508
19.1356
-2.73987
-29.5664
-60.0678
-93.0452
-128.215
-161.184
-184.034
-197.942
-204.28
-205.208
-204.713
-200.196
-187.83
-167.368
-136.316
-100.84
-67.2945
-36.0847
-8.23142
14.9636
32.3583
42.9363
45.8744
40.8899
28.4465
9.4407
-15.0832
-43.9416
-75.824
-109.976
-145.326
-173.826
-191.842
-202.405
-205.243
-205.389
-203.753
-195.297
-179.531
-153.927
-119.437
-84.7357
-52.2898
-22.5667
3.15209
23.6329
37.7984
44.6969
134.059
127.074
114.496
97.2126
76.2079
52.4596
26.8793
0.0237243
-24.6705
-39.8465
-46.5761
-45.7646
-43.2876
-44.9155
-47.0343
-41.9321
-29.0163
-5.96275
20.9619
46.8944
71.1785
92.9504
111.242
125.066
133.499
135.843
131.863
121.941
106.855
87.5564
65.0311
40.2379
13.9327
-12.7403
-33.4513
-44.1341
-47.2991
-44.3012
-43.7268
-46.8083
-45.7717
-37.1793
-19.2879
6.64474
33.2713
58.4806
81.6501
101.837
118.057
129.338
134.841
221.747
215.867
205.313
190.958
173.853
155.15
136.12
118.129
103.64
94.6619
94.6983
104.181
110.768
106.404
96.3566
93.716
101.222
114.483
131.979
150.907
169.829
187.443
202.58
214.161
221.258
223.228
219.875
211.525
198.913
183.013
164.928
145.856
127.118
110.371
98.5064
93.031
98.4613
108.263
109.825
101.272
93.3386
96.16
106.58
122.286
140.698
159.788
178.221
194.762
208.283
217.765
222.401
295.513
290.85
282.564
271.506
258.692
245.197
232.124
220.61
212.381
209.224
214.65
229.168
237.956
232.292
217.482
209.488
211.226
218.418
229.384
242.216
255.734
268.829
280.426
289.486
295.108
296.674
294.004
287.401
277.574
265.472
252.149
238.684
226.189
215.963
210.006
210.168
220.894
234.866
236.85
225.066
211.943
209.28
213.852
223.128
235.162
248.46
261.901
274.393
284.871
292.345
296.031
366.737
363.118
356.779
348.536
339.357
330.239
322.149
315.995
312.777
313.349
319.074
331.138
339.245
333.898
321.362
314.111
312.582
314.983
320.567
328.302
337.282
346.556
355.134
362.032
366.386
367.605
365.522
360.422
352.983
344.115
334.811
326.051
318.773
313.886
312.43
315.144
324.186
336.329
338.232
327.67
316.844
312.68
313.111
317.18
323.909
332.354
341.591
350.646
358.52
364.268
367.139
435.94
433.368
428.964
423.456
417.69
412.517
408.722
406.967
407.705
411.13
417.234
425.761
431.351
427.63
419.017
412.272
408.252
406.893
408.115
411.498
416.427
422.143
427.808
432.566
435.649
436.523
435.028
431.432
426.346
420.573
414.973
410.366
407.486
406.878
408.924
413.607
421.057
429.307
430.639
423.431
415.321
409.919
407.159
407.09
409.406
413.621
419.027
424.823
430.149
434.175
436.226
503.851
502.421
500.105
497.469
495.152
493.783
493.911
495.924
499.875
505.506
512.164
518.892
522.656
520.18
513.733
506.944
501.011
496.63
494.167
493.628
494.698
496.856
499.486
501.945
503.643
504.14
503.29
501.331
498.755
496.176
494.235
493.53
494.548
497.506
502.336
508.557
515.43
521.318
522.197
517.236
510.368
503.899
498.637
495.166
493.639
493.935
495.604
498.072
500.699
502.857
504.013
569.975
569.873
569.947
570.518
571.92
574.471
578.43
583.892
590.641
598.141
605.469
611.487
614.361
612.5
606.989
599.844
592.284
585.292
579.502
575.19
572.331
570.689
569.957
569.8
569.891
569.948
569.851
569.785
570.051
570.981
572.903
576.116
580.82
586.955
594.17
601.727
608.592
613.4
614.054
610.159
603.681
596.206
588.817
582.354
577.255
573.669
571.438
570.281
569.874
569.881
569.992
633.123
634.583
637.414
641.616
647.136
653.9
661.816
670.687
680.111
689.408
697.589
703.551
706.108
704.473
699.169
691.39
682.244
672.767
663.718
655.552
648.507
642.687
638.166
635.002
633.212
632.746
633.543
635.684
639.201
644.062
650.204
657.549
665.975
675.189
684.668
693.573
700.83
705.317
705.886
702.351
695.723
687.155
677.74
668.401
659.737
652.098
645.639
640.442
636.579
634.092
632.967
691.526
694.752
700.667
708.89
718.934
730.285
742.45
754.929
767.164
778.398
787.674
794.011
796.578
794.95
789.401
780.707
769.824
757.736
745.251
732.964
721.375
710.972
702.263
695.746
691.837
690.772
692.588
697.209
704.343
713.543
724.302
736.119
748.507
760.956
772.823
783.246
791.226
795.843
796.406
792.82
785.655
775.789
764.219
751.862
739.417
727.405
716.328
706.683
698.984
693.7
691.172
742.968
748.06
757.214
769.658
784.466
800.684
817.4
833.794
849.143
862.621
873.322
880.385
883.176
881.414
875.279
865.337
852.41
837.41
821.184
804.473
788.054
772.818
759.712
749.676
743.53
741.827
744.727
751.96
762.888
776.647
792.286
808.869
825.521
841.507
856.061
868.313
877.356
882.423
883.03
879.116
871.065
859.579
845.549
829.869
813.334
796.653
780.688
766.364
754.64
746.416
742.402
784.992
791.861
804.087
820.547
839.936
860.916
882.21
902.689
921.419
937.476
949.955
958.062
961.238
959.24
952.224
940.685
925.373
907.176
887.016
865.82
844.647
824.749
807.452
794.076
785.805
783.493
787.426
797.138
811.669
829.783
850.147
871.451
892.469
912.212
929.757
944.187
954.637
960.413
961.1
956.641
947.369
933.91
917.098
897.846
877.079
855.739
835.017
816.213
800.666
789.653
784.223
814.881
823.197
837.915
857.635
880.781
905.759
931.055
955.301
977.316
996.02
1010.44
1019.77
1023.42
1021.13
1013.07
999.755
981.96
960.621
936.792
911.624
886.43
862.692
841.988
825.906
815.906
813.094
817.873
829.598
847.047
868.707
892.982
918.318
943.258
966.555
987.083
1003.82
1015.85
1022.49
1023.27
1018.15
1007.47
991.892
972.261
949.583
924.957
899.595
874.913
852.45
833.805
820.53
813.945
830.717
839.844
855.939
877.447
902.653
929.865
957.502
984.094
1008.24
1028.74
1044.52
1054.71
1058.72
1056.2
1047.39
1032.84
1013.35
989.949
963.811
936.282
908.822
882.973
860.402
842.827
831.863
828.767
834.023
846.867
865.921
889.522
915.955
943.581
970.901
996.461
1018.97
1037.28
1050.44
1057.7
1058.56
1052.95
1041.27
1024.22
1002.7
977.816
950.812
923.136
896.258
871.793
851.448
836.92
829.685
)
;

boundaryField
{
    top
    {
        type            calculated;
        value           nonuniform List<scalar> 
51
(
832.583
842.202
859.064
881.485
907.672
935.902
964.623
992.372
1017.61
1039.05
1055.59
1066.3
1070.52
1067.87
1058.61
1043.35
1022.95
998.493
971.21
942.568
914.082
887.243
863.738
845.351
833.814
830.535
836.093
849.587
869.493
894.047
921.477
950.138
978.602
1005.29
1028.82
1048
1061.81
1069.44
1070.35
1064.44
1052.18
1034.32
1011.81
985.811
957.643
928.914
901.031
875.598
854.367
839.127
831.489
)
;
    }
    bottom
    {
        type            calculated;
        value           nonuniform List<scalar> 
51
(
-71.5684
-85.4782
-110.964
-146.82
-191.377
-242.158
-295.32
-345.747
-389.65
-424.943
-447.009
-455.962
-458.299
-456.896
-449.947
-431.54
-398.495
-356.519
-307.286
-254.283
-202.514
-156.203
-118.082
-89.962
-73.1383
-68.501
-76.3683
-96.2338
-127.092
-167.538
-215.571
-268.131
-320.596
-368.301
-408.082
-438.084
-452.811
-457.872
-458.335
-454.822
-443.319
-417.181
-379.67
-333.793
-282.238
-229.216
-179.683
-137.087
-103.657
-80.9295
-70.0144
)
;
    }
    frontAndBack
    {
        type            empty;
    }
    left_cyc
    {
        type            cyclic;
    }
    right_cyc
    {
        type            cyclic;
    }
}


// ************************************************************************* //
