/*--------------------------------*- C++ -*----------------------------------*\
| =========                 |                                                 |
| \\      /  F ield         | OpenFOAM: The Open Source CFD Toolbox           |
|  \\    /   O peration     | Version:  2.3.0                                 |
|   \\  /    A nd           | Web:      www.OpenFOAM.org                      |
|    \\/     M anipulation  |                                                 |
\*---------------------------------------------------------------------------*/
FoamFile
{
    version     2.0;
    format      ascii;
    class       volScalarField;
    location    "24000";
    object      p;
}
// * * * * * * * * * * * * * * * * * * * * * * * * * * * * * * * * * * * * * //

dimensions      [0 2 -2 0 0 0 0];

internalField   nonuniform List<scalar> 
3060
(
0
-3.11493
-8.92883
-17.3997
-28.4853
-42.1529
-58.3789
-77.1312
-98.3383
-121.857
-147.445
-174.747
-203.264
-232.338
-261.115
-288.605
-313.823
-335.883
-354.08
-368.167
-378.405
-385.321
-389.665
-392.176
-393.425
-393.74
-393.209
-391.688
-388.786
-383.885
-376.222
-365.08
-349.999
-330.812
-307.901
-282.036
-254.13
-225.188
-196.182
-167.917
-141.011
-115.926
-92.9889
-72.415
-54.3275
-38.7847
-25.8142
-15.441
-7.7003
-2.63502
-0.28443
-0.671793
-3.79263
-9.61813
-18.1068
-29.2169
-42.9164
-59.1818
-77.98
-99.2377
-122.808
-148.446
-175.789
-204.333
-233.411
-262.161
-289.587
-314.706
-336.633
-354.675
-368.609
-378.709
-385.514
-389.777
-392.235
-393.448
-393.735
-393.175
-391.614
-388.652
-383.661
-375.878
-364.593
-349.356
-330.018
-306.983
-281.028
-253.07
-224.109
-195.115
-166.881
-140.02
-114.985
-92.1006
-71.5765
-53.5336
-38.0285
-25.0882
-14.7379
-7.01368
-1.95884
0.386864
38.6687
36.0261
31.0692
23.7934
14.189
2.25074
-12.0069
-28.5296
-47.2074
-67.8649
-90.2473
-113.991
-138.582
-163.337
-187.557
-210.852
-232.975
-253.087
-269.939
-282.9
-292.282
-298.654
-302.722
-305.134
-306.364
-306.678
-306.15
-304.661
-301.894
-297.327
-290.284
-280.074
-266.169
-248.425
-227.706
-205.25
-181.713
-157.309
-132.532
-108.104
-84.6701
-62.7061
-42.5454
-24.4216
-8.49312
5.14513
16.4509
25.417
32.0513
36.3634
38.356
38.0281
35.38
30.4126
23.1205
13.4938
1.52707
-12.7646
-29.3256
-48.044
-68.7415
-91.1598
-114.93
-139.531
-164.271
-188.458
-211.714
-233.78
-253.789
-270.495
-283.309
-292.564
-298.835
-302.83
-305.192
-306.387
-306.673
-306.115
-304.587
-301.765
-297.117
-289.966
-279.622
-265.566
-247.685
-226.877
-204.373
-180.798
-156.365
-131.581
-107.168
-83.7636
-61.8373
-41.7174
-23.634
-7.74308
5.86232
17.141
26.0861
32.7055
37.008
38.9962
68.377
65.7848
60.9486
53.9163
44.7674
33.624
20.6564
6.07393
-9.90032
-27.0574
-45.2186
-64.2365
-83.9954
-104.395
-125.202
-145.633
-164.366
-180.283
-193.261
-203.879
-211.879
-217.063
-220.155
-221.89
-222.742
-222.955
-222.595
-221.555
-219.54
-216.012
-210.197
-201.496
-190.323
-176.691
-160.03
-140.768
-120.146
-99.4097
-79.1701
-59.6024
-40.8036
-22.8982
-6.04249
9.57572
23.7408
36.2297
46.8411
55.4167
61.8462
66.0599
68.0157
67.6934
65.0965
60.2514
53.2068
44.0427
32.8827
19.8982
5.29976
-10.6889
-27.8587
-46.0307
-65.0577
-84.8244
-105.23
-126.028
-146.409
-165.042
-180.832
-193.706
-204.233
-212.117
-217.204
-220.233
-221.93
-222.757
-222.951
-222.571
-221.504
-219.445
-215.844
-209.924
-201.112
-189.85
-176.104
-159.318
-139.969
-119.311
-98.5731
-78.3402
-58.7808
-39.9915
-22.0976
-5.25521
10.3479
24.4965
36.9683
47.563
56.1237
62.5415
66.747
68.6989
115.336
112.82
108.139
101.362
92.5949
81.9878
69.7422
56.1028
41.3378
25.7092
9.44601
-7.27493
-24.3392
-41.6766
-59.1185
-76.1195
-91.9768
-106.351
-118.65
-127.634
-133.614
-137.574
-139.557
-140.381
-140.683
-140.744
-140.633
-140.238
-139.205
-136.799
-132.349
-125.781
-115.928
-103.026
-88.2734
-72.1044
-54.9375
-37.5052
-20.2414
-3.27081
13.3316
29.435
44.8475
59.3285
72.6107
84.4286
94.5469
102.777
108.98
113.061
114.96
114.647
112.127
107.439
100.651
91.8712
81.2513
68.994
55.3455
40.5749
24.9448
8.68366
-8.03267
-25.0913
-42.422
-59.8471
-76.804
-92.5978
-106.896
-119.078
-127.912
-133.8
-137.676
-139.596
-140.392
-140.685
-140.743
-140.627
-140.218
-139.151
-136.669
-132.139
-125.462
-115.457
-102.455
-87.6313
-71.4019
-54.199
-36.7546
-19.4848
-2.50889
14.0975
30.202
45.6117
60.086
73.3579
85.1634
95.2685
103.486
109.679
113.753
115.648
162.784
160.527
156.33
150.263
142.427
132.956
122.02
109.813
96.5462
82.4351
67.6879
52.5071
37.1007
21.7142
6.699
-7.42458
-20.2671
-32.0678
-42.9645
-51.6255
-56.9904
-59.3974
-60.0836
-59.9791
-59.729
-59.6397
-59.7758
-60.0327
-60.009
-59.02
-56.002
-49.8248
-40.4791
-29.3054
-17.3016
-4.15038
10.2349
25.3723
40.7782
56.1343
71.2089
85.7966
99.6932
112.688
124.564
135.114
144.147
151.504
157.058
160.717
162.421
162.14
159.879
155.677
149.603
141.758
132.278
121.333
109.119
95.8477
81.7347
66.989
51.8136
36.4177
21.0497
6.06681
-8.00479
-20.7925
-32.5553
-43.3887
-51.9182
-57.1385
-59.4448
-60.0834
-59.9626
-59.718
-59.6403
-59.7868
-60.0453
-59.9965
-58.948
-55.8132
-49.4892
-40.0268
-28.8061
-16.7602
-3.55189
10.8803
26.0455
41.4673
56.8324
71.9112
86.4992
100.393
113.382
125.25
135.791
144.815
152.163
157.71
161.364
163.065
204.646
202.596
198.79
193.298
186.225
177.704
167.896
156.986
145.171
132.654
119.639
106.325
92.9194
79.6528
66.8108
54.7669
43.9146
34.5161
26.8058
20.8602
17.1633
16.4546
17.6735
19.3775
20.4177
20.6872
20.2459
19.0038
17.2813
16.381
17.7606
22.121
28.4778
36.6198
46.3866
57.5532
69.8228
82.7885
96.1002
109.488
122.73
135.62
147.957
159.539
170.161
179.628
187.761
194.405
199.434
202.753
204.3
204.045
201.993
198.183
192.686
185.607
177.08
167.268
156.354
144.538
132.023
119.014
105.709
92.3186
79.0739
66.2642
54.2667
43.4725
34.1395
26.5045
20.6325
17.0629
16.4719
17.7442
19.4393
20.4448
20.6841
20.2118
18.9357
17.2223
16.393
17.9024
22.374
28.8027
37.0177
46.8479
58.0701
70.382
83.3767
96.7082
110.11
123.359
136.254
148.592
160.172
170.79
180.252
188.379
195.017
200.041
203.356
204.901
243.477
241.629
238.203
233.271
226.934
219.323
210.591
200.912
190.47
179.457
168.065
156.491
144.937
133.625
122.806
112.77
103.818
96.2078
90.2516
86.3711
85.2002
87.3975
91.8577
96.0749
98.7334
99.406
98.2839
95.1591
90.7162
86.5513
85.1618
87.0722
91.4932
97.8867
105.843
115.079
125.328
136.283
147.664
159.228
170.759
182.056
192.924
203.168
212.598
221.033
228.301
234.257
238.775
241.763
243.157
242.927
241.078
237.65
232.714
226.374
218.76
210.026
200.346
189.906
178.898
167.514
155.953
144.417
133.13
122.343
112.35
103.451
95.903
90.0242
86.2387
85.2004
87.5376
92.0407
96.22
98.7982
99.3973
98.1969
95.0009
90.5354
86.4481
85.2045
87.236
91.7462
98.2122
106.228
115.514
125.803
136.788
148.192
159.772
171.314
182.619
193.49
203.735
213.165
221.596
228.862
234.813
239.329
242.314
243.707
279.828
278.166
275.088
270.666
265.003
258.226
250.485
241.946
232.786
223.187
213.333
203.41
193.609
184.131
175.195
167.045
159.937
154.119
149.88
147.598
147.86
151.776
159.398
167.25
172.265
173.675
171.372
165.545
157.354
150.409
147.49
147.925
150.719
155.371
161.523
168.903
177.262
186.344
195.91
205.747
215.655
225.446
234.933
243.932
252.261
259.745
266.223
271.549
275.601
278.286
279.54
279.333
277.67
274.591
270.168
264.503
257.725
249.985
241.448
232.293
222.701
212.858
202.95
193.169
183.717
174.814
166.705
159.647
153.888
149.723
147.53
147.916
152.01
159.733
167.515
172.394
173.655
171.205
165.25
157.032
150.229
147.476
148.023
150.901
155.621
161.83
169.258
177.656
186.768
196.359
206.214
216.136
225.936
235.43
244.432
252.763
260.247
266.724
272.048
276.098
278.782
280.035
314.56
313.069
310.313
306.363
301.322
295.316
288.49
281.007
273.034
264.747
256.32
247.928
239.747
231.958
224.753
218.337
212.927
208.744
206.048
205.173
206.581
211.08
219.49
229.675
237.024
239.16
235.686
227.307
217.12
209.628
205.978
205.178
206.529
209.611
214.112
219.783
226.405
233.765
241.658
249.897
258.302
266.695
274.902
282.748
290.058
296.666
302.413
307.157
310.779
313.184
314.308
314.123
312.632
309.875
305.925
300.884
294.879
288.056
280.577
272.611
264.334
255.92
247.544
239.384
231.622
224.449
218.073
212.71
208.583
205.955
205.162
206.678
211.328
219.89
230.051
237.217
239.128
235.435
226.904
216.754
209.43
205.917
205.216
206.644
209.791
214.344
220.061
226.721
234.111
242.029
250.288
258.708
267.113
275.329
283.18
290.495
297.104
302.852
307.596
311.217
313.621
314.745
348.243
346.911
344.453
340.941
336.476
331.182
325.203
318.694
311.82
304.746
297.637
290.656
283.963
277.721
272.093
267.251
263.373
260.642
259.27
259.516
261.718
266.363
274.006
283.736
291.677
294.159
290.16
281.361
271.87
264.967
260.969
259.278
259.451
261.173
264.199
268.325
273.371
279.159
285.52
292.29
299.307
306.409
313.433
320.213
326.583
332.38
337.451
341.658
344.881
347.026
348.03
347.865
346.533
344.076
340.564
336.1
330.809
324.834
318.332
311.466
304.403
297.308
290.345
283.675
277.459
271.862
267.059
263.224
260.544
259.232
259.55
261.841
266.6
274.368
284.12
291.898
294.121
289.879
280.965
271.542
264.768
260.876
259.268
259.508
261.289
264.363
268.532
273.612
279.432
285.818
292.608
299.642
306.758
313.792
320.579
326.954
332.755
337.828
342.036
345.259
347.404
348.409
381.318
380.137
377.96
374.86
370.936
366.31
361.122
355.523
349.67
343.719
337.827
332.142
326.811
321.975
317.772
314.343
311.823
310.353
310.085
311.192
313.882
318.389
324.895
332.802
339.543
341.761
338.215
330.859
323.136
317.109
313.064
310.779
310.022
310.597
312.335
315.087
318.715
323.082
328.047
333.472
339.212
345.122
351.05
356.838
362.33
367.369
371.807
375.508
378.355
380.255
381.146
380.999
379.818
377.643
374.544
370.622
366
360.818
355.226
349.382
343.444
337.567
331.901
326.592
321.782
317.61
314.215
311.735
310.31
310.093
311.26
314.018
318.604
325.191
333.118
339.738
341.727
337.972
330.538
322.862
316.919
312.95
310.73
310.031
310.655
312.436
315.227
318.889
323.285
328.275
333.72
339.479
345.403
351.342
357.139
362.638
367.682
372.123
375.825
378.673
380.574
381.465
414.06
413.024
411.12
408.418
405.014
401.027
396.592
391.854
386.961
382.062
377.3
372.812
368.729
365.171
362.254
360.084
358.759
358.374
359.021
360.79
363.77
368.015
373.461
379.561
384.636
386.318
383.634
378.09
372.043
366.866
362.929
360.251
358.763
358.376
358.997
360.536
362.897
365.979
369.673
373.862
378.423
383.223
388.123
392.978
397.637
401.954
405.785
409
411.484
413.147
413.928
413.799
412.764
410.862
408.161
404.76
400.778
396.35
391.62
386.737
381.851
377.105
372.636
368.575
365.042
362.153
360.015
358.726
358.379
359.068
360.883
363.912
368.208
373.697
379.799
384.783
386.292
383.451
377.846
371.818
366.688
362.802
360.173
358.729
358.383
359.043
360.616
363.007
366.117
369.836
374.046
378.625
383.44
388.352
393.216
397.883
402.206
406.041
409.258
411.743
413.407
414.189
446.619
445.728
444.096
441.787
438.897
435.538
431.837
427.932
423.961
420.06
416.363
412.991
410.06
407.67
405.914
404.868
404.595
405.146
406.556
408.848
412.013
415.988
420.58
425.289
428.997
430.201
428.274
424.185
419.429
414.957
411.169
408.214
406.138
404.94
404.595
405.063
406.288
408.206
410.736
413.782
417.24
420.993
424.914
428.871
432.724
436.336
439.57
442.304
444.427
445.854
446.526
446.415
445.526
443.895
441.589
438.702
435.348
431.655
427.758
423.797
419.91
416.228
412.876
409.965
407.6
405.87
404.852
404.61
405.192
406.636
408.961
412.159
416.162
420.771
425.467
429.103
430.183
428.142
423.999
419.241
414.791
411.034
408.112
406.069
404.905
404.591
405.088
406.342
408.285
410.838
413.905
417.38
421.148
425.082
429.049
432.91
436.528
439.767
442.503
444.629
446.057
446.73
479.042
478.301
476.947
475.041
472.673
469.947
466.981
463.901
460.833
457.902
455.225
452.911
451.057
449.747
449.05
449.016
449.674
451.037
453.098
455.82
459.128
462.885
466.847
470.581
473.337
474.204
472.811
469.732
465.888
461.946
458.283
455.11
452.545
450.654
449.464
448.978
449.18
450.032
451.482
453.456
455.866
458.612
461.582
464.655
467.707
470.611
473.243
475.487
477.242
478.428
478.987
478.895
478.155
476.802
474.899
472.535
469.814
466.856
463.784
460.728
457.809
455.148
452.851
451.018
449.73
449.056
449.046
449.73
451.119
453.205
455.949
459.276
463.045
467.007
470.717
473.414
474.191
472.714
469.587
465.728
461.79
458.141
454.988
452.447
450.58
449.416
448.956
449.182
450.057
451.529
453.522
455.949
458.71
461.692
464.776
467.836
470.747
473.383
475.631
477.389
478.575
479.135
511.303
510.719
509.656
508.173
506.348
504.276
502.064
499.822
497.662
495.692
494.014
492.722
491.894
491.598
491.881
492.768
494.263
496.348
498.975
502.069
505.509
509.121
512.651
515.738
517.877
518.527
517.478
515.057
511.823
508.247
504.66
501.292
498.305
495.807
493.865
492.52
491.784
491.648
492.081
493.029
494.423
496.179
498.201
500.386
502.622
504.799
506.806
508.54
509.909
510.84
511.281
511.208
510.625
509.565
508.084
506.264
504.198
501.993
499.76
497.61
495.653
493.99
492.714
491.905
491.629
491.933
492.841
494.356
496.46
499.105
502.212
505.66
509.272
512.79
515.848
517.936
518.517
517.403
514.938
511.681
508.096
504.511
501.153
498.181
495.7
493.779
492.455
491.74
491.624
492.076
493.042
494.453
496.223
498.257
500.452
502.697
504.88
506.892
508.63
510.002
510.934
511.376
543.31
542.894
542.145
541.111
539.863
538.483
537.059
535.686
534.457
533.462
532.785
532.501
532.672
533.347
534.553
536.296
538.557
541.293
544.43
547.861
551.441
554.98
558.236
560.914
562.673
563.191
562.351
560.338
557.492
554.145
550.578
547.021
543.654
540.609
537.987
535.852
534.243
533.17
532.624
532.571
532.959
533.721
534.779
536.048
537.437
538.852
540.199
541.39
542.347
543.005
543.319
543.267
542.853
542.105
541.075
539.831
538.456
537.04
535.675
534.456
533.473
532.81
532.541
532.729
533.421
534.645
536.405
538.683
541.432
544.579
548.016
551.595
555.125
558.361
561.007
562.72
563.183
562.29
560.235
557.361
553.997
550.424
546.868
543.507
540.475
537.867
535.748
534.156
533.102
532.573
532.536
532.939
533.714
534.784
536.063
537.46
538.881
540.233
541.428
542.387
543.047
543.362
574.929
574.696
574.285
573.738
573.111
572.469
571.882
571.423
571.165
571.176
571.519
572.25
573.413
575.038
577.135
579.691
582.67
586.011
589.618
593.371
597.109
600.641
603.745
606.184
607.721
608.163
607.445
605.67
603.049
599.822
596.224
592.469
588.742
585.193
581.937
579.059
576.616
574.638
573.131
572.08
571.45
571.195
571.256
571.569
572.064
572.667
573.307
573.914
574.425
574.788
574.964
574.935
574.704
574.295
573.751
573.128
572.491
571.911
571.461
571.212
571.234
571.59
572.334
573.511
575.151
577.263
579.832
582.824
586.172
589.785
593.536
597.266
600.782
603.862
606.268
607.762
608.156
607.391
605.576
602.924
599.675
596.063
592.303
588.577
585.033
581.787
578.922
576.493
574.529
573.037
572
571.384
571.14
571.212
571.534
572.037
572.647
573.292
573.903
574.417
574.781
574.958
605.984
605.951
605.909
605.889
605.933
606.084
606.391
606.903
607.667
608.728
610.127
611.897
614.064
616.639
619.616
622.966
626.639
630.56
634.622
638.694
642.614
646.196
649.243
651.561
652.98
653.381
652.727
651.078
648.569
645.376
641.697
637.727
633.646
629.611
625.746
622.149
618.89
616.014
613.542
611.477
609.803
608.493
607.51
606.814
606.357
606.093
605.972
605.948
605.975
606.015
606.041
606.037
606.005
605.965
605.949
605.996
606.153
606.467
606.986
607.759
608.83
610.24
612.022
614.2
616.788
619.776
623.136
626.817
630.741
634.803
638.869
642.775
646.337
649.356
651.639
653.018
653.375
652.678
650.99
648.447
645.228
641.531
637.55
633.465
629.43
625.57
621.982
618.734
615.869
613.409
611.356
609.694
608.394
607.421
606.733
606.284
606.026
605.91
605.889
605.919
605.962
605.988
636.263
636.447
636.805
637.357
638.123
639.126
640.39
641.935
643.782
645.949
648.451
651.301
654.502
658.047
661.913
666.059
670.424
674.921
679.44
683.843
687.973
691.656
694.717
696.995
698.365
698.749
698.123
696.524
694.044
690.819
687.013
682.804
678.361
673.839
669.368
665.053
660.974
657.187
653.728
650.617
647.856
645.44
643.357
641.59
640.12
638.927
637.988
637.282
636.784
636.475
636.337
636.36
636.545
636.906
637.461
638.231
639.239
640.509
642.061
643.915
646.091
648.603
651.463
654.673
658.228
662.102
666.254
670.623
675.119
679.633
684.026
688.139
691.798
694.828
697.07
698.401
698.743
698.075
696.438
693.924
690.67
686.842
682.617
678.166
673.64
669.17
664.86
660.788
657.009
653.56
650.458
647.707
645.3
643.225
641.466
640.003
638.815
637.882
637.179
636.685
636.377
636.24
665.523
665.941
666.731
667.894
669.434
671.347
673.629
676.271
679.266
682.601
686.266
690.247
694.526
699.078
703.862
708.826
713.899
718.988
723.979
728.738
733.112
736.941
740.071
742.368
743.735
744.115
743.493
741.894
739.385
736.073
732.098
727.618
722.791
717.766
712.674
707.623
702.699
697.971
693.487
689.282
685.381
681.8
678.552
675.65
673.102
670.919
669.107
667.67
666.61
665.925
665.61
665.662
666.081
666.873
668.039
669.583
671.501
673.788
676.438
679.439
682.782
686.455
690.444
694.73
699.287
704.077
709.043
714.116
719.201
724.184
728.928
733.281
737.084
740.182
742.442
743.769
744.109
743.446
741.809
739.264
735.921
731.922
727.423
722.583
717.551
712.456
707.405
702.486
697.763
693.285
689.088
685.195
681.621
678.381
675.485
672.944
670.766
668.958
667.526
666.469
665.785
665.471
693.496
694.163
695.408
697.221
699.578
702.453
705.81
709.612
713.816
718.383
723.273
728.444
733.855
739.46
745.205
751.024
756.839
762.551
768.047
773.194
777.849
781.868
785.114
787.475
788.87
789.255
788.622
786.987
784.403
780.957
776.771
771.983
766.739
761.18
755.434
749.612
743.806
738.092
732.532
727.179
722.077
717.269
712.794
708.693
705.008
701.779
699.043
696.833
695.177
694.093
693.59
693.673
694.341
695.589
697.405
699.766
702.646
706.008
709.815
714.026
718.6
723.495
728.672
734.088
739.697
745.444
751.263
757.073
762.778
768.261
773.391
778.023
782.013
785.226
787.549
788.904
789.249
788.576
786.902
784.281
780.803
776.59
771.78
766.52
760.95
755.198
749.372
743.567
737.855
732.3
726.952
721.856
717.054
712.585
708.491
704.812
701.587
698.856
696.65
694.997
693.914
693.413
719.89
720.816
722.538
725.026
728.236
732.112
736.59
741.599
747.067
752.922
759.093
765.512
772.111
778.825
785.582
792.305
798.907
805.286
811.328
816.907
821.888
826.141
829.546
832.006
833.454
833.853
833.196
831.496
828.798
825.175
820.732
815.592
809.888
803.752
797.308
790.668
783.929
777.177
770.487
763.929
757.569
751.476
745.718
740.367
735.496
731.177
727.479
724.465
722.187
720.686
719.988
720.103
721.031
722.755
725.246
728.46
732.34
736.823
741.838
747.311
753.171
759.347
765.77
772.372
779.087
785.843
792.562
799.157
805.526
811.552
817.11
822.066
826.289
829.659
832.081
833.488
833.847
833.149
831.41
828.674
825.018
820.546
815.381
809.658
803.508
797.054
790.408
783.667
776.915
770.226
763.671
757.315
751.227
745.475
740.129
735.264
730.95
727.256
724.246
721.971
720.472
719.775
744.401
745.592
747.799
750.976
755.056
759.955
765.578
771.825
778.591
785.773
793.269
800.982
808.82
816.693
824.514
832.193
839.635
846.733
853.373
859.434
864.792
869.327
872.934
875.527
877.048
877.467
876.776
874.987
872.138
868.294
863.545
858.002
851.787
845.021
837.827
830.316
822.593
814.75
806.879
799.066
791.402
783.982
776.903
770.269
764.183
758.75
754.069
750.234
747.322
745.396
744.498
744.646
745.838
748.048
751.229
755.312
760.216
765.844
772.096
778.867
786.053
793.553
801.268
809.107
816.979
824.796
832.469
839.901
846.985
853.607
859.645
864.974
869.477
873.048
875.602
877.083
877.461
876.728
874.899
872.012
868.132
863.353
857.784
851.546
844.764
837.557
830.037
822.308
814.463
806.59
798.779
791.118
783.701
776.627
769.998
763.917
758.489
753.813
749.982
747.073
745.15
744.253
766.713
768.167
770.857
774.719
779.664
785.581
792.349
799.835
807.904
816.423
825.262
834.294
843.401
852.471
861.399
870.082
878.414
886.284
893.577
900.176
905.964
910.831
914.683
917.444
919.06
919.505
918.769
916.866
913.829
909.718
904.612
898.612
891.829
884.38
876.382
867.951
859.196
850.222
841.133
832.036
823.045
814.282
805.873
797.95
790.649
784.104
778.446
773.793
770.251
767.903
766.806
766.987
768.442
771.135
775.001
779.95
785.872
792.645
800.135
808.21
816.733
825.574
834.607
843.713
852.78
861.702
870.376
878.695
886.549
893.821
900.394
906.152
910.986
914.8
917.521
919.096
919.498
918.72
916.776
913.7
909.552
904.413
898.384
891.577
884.108
876.095
867.653
858.889
849.91
840.818
831.721
822.732
813.971
805.567
797.649
790.353
783.814
778.16
773.512
769.973
767.627
766.532
786.51
788.217
791.373
795.895
801.673
808.574
816.448
825.136
834.475
844.304
854.463
864.803
875.178
885.454
895.509
905.225
914.484
923.17
931.165
938.353
944.622
949.87
954.01
956.969
958.701
959.175
958.387
956.347
953.088
948.665
943.152
936.643
929.241
921.061
912.218
902.831
893.017
882.894
872.58
862.203
851.9
841.816
832.106
822.931
814.452
806.832
800.229
794.789
790.64
787.885
786.597
786.81
788.518
791.676
796.202
801.985
808.891
816.77
825.463
834.807
844.639
854.8
865.14
875.513
885.784
895.832
905.536
914.781
923.448
931.419
938.579
944.817
950.03
954.13
957.049
958.737
959.168
958.336
956.254
952.954
948.493
942.946
936.406
928.978
920.775
911.915
902.514
892.69
882.559
872.242
861.863
851.56
841.479
831.773
822.603
814.129
806.515
799.917
794.482
790.337
787.584
786.297
803.484
805.425
809.011
814.145
820.695
828.508
837.41
847.218
857.745
868.804
880.214
891.799
903.394
914.843
926.006
936.749
946.943
956.463
965.187
972.998
979.785
985.451
989.91
993.093
994.954
995.464
994.615
992.421
988.913
984.144
978.188
971.133
963.08
954.143
944.439
934.092
923.228
911.978
900.479
888.873
877.32
865.99
855.059
844.712
835.137
826.519
819.041
812.871
808.16
805.029
803.563
803.805
805.748
809.337
814.474
821.03
828.848
837.756
847.569
858.1
869.162
880.574
892.158
903.75
915.193
926.347
937.077
947.255
956.754
965.453
973.234
979.988
985.617
990.035
993.176
994.992
995.457
994.563
992.324
988.774
983.966
977.973
970.885
962.805
953.843
944.119
933.757
922.881
911.623
900.118
888.51
876.957
865.629
854.702
844.361
834.791
826.179
818.706
812.542
807.835
804.706
803.242
817.345
819.493
823.457
829.128
836.358
844.972
854.779
865.575
877.153
889.306
901.834
914.543
927.249
939.778
951.974
963.687
974.775
985.103
994.544
1002.98
1010.29
1016.38
1021.17
1024.59
1026.59
1027.13
1026.22
1023.86
1020.1
1014.97
1008.56
1000.96
992.257
982.578
972.042
960.78
948.929
936.633
924.043
911.321
898.644
886.2
874.185
862.803
852.26
842.764
834.517
827.706
822.5
819.038
817.416
817.684
819.833
823.8
829.475
836.71
845.331
855.144
865.945
877.527
889.684
902.214
914.922
927.624
940.147
952.333
964.031
975.101
985.407
994.821
1003.22
1010.5
1016.55
1021.3
1024.67
1026.62
1027.12
1026.17
1023.76
1019.95
1014.79
1008.34
1000.7
991.969
982.264
971.707
960.428
948.564
936.258
923.662
910.938
898.261
885.82
873.809
862.432
851.895
842.405
834.164
827.358
822.157
818.697
817.077
827.824
830.142
834.417
840.528
848.313
857.583
868.13
879.732
892.17
905.221
918.671
932.313
945.951
959.398
972.482
985.038
996.912
1007.96
1018.05
1027.05
1034.85
1041.34
1046.44
1050.08
1052.2
1052.79
1051.81
1049.3
1045.29
1039.83
1033
1024.89
1015.6
1005.25
993.978
981.914
969.206
956.013
942.5
928.844
915.236
901.875
888.971
876.742
865.409
855.195
846.318
838.983
833.372
829.637
827.887
828.176
830.495
834.773
840.888
848.68
857.956
868.508
880.117
892.56
905.614
919.066
932.708
946.343
959.783
972.856
985.397
997.253
1008.28
1018.34
1027.3
1035.06
1041.52
1046.57
1050.17
1052.24
1052.78
1051.76
1049.2
1045.14
1039.64
1032.77
1024.62
1015.3
1004.93
993.629
981.547
968.826
955.623
942.104
928.445
914.837
901.479
888.579
876.356
865.029
854.822
845.951
838.621
833.015
829.284
827.535
834.702
837.145
841.647
848.079
856.269
866.014
877.094
889.279
902.336
916.034
930.15
944.472
958.794
972.924
986.676
999.873
1012.35
1023.96
1034.55
1044
1052.18
1059
1064.35
1068.17
1070.4
1071.01
1069.99
1067.35
1063.14
1057.41
1050.24
1041.73
1031.97
1021.11
1009.26
996.583
983.226
969.36
955.162
940.823
926.538
912.515
898.97
886.131
874.228
863.495
854.161
846.443
840.536
836.602
834.758
835.063
837.506
842.012
848.449
856.644
866.396
877.483
889.675
902.737
916.439
930.557
944.878
959.197
973.321
987.061
1000.24
1012.7
1024.29
1034.85
1044.26
1052.41
1059.18
1064.49
1068.26
1070.44
1071
1069.93
1067.24
1062.99
1057.21
1050
1041.45
1031.67
1020.77
1008.9
996.205
982.834
968.958
954.754
940.412
926.128
912.107
898.568
885.734
873.838
863.112
853.785
846.073
840.171
836.24
834.398
837.69
840.213
844.86
851.493
859.932
869.964
881.36
893.881
907.289
921.348
935.831
950.524
965.221
979.729
993.853
1007.41
1020.23
1032.16
1043.05
1052.76
1061.18
1068.19
1073.69
1077.63
1079.92
1080.55
1079.5
1076.79
1072.45
1066.56
1059.18
1050.43
1040.4
1029.23
1017.06
1004.03
990.307
976.065
961.49
946.776
932.121
917.731
903.828
890.641
878.406
867.365
857.754
849.799
843.706
839.644
837.738
838.053
840.578
845.228
851.867
860.311
870.35
881.753
894.281
907.695
921.758
936.244
950.936
965.63
980.132
994.245
1007.79
1020.59
1032.5
1043.36
1053.03
1061.41
1068.38
1073.84
1077.72
1079.97
1080.54
1079.44
1076.68
1072.29
1066.35
1058.94
1050.14
1040.08
1028.89
1016.69
1003.64
989.907
975.656
961.075
946.359
931.705
917.319
903.421
890.239
878.012
866.978
857.374
849.426
843.337
839.279
837.375
)
;

boundaryField
{
    top
    {
        type            calculated;
        value           nonuniform List<scalar> 
102
(
837.966
840.522
845.229
851.943
860.479
870.623
882.14
894.79
908.33
922.523
937.142
951.971
966.806
981.456
995.722
1009.42
1022.37
1034.42
1045.42
1055.23
1063.74
1070.82
1076.38
1080.36
1082.68
1083.32
1082.25
1079.51
1075.13
1069.17
1061.72
1052.87
1042.74
1031.46
1019.16
1006
992.139
977.755
963.038
948.187
933.395
918.871
904.833
891.514
879.153
867.993
858.274
850.225
844.056
839.942
838.011
838.33
840.888
845.598
852.317
860.86
871.011
882.535
895.191
908.737
922.935
937.557
952.386
967.218
981.862
996.117
1009.8
1022.73
1034.75
1045.73
1055.5
1063.97
1071.01
1076.53
1080.45
1082.72
1083.31
1082.19
1079.4
1074.97
1068.96
1061.47
1052.58
1042.42
1031.11
1018.79
1005.61
991.737
977.344
962.621
947.768
932.978
918.456
904.424
891.112
878.758
867.605
857.892
849.85
843.687
839.576
837.647
)
;
    }
    bottom
    {
        type            calculated;
        value           nonuniform List<scalar> 
102
(
-38.875
-42.0027
-47.8399
-56.3442
-67.4728
-81.1923
-97.4789
-116.3
-137.585
-161.188
-186.871
-214.275
-242.902
-272.093
-300.988
-328.6
-353.943
-376.129
-394.451
-408.66
-419.014
-426.035
-430.466
-433.045
-434.336
-434.663
-434.113
-432.542
-429.568
-424.575
-416.804
-405.545
-390.341
-371.027
-347.99
-322.001
-293.974
-264.914
-235.792
-207.418
-180.412
-155.235
-132.215
-111.566
-93.4117
-77.8106
-64.7905
-54.3768
-46.6054
-41.5197
-39.1594
-39.5484
-42.682
-48.5309
-57.0531
-68.2063
-81.9579
-98.284
-117.151
-138.487
-162.143
-187.875
-215.32
-243.975
-273.17
-302.039
-329.587
-354.831
-376.883
-395.052
-409.107
-419.322
-426.231
-430.581
-433.106
-434.36
-434.657
-434.077
-432.466
-429.43
-424.347
-416.456
-405.053
-389.693
-370.228
-347.067
-320.988
-292.909
-263.831
-234.721
-206.379
-179.418
-154.292
-131.324
-110.725
-92.6156
-77.0523
-64.0626
-53.672
-45.9171
-40.8419
-38.4865
)
;
    }
    frontAndBack
    {
        type            empty;
    }
    left_cyc
    {
        type            cyclic;
    }
    right_cyc
    {
        type            cyclic;
    }
}


// ************************************************************************* //
