/*--------------------------------*- C++ -*----------------------------------*\
| =========                 |                                                 |
| \\      /  F ield         | OpenFOAM: The Open Source CFD Toolbox           |
|  \\    /   O peration     | Version:  2.3.0                                 |
|   \\  /    A nd           | Web:      www.OpenFOAM.org                      |
|    \\/     M anipulation  |                                                 |
\*---------------------------------------------------------------------------*/
FoamFile
{
    version     2.0;
    format      ascii;
    class       volScalarField;
    location    "24000";
    object      p_rgh;
}
// * * * * * * * * * * * * * * * * * * * * * * * * * * * * * * * * * * * * * //

dimensions      [0 2 -2 0 0 0 0];

internalField   nonuniform List<scalar> 
3060
(
-38.875
-42.0027
-47.8399
-56.3442
-67.4728
-81.1923
-97.4789
-116.3
-137.585
-161.188
-186.871
-214.275
-242.902
-272.093
-300.988
-328.6
-353.943
-376.129
-394.451
-408.66
-419.014
-426.035
-430.466
-433.045
-434.336
-434.663
-434.113
-432.542
-429.568
-424.575
-416.804
-405.545
-390.341
-371.027
-347.99
-322.001
-293.974
-264.914
-235.792
-207.418
-180.412
-155.235
-132.215
-111.566
-93.4117
-77.8106
-64.7905
-54.3768
-46.6054
-41.5197
-39.1594
-39.5484
-42.682
-48.5309
-57.0531
-68.2063
-81.9579
-98.284
-117.151
-138.487
-162.143
-187.875
-215.32
-243.975
-273.17
-302.039
-329.587
-354.831
-376.883
-395.052
-409.107
-419.322
-426.231
-430.581
-433.106
-434.36
-434.657
-434.077
-432.466
-429.43
-424.347
-416.456
-405.053
-389.693
-370.228
-347.067
-320.988
-292.909
-263.831
-234.721
-206.379
-179.418
-154.292
-131.324
-110.725
-92.6156
-77.0523
-64.0626
-53.672
-45.9171
-40.8419
-38.4865
-62.6411
-65.3908
-70.5436
-78.0999
-88.0652
-100.441
-115.211
-132.319
-151.654
-173.043
-196.231
-220.857
-246.406
-272.192
-297.484
-321.876
-345.12
-366.368
-384.349
-398.409
-408.826
-416.136
-421
-424.024
-425.634
-426.059
-425.353
-423.423
-419.995
-414.593
-406.586
-395.321
-380.308
-361.43
-339.577
-316.004
-291.377
-265.904
-240.113
-214.744
-190.446
-167.695
-146.822
-128.059
-111.564
-97.4331
-85.7098
-76.4042
-69.5122
-65.0284
-62.9546
-63.2961
-66.0514
-71.2154
-78.7886
-88.7772
-101.183
-115.988
-133.136
-152.514
-173.945
-197.172
-221.828
-247.39
-273.165
-298.425
-322.78
-345.97
-367.115
-384.95
-398.862
-409.149
-416.353
-421.138
-424.103
-425.668
-426.052
-425.304
-423.326
-419.835
-414.346
-406.226
-394.825
-379.66
-360.644
-338.704
-315.086
-290.422
-264.923
-239.127
-213.776
-189.512
-166.801
-145.971
-127.25
-110.795
-96.6982
-85.0031
-75.7194
-68.8431
-64.3693
-62.3001
-76.6918
-79.5639
-84.9125
-92.6785
-102.773
-115.065
-129.377
-145.498
-163.203
-182.285
-202.566
-223.903
-246.18
-269.29
-292.984
-316.396
-338.193
-357.218
-373.29
-386.915
-397.752
-405.505
-410.792
-414.219
-416.13
-416.652
-415.793
-413.529
-409.69
-403.865
-395.406
-383.817
-369.609
-352.871
-333.106
-310.797
-287.218
-263.625
-240.716
-218.677
-197.607
-177.63
-158.899
-141.599
-125.945
-112.162
-100.456
-90.9915
-83.8879
-79.2253
-77.0569
-77.4148
-80.2923
-85.651
-93.4313
-103.543
-115.855
-130.189
-146.33
-164.056
-183.156
-203.456
-224.81
-247.103
-270.228
-293.92
-317.288
-338.99
-357.891
-373.858
-387.389
-398.101
-405.746
-410.951
-414.316
-416.174
-416.643
-415.732
-413.413
-409.507
-403.594
-395.018
-383.312
-369.011
-352.16
-332.274
-309.883
-286.274
-262.687
-239.794
-217.771
-196.719
-176.761
-158.049
-140.77
-125.137
-111.375
-99.6888
-90.2416
-83.1517
-78.4983
-76.3343
-58.0947
-61.1257
-66.7493
-74.8768
-85.3846
-98.1061
-112.828
-129.298
-147.245
-166.407
-186.558
-207.527
-229.199
-251.501
-274.245
-296.805
-318.433
-338.705
-356.902
-371.627
-383.024
-391.895
-398.079
-402.156
-404.506
-405.167
-404.088
-401.331
-396.793
-389.993
-380.491
-368.41
-352.76
-333.945
-313.311
-291.412
-268.739
-246.081
-223.935
-202.441
-181.679
-161.775
-142.917
-125.344
-109.322
-95.1218
-82.9878
-73.1214
-65.6777
-60.7703
-58.4801
-58.859
-61.8954
-67.529
-75.6707
-86.1956
-98.936
-113.677
-130.165
-148.128
-167.303
-187.466
-208.444
-230.127
-252.438
-275.18
-297.709
-319.285
-339.488
-357.566
-372.134
-383.423
-392.187
-398.274
-402.279
-404.563
-405.156
-404.009
-401.186
-396.571
-389.666
-380.062
-367.858
-352.052
-333.137
-312.44
-290.491
-267.794
-245.142
-223.006
-201.523
-180.771
-160.879
-142.035
-124.479
-108.475
-94.295
-82.1799
-72.3303
-64.9001
-60.002
-57.7163
-27.6633
-30.7192
-36.3759
-44.5328
-55.0592
-67.7941
-82.5481
-99.111
-117.263
-136.789
-157.483
-179.152
-201.592
-224.557
-247.676
-270.384
-292.208
-313.246
-333.436
-351.197
-365.173
-375.392
-382.762
-387.844
-390.868
-391.741
-390.326
-386.809
-381.201
-373.222
-362.168
-347.231
-328.709
-308.23
-287.03
-264.98
-242.118
-218.994
-196.136
-173.877
-152.447
-132.044
-112.865
-95.1191
-79.025
-64.8016
-52.655
-42.7679
-35.2937
-30.355
-28.0448
-28.4276
-31.4885
-37.1545
-45.3244
-55.867
-68.6203
-83.3943
-99.9777
-118.15
-137.696
-158.409
-180.094
-202.548
-225.52
-248.631
-271.309
-293.096
-314.107
-334.236
-351.854
-365.662
-375.742
-383.012
-388.006
-390.946
-391.726
-390.22
-386.621
-380.922
-372.835
-361.63
-346.525
-327.88
-307.358
-286.13
-264.042
-241.156
-218.029
-195.18
-172.936
-151.523
-131.139
-111.98
-94.2553
-78.1819
-63.9783
-51.85
-41.9787
-34.517
-29.5869
-27.2809
4.44786
1.27859
-4.57283
-12.9871
-23.8153
-36.8819
-51.9896
-68.9274
-87.4809
-107.441
-128.612
-150.804
-173.826
-197.457
-221.399
-245.276
-268.572
-290.832
-311.549
-330.296
-346.167
-357.949
-366.205
-371.845
-375.441
-376.535
-374.779
-370.678
-364.491
-355.483
-342.716
-325.984
-306.735
-285.586
-263.031
-239.549
-215.614
-191.716
-168.218
-145.392
-123.449
-102.58
-82.9748
-64.8346
-48.3711
-33.7994
-21.3284
-11.1505
-3.43495
1.67716
4.07451
3.67658
0.502401
-5.35816
-13.7853
-24.6297
-37.7149
-52.8431
-69.8026
-88.3783
-108.361
-129.553
-151.766
-174.806
-198.45
-222.394
-246.258
-269.522
-291.734
-312.38
-331.041
-346.752
-358.363
-366.488
-372.036
-375.541
-376.517
-374.648
-370.461
-364.171
-355.022
-342.078
-325.208
-305.879
-284.666
-262.069
-238.562
-214.621
-190.725
-167.24
-144.432
-122.51
-101.663
-82.0805
-63.9625
-47.5206
-32.9693
-20.5167
-10.3546
-2.65137
2.45225
4.84541
37.3128
33.9887
27.8671
19.0895
7.82805
-5.72099
-21.3451
-38.8252
-57.9457
-78.5026
-100.308
-123.185
-146.961
-171.442
-196.389
-221.54
-246.44
-270.589
-293.333
-313.803
-330.813
-343.068
-350.982
-356.336
-359.701
-360.794
-359.068
-355.247
-349.376
-340.598
-327.134
-309.143
-288.031
-264.864
-240.476
-215.465
-190.317
-165.471
-141.152
-117.59
-94.9744
-73.4791
-53.2836
-34.5815
-17.5811
-2.50054
10.4415
21.0355
29.0908
34.4428
36.9587
36.5405
33.2114
27.0804
18.2896
7.01141
-6.55715
-22.203
-39.7066
-58.8519
-79.4344
-101.265
-124.168
-147.968
-172.469
-197.429
-222.581
-247.464
-271.574
-294.249
-314.609
-331.446
-343.493
-351.263
-356.521
-359.801
-360.775
-358.94
-355.034
-349.061
-340.113
-326.443
-308.298
-287.089
-263.863
-239.445
-214.422
-189.279
-164.447
-140.148
-116.611
-94.0205
-72.5511
-52.3811
-33.7036
-16.7265
-1.66747
11.2554
21.8332
29.8757
35.219
37.7306
68.9374
65.3959
58.8908
49.5939
37.7116
23.4745
7.12586
-11.0917
-30.948
-52.2343
-74.7683
-98.392
-122.963
-148.336
-174.339
-200.773
-227.203
-253.101
-277.773
-300.3
-319.418
-333.221
-340.776
-344.636
-346.956
-347.683
-346.535
-343.894
-339.452
-330.52
-315.236
-295.138
-271.988
-246.934
-220.842
-194.356
-167.979
-142.125
-116.941
-92.5977
-69.2389
-47.0124
-26.0832
-6.64179
11.096
26.895
40.5105
51.7011
60.2412
65.9331
68.6151
68.1687
64.6219
58.1069
48.796
36.896
22.6381
6.26611
-11.977
-31.8605
-53.1755
-75.7394
-99.3937
-123.995
-149.396
-175.424
-201.869
-228.294
-254.163
-278.772
-301.194
-320.14
-333.681
-341.011
-344.775
-347.027
-347.669
-346.441
-343.734
-339.165
-329.978
-314.455
-294.206
-270.964
-245.859
-219.745
-193.259
-166.898
-141.069
-115.915
-91.601
-68.2725
-46.0756
-25.1749
-5.76041
11.9522
27.7281
41.3233
52.4967
61.0234
66.7059
69.3835
98.6266
94.7934
87.7705
77.7699
65.0457
49.879
32.5604
13.3726
-7.42549
-29.6105
-53.0005
-77.4553
-102.867
-129.146
-156.196
-183.848
-211.701
-239.224
-265.701
-290.172
-311.379
-327.571
-336.871
-340.315
-341.454
-341.774
-341.277
-339.84
-335.313
-324.273
-306.671
-284.53
-259.463
-232.643
-204.97
-177.11
-149.559
-122.694
-96.6216
-71.4381
-47.2395
-24.1424
-2.29903
18.0967
36.81
53.5735
68.1003
80.1001
89.2971
95.447
98.3515
97.8676
94.0288
86.9952
76.9794
64.2361
49.047
31.7032
12.4878
-8.34015
-30.5569
-53.9808
-78.471
-103.919
-130.234
-157.318
-184.993
-212.851
-240.355
-266.778
-291.15
-312.194
-328.134
-337.136
-340.409
-341.492
-341.765
-341.224
-339.713
-334.968
-323.627
-305.801
-283.517
-258.364
-231.501
-203.816
-175.967
-148.442
-121.612
-95.5757
-70.4285
-46.2648
-23.201
-1.38894
18.9774
37.6634
54.4021
68.907
80.8882
90.0706
96.2105
99.11
126.243
122.027
114.322
103.39
89.5509
73.155
54.5606
34.1096
12.1067
-11.1968
-35.6111
-61.0094
-87.3199
-114.509
-142.557
-171.313
-200.421
-229.376
-257.466
-283.735
-306.945
-325.533
-337.741
-343.235
-344.722
-344.949
-344.56
-342.439
-335.479
-321.599
-301.727
-277.64
-250.817
-222.427
-193.365
-164.288
-135.662
-107.816
-80.8343
-54.7383
-29.5718
-5.42108
17.5695
39.1924
59.1797
77.2144
92.947
106.018
116.083
122.837
126.032
125.5
121.278
113.56
102.612
88.7522
72.3319
53.7102
33.2294
11.1942
-12.1439
-36.5953
-62.0334
-88.3859
-115.618
-143.709
-172.497
-201.621
-230.565
-258.611
-284.789
-307.847
-326.207
-338.123
-343.373
-344.756
-344.942
-344.505
-342.244
-335.01
-320.849
-300.773
-276.552
-249.653
-221.228
-192.165
-163.108
-134.516
-106.715
-79.7758
-53.7213
-28.5937
-4.47945
18.4771
40.0682
60.0261
78.0338
93.7425
106.793
116.843
123.585
126.775
152.131
147.429
138.851
126.727
111.457
93.4823
73.2517
51.1873
27.658
2.95886
-22.7012
-49.2016
-76.5014
-104.621
-133.61
-163.336
-193.501
-223.644
-253.087
-280.901
-305.897
-326.655
-341.677
-350.214
-353.604
-354.277
-353.131
-348.739
-338.672
-322.143
-300.216
-274.408
-246.088
-216.386
-186.169
-156.058
-126.473
-97.682
-69.7511
-42.6332
-16.3225
9.11953
33.5481
56.7294
78.3461
98.0114
115.292
129.738
140.915
148.438
152.003
151.409
146.7
138.109
125.966
110.673
92.6723
72.4122
50.3156
26.7518
2.01551
-23.6846
-50.2281
-77.5745
-105.743
-134.782
-164.547
-194.736
-224.878
-254.286
-282.019
-306.875
-327.428
-342.185
-350.461
-353.682
-354.265
-353.014
-348.422
-338.083
-321.302
-299.19
-273.259
-244.872
-215.145
-184.934
-154.853
-125.31
-96.5689
-68.6865
-41.6142
-15.3458
10.0572
34.4493
57.5966
79.1815
98.8176
116.072
130.496
141.654
149.165
152.725
176.845
171.544
161.89
148.289
131.243
111.307
89.0411
64.9702
39.5473
13.1276
-14.0468
-41.8508
-70.2668
-99.3607
-129.237
-159.792
-190.798
-221.853
-252.327
-281.337
-307.752
-330.259
-347.53
-358.709
-364.225
-365.55
-363.349
-356.593
-343.926
-325.28
-301.697
-274.529
-245.057
-214.354
-183.243
-152.296
-121.869
-92.1606
-63.2163
-34.93
-7.25495
19.7633
45.9678
71.0839
94.7268
116.42
135.624
151.774
164.326
172.799
176.819
176.149
170.84
161.171
147.55
130.479
110.513
88.2155
64.1102
38.6505
12.1917
-15.0248
-42.8745
-71.3403
-100.487
-130.417
-161.017
-192.054
-223.116
-253.563
-282.5
-308.788
-331.109
-348.139
-359.059
-364.362
-365.528
-363.156
-356.17
-343.243
-324.368
-300.615
-273.337
-243.806
-213.087
-181.989
-151.077
-120.699
-91.044
-62.1519
-33.914
-6.2836
20.6935
46.8595
71.9394
95.5482
117.21
136.385
152.51
165.042
173.501
177.514
201.004
194.991
184.052
168.685
149.513
127.222
102.508
76.0201
48.3128
19.8188
-9.17085
-38.5137
-68.2042
-98.3459
-129.061
-160.311
-191.945
-223.625
-254.776
-284.569
-311.941
-335.661
-354.496
-367.528
-374.645
-376.5
-373.449
-364.954
-350.474
-330.352
-305.626
-277.548
-247.321
-215.956
-184.22
-152.628
-121.469
-90.8574
-60.8096
-31.1767
-1.88371
27.0275
55.3733
82.8224
108.905
133.035
154.546
172.737
186.932
196.537
201.096
200.338
194.316
183.361
167.971
148.77
126.448
101.699
75.174
47.4279
18.8931
-10.14
-39.5299
-69.2718
-99.4692
-130.239
-161.538
-193.206
-224.899
-256.028
-285.758
-313.013
-336.56
-355.172
-367.951
-374.827
-376.47
-373.2
-364.457
-349.729
-329.396
-304.512
-276.333
-246.055
-214.679
-182.962
-151.41
-120.3
-89.7447
-59.7511
-30.1682
-0.921029
27.9477
56.2533
83.6641
109.71
133.806
155.285
173.449
187.621
197.211
201.762
225.187
218.355
205.934
188.527
166.894
141.875
114.319
85.0145
54.6369
23.7107
-7.40736
-38.5412
-69.6824
-100.954
-132.486
-164.32
-196.387
-228.418
-259.885
-290.029
-317.859
-342.223
-361.956
-376.082
-384.182
-386.376
-382.785
-373.23
-357.684
-336.727
-311.406
-282.902
-252.336
-220.649
-188.54
-156.479
-124.676
-93.1645
-61.8995
-30.7208
0.460404
31.5914
62.4458
92.6188
121.541
148.499
172.681
193.233
209.325
220.235
225.415
224.553
217.712
205.272
187.84
166.176
141.122
113.528
84.1839
53.7655
22.7971
-8.36481
-39.5456
-70.7379
-102.065
-133.651
-165.535
-197.639
-229.684
-261.134
-291.22
-318.941
-343.144
-362.666
-376.545
-384.392
-386.341
-382.501
-372.693
-356.907
-335.752
-310.285
-281.686
-251.074
-219.38
-187.293
-155.273
-123.52
-92.0614
-60.852
-29.7234
1.41187
32.4998
63.3126
93.4452
122.328
149.248
173.396
193.916
209.984
220.876
226.048
249.889
242.141
228.065
208.379
183.996
155.926
125.184
92.7126
59.3172
25.6237
-7.92426
-41.0997
-73.8738
-106.368
-138.719
-171.054
-203.39
-235.547
-266.983
-297.047
-324.84
-349.297
-369.32
-383.944
-392.554
-394.934
-391.046
-380.952
-364.948
-343.749
-318.372
-289.92
-259.426
-227.738
-195.459
-163.075
-130.693
-98.266
-65.6578
-32.7288
0.606637
34.2702
67.9727
101.219
133.33
163.456
190.625
213.813
232.025
244.393
250.266
249.291
241.532
227.435
207.721
183.304
155.195
124.412
91.8989
58.4606
24.7236
-8.8678
-42.0889
-74.9118
-107.457
-139.861
-172.244
-204.619
-236.788
-268.207
-298.217
-325.908
-350.214
-370.037
-384.424
-392.778
-394.896
-390.748
-380.4
-364.167
-342.782
-317.267
-288.726
-258.189
-226.492
-194.238
-161.893
-129.56
-97.1843
-64.6271
-31.7459
1.54491
35.1659
68.8252
102.029
134.098
164.183
191.314
214.467
232.652
245
250.864
275.506
266.763
250.892
228.744
201.395
170.034
135.851
99.9483
63.2651
26.5205
-9.72104
-45.1649
-79.748
-113.562
-146.759
-179.536
-211.97
-243.939
-275.05
-304.706
-332.093
-356.24
-376.123
-390.801
-399.566
-402.015
-398.017
-387.772
-371.754
-350.738
-325.699
-297.657
-267.555
-236.157
-204.006
-171.434
-138.509
-105.118
-71.0496
-36.1804
-0.4543
36.0145
72.845
109.434
144.997
178.542
208.931
234.963
255.468
269.418
276.046
274.946
266.19
250.297
228.117
200.731
169.328
135.1
99.1527
62.4245
25.6338
-10.6488
-46.1359
-80.7641
-114.625
-147.868
-180.689
-213.156
-245.137
-276.232
-305.836
-333.128
-357.133
-376.828
-391.279
-399.792
-401.977
-397.716
-387.225
-370.989
-349.797
-324.629
-296.504
-266.36
-234.955
-202.824
-170.289
-137.407
-104.062
-70.0399
-35.2146
0.46916
36.8974
73.682
110.226
145.744
179.244
209.592
235.586
256.06
269.989
276.606
302.348
292.545
274.785
250.066
219.636
184.863
147.11
107.638
67.5283
27.6344
-11.4228
-49.2793
-85.8015
-121.026
-155.127
-188.355
-220.843
-252.536
-283.147
-312.165
-338.875
-362.406
-381.824
-396.234
-404.903
-407.34
-403.361
-393.243
-377.537
-357.025
-332.62
-305.252
-275.757
-244.805
-212.851
-180.125
-146.633
-112.205
-76.5792
-39.6354
-1.37693
38.0051
78.0742
118.144
157.294
194.384
228.113
257.104
280.007
295.628
303.063
301.828
292.01
274.225
249.472
219.001
184.182
146.382
106.863
66.7063
26.7677
-12.3314
-50.2288
-86.7915
-122.056
-156.197
-189.462
-221.977
-253.68
-284.274
-313.242
-339.862
-363.26
-382.501
-396.697
-405.124
-407.302
-403.068
-392.714
-376.803
-356.126
-331.6
-304.153
-274.618
-243.657
-211.718
-179.023
-145.568
-111.181
-75.5939
-38.6897
-0.471493
38.869
78.8935
118.917
158.019
195.061
228.744
257.694
280.563
296.16
303.582
330.681
319.8
300.149
272.882
239.416
201.288
160.02
117.015
73.4807
30.3836
-11.5704
-51.9362
-90.5017
-127.232
-162.325
-196.069
-228.641
-260.048
-290.088
-318.347
-344.216
-366.937
-385.672
-399.601
-408.01
-410.382
-406.506
-396.695
-381.519
-361.723
-338.142
-311.598
-282.819
-252.37
-220.611
-187.691
-153.557
-117.999
-80.7195
-41.5998
-0.718117
41.6535
84.9984
128.537
171.23
211.808
248.823
280.733
306.019
323.318
331.578
330.203
319.307
299.629
272.324
238.813
200.636
159.317
116.262
72.6798
29.5378
-12.4576
-52.8618
-91.463
-128.225
-163.352
-197.126
-229.719
-261.13
-291.151
-319.361
-345.145
-367.74
-386.312
-400.04
-408.221
-410.346
-406.227
-396.194
-380.826
-360.877
-337.182
-310.563
-281.744
-251.282
-219.533
-186.637
-152.533
-117.009
-79.761
-40.6763
0.167379
42.4976
85.7972
129.287
171.93
212.456
249.422
281.287
306.536
323.809
332.055
360.734
348.831
327.401
297.753
261.462
220.211
175.658
129.324
82.5254
36.3241
-8.48493
-51.369
-92.0275
-130.34
-166.529
-200.896
-233.645
-264.831
-294.329
-321.816
-346.793
-368.617
-386.561
-399.893
-407.951
-410.228
-406.502
-397.099
-382.567
-363.592
-340.91
-315.234
-287.174
-257.188
-225.549
-192.336
-157.453
-120.666
-81.6631
-40.3294
3.17005
48.474
94.978
141.811
187.834
231.668
271.739
306.368
333.884
352.765
361.81
360.302
348.382
326.923
297.235
260.895
219.592
174.984
128.598
81.7488
35.5015
-9.34854
-52.2687
-92.9583
-131.296
-167.511
-201.9
-234.662
-265.848
-295.324
-322.762
-347.657
-369.364
-387.156
-400.302
-408.148
-410.194
-406.241
-396.631
-381.923
-362.805
-340.016
-314.268
-286.166
-256.165
-224.529
-191.332
-156.472
-119.711
-80.7328
-39.4298
4.0335
49.296
95.7534
142.535
188.505
232.283
272.301
306.883
334.358
353.212
362.242
392.676
379.877
356.906
325.21
286.495
242.564
195.173
145.932
96.2356
47.2235
-0.229537
-45.5048
-88.2092
-128.126
-165.494
-200.602
-233.659
-264.754
-293.819
-320.618
-344.754
-365.699
-382.842
-395.547
-403.223
-405.393
-401.835
-392.871
-379.01
-360.859
-339.051
-314.182
-286.75
-257.112
-225.462
-191.826
-156.082
-117.995
-77.2657
-33.7871
12.1797
60.1816
109.529
159.272
208.195
254.834
297.528
334.49
363.927
384.183
393.919
392.291
379.475
356.474
324.735
285.97
241.982
194.534
145.237
95.4874
46.4279
-1.06638
-46.3762
-89.1078
-129.044
-166.431
-201.554
-234.618
-265.706
-294.745
-321.494
-345.552
-366.388
-383.39
-395.924
-403.405
-405.361
-401.594
-392.441
-378.417
-360.133
-338.224
-313.285
-285.81
-256.152
-224.498
-190.872
-155.144
-117.075
-76.365
-32.9137
13.0181
60.9779
110.277
159.966
208.831
255.412
298.049
334.961
364.356
384.582
394.302
426.621
413.131
388.992
355.761
315.242
269.312
219.785
168.319
116.351
65.0705
15.4122
-31.9303
-76.4751
-117.908
-156.464
-192.392
-225.883
-257.037
-285.827
-312.085
-335.509
-355.678
-372.088
-384.206
-391.516
-393.581
-390.186
-381.641
-368.404
-350.998
-329.954
-305.758
-278.801
-249.355
-217.548
-183.375
-146.708
-107.335
-64.9984
-19.6125
28.4657
78.6971
130.321
182.33
233.46
282.204
326.851
365.553
396.434
417.738
428.008
426.288
412.781
388.61
355.335
314.762
268.773
219.186
167.661
115.637
64.3074
14.607
-32.7694
-77.3391
-118.787
-157.357
-193.293
-226.785
-257.926
-286.686
-312.894
-336.243
-356.309
-372.59
-384.551
-391.682
-393.552
-389.965
-381.246
-367.86
-350.332
-329.193
-304.928
-277.927
-248.455
-216.639
-182.468
-145.81
-106.451
-64.1294
-18.7689
29.2743
79.4621
131.035
182.987
234.056
282.739
327.327
365.976
396.813
418.086
428.34
462.638
448.745
423.953
389.893
348.42
301.436
250.763
198.055
144.751
92.0525
40.9242
-7.88859
-53.8311
-96.5005
-136.1
-172.81
-206.781
-238.099
-266.755
-292.633
-315.503
-335.037
-350.831
-362.442
-369.431
-371.405
-368.152
-359.97
-347.267
-330.485
-310.058
-286.373
-259.736
-230.347
-198.294
-163.557
-126.031
-85.5516
-41.9319
4.87661
54.4306
106.123
159.146
212.468
264.816
314.684
360.36
399.986
431.653
453.55
464.138
462.361
448.45
423.625
389.52
347.992
300.948
250.212
197.442
144.08
91.3301
40.1582
-8.6887
-54.6554
-97.3386
-136.949
-173.664
-207.63
-238.93
-267.553
-293.38
-316.177
-335.615
-351.289
-362.757
-369.583
-371.378
-367.949
-359.61
-346.77
-329.874
-309.357
-285.606
-258.922
-229.504
-197.436
-162.696
-125.175
-84.7056
-41.0988
5.6844
55.2021
106.848
159.818
213.08
265.364
315.168
360.784
400.355
431.978
453.843
464.414
500.756
486.83
462.043
428.056
386.718
339.9
289.374
236.741
183.389
130.488
78.9913
29.6621
-16.9031
-60.2377
-100.477
-137.709
-172.019
-203.457
-232.011
-257.591
-280.018
-299.034
-314.317
-325.505
-332.224
-334.119
-330.985
-323.109
-310.851
-294.582
-274.655
-251.378
-224.989
-195.644
-163.41
-128.283
-90.1965
-49.0604
-4.78355
42.6237
92.6581
144.676
197.86
251.194
303.444
353.156
398.672
438.178
469.794
491.702
502.324
500.538
486.595
461.775
427.742
386.35
339.47
288.881
236.184
182.772
129.817
78.2758
28.9121
-17.6769
-61.0289
-101.28
-138.515
-172.816
-204.234
-232.753
-258.28
-280.637
-299.563
-314.736
-325.792
-332.363
-334.094
-330.8
-322.78
-310.397
-294.022
-274.01
-250.667
-224.231
-194.854
-162.603
-127.468
-89.3842
-48.2575
-3.99448
43.3857
93.3813
145.35
198.478
251.75
303.935
353.582
399.036
438.488
470.059
491.935
502.541
540.963
527.453
503.466
470.638
430.753
385.59
336.813
285.913
234.177
182.693
132.356
83.9001
37.9181
-5.10863
-45.2015
-82.3398
-116.528
-147.762
-176.007
-201.173
-223.111
-241.609
-256.403
-267.194
-273.663
-275.485
-272.462
-264.87
-253.03
-237.257
-217.841
-195.034
-169.031
-139.965
-107.911
-72.8937
-34.911
6.03997
49.9353
96.6864
145.773
196.56
248.269
299.948
350.451
398.429
442.336
480.464
511.017
532.232
542.547
540.809
527.282
503.263
470.391
430.452
385.229
336.389
285.425
233.629
182.089
131.706
83.2158
37.2179
-5.84215
-45.9506
-83.0919
-117.271
-148.484
-176.693
-201.809
-223.679
-242.093
-256.785
-267.456
-273.789
-275.462
-272.293
-264.57
-252.615
-236.744
-217.249
-194.378
-168.328
-139.23
-107.157
-72.1316
-34.1513
6.78884
50.6667
97.3872
146.432
197.168
248.818
300.434
350.872
398.786
442.633
480.708
511.217
532.402
542.701
583.215
570.635
548.36
517.936
481.02
439.239
394.091
346.905
298.815
250.777
203.578
157.87
114.195
72.9435
34.2891
-1.64774
-34.788
-65.0669
-92.4091
-116.71
-137.826
-155.572
-169.72
-180.016
-186.181
-187.918
-185.03
-177.786
-166.477
-151.376
-132.73
-110.755
-85.6253
-57.4739
-26.3967
7.53526
44.2544
83.6698
125.637
169.977
216.211
263.772
311.969
359.97
406.767
451.168
491.791
527.092
555.423
575.138
584.751
583.128
570.533
548.228
517.763
480.797
438.958
393.75
346.502
298.352
250.258
203.01
157.262
113.557
72.2777
33.6069
-2.33443
-35.4671
-65.7258
-93.0344
-117.288
-138.342
-156.009
-170.065
-180.253
-186.296
-187.897
-184.877
-177.515
-166.102
-150.912
-132.192
-110.158
-84.9844
-56.8025
-25.7073
8.23081
44.9452
84.346
126.29
170.595
216.784
264.292
312.431
360.37
407.104
451.444
492.01
527.261
555.551
575.239
584.837
627.428
616.345
596.776
570.117
537.833
501.338
461.914
420.677
378.569
336.364
294.695
254.072
214.915
177.514
142.19
109.16
78.5788
50.5682
25.2437
2.73221
-16.817
-33.2283
-46.2995
-55.8047
-61.4965
-63.1
-60.427
-53.7347
-43.2887
-29.3297
-12.0769
8.27468
31.5567
57.6265
86.3606
117.643
151.342
187.286
225.223
264.883
305.901
347.835
390.142
432.149
473.035
511.81
547.305
578.194
603.036
620.37
628.848
627.414
616.317
596.722
570.027
537.698
501.151
461.671
420.378
378.213
335.954
294.234
253.567
214.373
176.943
141.599
108.562
77.9851
49.9907
24.6949
2.225
-17.2694
-33.6124
-46.602
-56.0126
-61.5974
-63.0816
-60.2927
-53.4967
-42.9595
-28.9224
-11.6048
8.79843
32.119
58.2147
86.9626
118.247
151.937
187.862
225.768
265.389
306.361
348.244
390.494
432.444
473.273
511.992
547.437
578.281
603.087
620.397
628.862
673.497
664.498
648.671
627.19
601.266
572.044
540.545
507.634
474.022
440.272
406.821
373.996
342.036
311.084
281.568
253.772
227.893
204.087
182.493
163.252
146.514
132.447
121.231
113.065
108.169
106.787
109.094
114.853
123.827
135.805
150.593
168.014
187.905
210.119
234.516
260.953
289.264
319.225
350.513
382.791
415.875
449.503
483.318
516.848
549.49
580.489
608.933
633.762
653.8
667.836
674.728
673.559
664.549
648.701
627.19
601.229
571.964
540.418
507.459
473.797
439.998
406.5
373.63
341.628
310.644
281.107
253.299
227.419
203.622
182.049
162.84
146.146
132.133
120.983
112.894
108.085
106.802
109.204
115.048
124.096
136.138
150.978
168.439
188.359
210.591
234.995
261.429
289.726
319.663
350.914
383.151
416.191
449.771
483.537
517.018
549.612
580.565
608.967
633.759
653.768
667.783
674.664
721.282
714.95
703.884
688.971
671.102
651.104
629.692
607.453
584.841
562.191
539.728
517.574
495.755
474.221
453.448
433.723
415.237
398.135
382.545
368.591
356.403
346.12
337.892
331.88
328.26
327.234
328.949
333.205
339.809
348.591
359.393
372.069
386.482
402.504
420.009
438.865
458.917
479.947
501.62
523.582
545.877
568.455
591.165
613.752
635.848
656.962
676.469
693.619
707.561
717.394
722.253
721.426
715.085
704.005
689.069
671.173
651.144
629.698
607.422
584.772
562.084
539.581
517.387
495.525
473.959
453.163
433.423
414.93
397.829
382.248
368.311
356.15
345.903
337.719
331.76
328.201
327.245
329.027
333.341
339.996
348.82
359.655
372.356
386.785
402.814
420.318
439.165
459.198
480.201
501.834
523.758
546.015
568.555
591.227
613.777
635.838
656.918
676.395
693.519
707.439
717.257
722.109
770.658
767.531
762.168
755.096
746.83
737.824
728.449
718.984
709.618
700.454
691.513
682.728
673.926
664.852
655.931
647.366
639.267
631.708
624.752
618.462
612.908
608.168
604.327
601.483
599.744
599.244
600.08
602.12
605.237
609.328
614.298
620.063
626.548
633.686
641.413
649.663
658.354
667.352
676.401
685.213
694.063
703.094
712.347
721.78
731.265
740.588
749.446
757.44
764.095
768.889
771.301
770.887
767.755
762.384
755.301
747.02
737.996
728.602
719.117
709.728
700.54
691.573
682.758
673.92
664.82
655.877
647.294
639.181
631.613
624.652
618.363
612.814
608.083
604.257
601.432
599.718
599.248
600.113
602.176
605.312
609.416
614.394
620.163
626.647
633.779
641.495
649.731
658.402
667.374
676.387
685.169
693.993
703.001
712.232
721.643
731.108
740.413
749.254
757.234
763.878
768.664
771.072
821.399
821.948
823.104
824.97
827.612
831.059
835.293
840.259
845.865
851.989
858.476
865.137
871.7
877.79
883.597
889.114
894.29
899.06
903.365
907.152
910.377
913.008
915.026
916.423
917.211
917.417
917.072
916.136
914.586
912.417
909.638
906.273
902.357
897.935
893.062
887.8
882.21
876.334
870.134
863.526
856.904
850.509
844.524
839.092
834.328
830.314
827.097
824.68
823.025
822.053
821.656
821.716
822.265
823.421
825.285
827.927
831.372
835.605
840.569
846.171
852.289
858.769
865.418
871.961
878.037
883.827
889.328
894.485
899.236
903.52
907.284
910.486
913.094
915.088
916.463
917.228
917.413
917.047
916.088
914.515
912.322
909.52
906.133
902.194
897.752
892.86
887.579
881.972
876.079
869.857
863.236
856.605
850.205
844.215
838.78
834.014
829.999
826.781
824.364
822.708
821.736
821.339
)
;

boundaryField
{
    top
    {
        type            fixedFluxPressure;
        gradient        nonuniform List<scalar> 
102
(
1582.64
1703.07
1916.06
2206.99
2560.64
2962.46
3399.43
3860.44
4336.48
4820.69
5308.55
5798.66
6294.97
6808.56
7316.09
7806.7
8273.3
8710.09
9111.81
9473.45
9790.15
10057.2
10270.1
10424.6
10516.8
10542.5
10499.4
10391
10221
9993.7
9713.27
9384.3
9011.52
8599.85
8154.37
7680.5
7184.35
6673.9
6162.84
5668.24
5178.11
4690.29
4207.17
3733.97
3278.14
2849.33
2459.21
2121.31
1850.48
1661.95
1569.89
1585.45
1706
1919.24
2210.52
2564.6
2966.91
3404.4
3865.97
4342.58
4827.37
5315.85
5806.67
6304
6818.15
7325.99
7816.71
8283.22
8719.7
9120.91
9481.81
9797.55
10063.4
10275
10427.9
10518.3
10542.2
10497.3
10387.2
10215.7
9987.07
9705.52
9375.64
9002.18
8590.05
8144.33
7670.43
7174.47
6664.5
6154.46
5660.53
5170.97
4683.71
4201.14
3728.49
3273.21
2844.92
2455.28
2117.8
1847.32
1659.03
1567.09
)
;
        value           nonuniform List<scalar> 
102
(
847.776
850.332
855.039
861.753
870.289
880.433
891.95
904.6
918.14
932.333
946.952
961.781
976.616
991.266
1005.53
1019.23
1032.18
1044.23
1055.23
1065.04
1073.55
1080.63
1086.19
1090.17
1092.49
1093.13
1092.06
1089.32
1084.94
1078.98
1071.53
1062.68
1052.55
1041.27
1028.97
1015.81
1001.95
987.565
972.848
957.997
943.205
928.681
914.643
901.324
888.963
877.803
868.084
860.035
853.866
849.752
847.821
848.14
850.698
855.408
862.127
870.67
880.821
892.345
905.001
918.547
932.745
947.367
962.196
977.028
991.672
1005.93
1019.61
1032.54
1044.56
1055.54
1065.31
1073.78
1080.82
1086.34
1090.26
1092.53
1093.12
1092
1089.21
1084.78
1078.77
1071.28
1062.39
1052.23
1040.92
1028.6
1015.42
1001.55
987.154
972.431
957.578
942.788
928.266
914.234
900.922
888.568
877.415
867.702
859.66
853.497
849.386
847.457
)
;
    }
    bottom
    {
        type            fixedFluxPressure;
        gradient        nonuniform List<scalar> 
102
(
0
0
0
0
0
0
0
0
0
0
0
0
0
0
0
0
0
0
0
0
0
0
0
0
0
0
0
0
0
0
0
0
0
0
0
0
0
0
0
0
0
0
0
0
0
0
0
0
0
0
0
0
0
0
0
0
0
0
0
0
0
0
0
0
0
0
0
0
0
0
0
0
0
0
0
0
0
0
0
0
0
0
0
0
0
0
0
0
0
0
0
0
0
0
0
0
0
0
0
0
0
-1.64229e-14
)
;
        value           nonuniform List<scalar> 
102
(
-38.875
-42.0027
-47.8399
-56.3442
-67.4728
-81.1923
-97.4789
-116.3
-137.585
-161.188
-186.871
-214.275
-242.902
-272.093
-300.988
-328.6
-353.943
-376.129
-394.451
-408.66
-419.014
-426.035
-430.466
-433.045
-434.336
-434.663
-434.113
-432.542
-429.568
-424.575
-416.804
-405.545
-390.341
-371.027
-347.99
-322.001
-293.974
-264.914
-235.792
-207.418
-180.412
-155.235
-132.215
-111.566
-93.4117
-77.8106
-64.7905
-54.3768
-46.6054
-41.5197
-39.1594
-39.5484
-42.682
-48.5309
-57.0531
-68.2063
-81.9579
-98.284
-117.151
-138.487
-162.143
-187.875
-215.32
-243.975
-273.17
-302.039
-329.587
-354.831
-376.883
-395.052
-409.107
-419.322
-426.231
-430.581
-433.106
-434.36
-434.657
-434.077
-432.466
-429.43
-424.347
-416.456
-405.053
-389.693
-370.228
-347.067
-320.988
-292.909
-263.831
-234.721
-206.379
-179.418
-154.292
-131.324
-110.725
-92.6156
-77.0523
-64.0626
-53.672
-45.9171
-40.8419
-38.4865
)
;
    }
    frontAndBack
    {
        type            empty;
    }
    left_cyc
    {