/*--------------------------------*- C++ -*----------------------------------*\
| =========                 |                                                 |
| \\      /  F ield         | OpenFOAM: The Open Source CFD Toolbox           |
|  \\    /   O peration     | Version:  2.3.0                                 |
|   \\  /    A nd           | Web:      www.OpenFOAM.org                      |
|    \\/     M anipulation  |                                                 |
\*---------------------------------------------------------------------------*/
FoamFile
{
    version     2.0;
    format      ascii;
    class       volScalarField;
    location    "24000";
    object      p_rgh;
}
// * * * * * * * * * * * * * * * * * * * * * * * * * * * * * * * * * * * * * //

dimensions      [0 2 -2 0 0 0 0];

internalField   nonuniform List<scalar> 
3060
(
-38.8585
-42.1162
-48.1853
-57.0046
-68.5059
-82.6297
-99.3314
-118.569
-140.272
-164.304
-190.433
-218.318
-247.478
-277.264
-306.803
-335.042
-360.918
-383.54
-402.19
-416.534
-426.845
-433.684
-437.864
-440.208
-441.34
-441.619
-441.139
-439.743
-437.002
-432.231
-424.589
-413.301
-397.879
-378.171
-354.649
-328.08
-299.401
-269.701
-240.001
-211.115
-183.647
-158.04
-134.607
-113.553
-94.9935
-78.9898
-65.5818
-54.8177
-46.7602
-41.4769
-39.0236
-39.4313
-42.6943
-48.7734
-57.6079
-69.13
-83.2808
-100.016
-119.293
-141.04
-165.116
-191.29
-219.212
-248.398
-278.192
-307.71
-335.894
-361.683
-384.191
-402.705
-416.913
-427.101
-433.842
-437.953
-440.252
-441.356
-441.615
-441.114
-439.685
-436.894
-432.045
-424.297
-412.881
-397.321
-377.481
-353.852
-327.205
-298.482
-268.769
-239.082
-210.226
-182.798
-157.236
-133.849
-112.837
-94.316
-78.3442
-64.9619
-54.2175
-46.1742
-40.9
-38.4512
-66.7662
-69.4463
-74.4734
-81.8597
-91.6298
-103.812
-118.42
-135.424
-154.726
-176.146
-199.411
-224.134
-249.77
-275.609
-300.96
-325.557
-349.215
-370.999
-389.441
-403.713
-414.195
-421.515
-426.379
-429.402
-431.009
-431.429
-430.718
-428.781
-425.342
-419.92
-411.873
-400.489
-385.174
-365.762
-343.371
-319.424
-294.633
-269.108
-243.254
-217.798
-193.415
-170.606
-149.728
-131.028
-114.665
-100.718
-89.2008
-80.0939
-73.3682
-69.0017
-66.9856
-67.3202
-70.0049
-75.0411
-82.4416
-92.2314
-104.439
-119.078
-136.117
-155.456
-176.913
-200.211
-224.958
-250.604
-276.432
-301.76
-326.331
-349.949
-371.649
-389.961
-404.1
-414.468
-421.698
-426.496
-429.468
-431.037
-431.423
-430.677
-428.699
-425.205
-419.71
-411.566
-400.064
-384.611
-365.078
-342.618
-318.638
-293.823
-268.276
-242.418
-216.976
-192.62
-169.846
-149.006
-130.343
-114.014
-100.096
-88.6035
-79.5151
-72.8025
-68.4443
-66.432
-81.486
-84.3795
-89.767
-97.5917
-107.766
-120.156
-134.576
-150.79
-168.545
-187.601
-207.757
-228.851
-250.774
-273.475
-296.86
-320.216
-342.063
-361.264
-377.96
-392.378
-403.682
-411.497
-416.693
-420.035
-421.893
-422.396
-421.553
-419.34
-415.579
-409.809
-401.186
-388.992
-373.965
-356.691
-336.796
-314.426
-290.96
-267.723
-245.224
-223.517
-202.664
-182.79
-164.067
-146.708
-130.962
-117.08
-105.286
-95.7547
-88.6048
-83.9145
-81.7349
-82.0977
-84.9959
-90.3922
-98.2294
-108.419
-120.827
-135.264
-151.496
-169.266
-188.336
-208.505
-229.61
-251.544
-274.256
-297.647
-320.973
-342.739
-361.847
-378.468
-392.802
-403.984
-411.698
-416.824
-420.114
-421.929
-422.389
-421.503
-419.244
-415.428
-409.58
-400.845
-388.537
-373.433
-356.079
-336.089
-313.651
-290.169
-266.941
-244.454
-222.758
-201.917
-182.055
-163.347
-146.005
-130.276
-116.412
-104.636
-95.1194
-87.9814
-83.2993
-81.1236
-61.8907
-64.9315
-70.57
-78.7159
-89.2431
-101.982
-116.717
-133.193
-151.145
-170.322
-190.523
-211.604
-233.476
-256.059
-279.094
-301.748
-322.968
-342.511
-360.441
-375.562
-387.691
-397.202
-403.559
-407.618
-409.935
-410.581
-409.508
-406.773
-402.216
-395.118
-384.876
-372.086
-356.158
-337.755
-317.828
-296.183
-273.334
-250.374
-227.966
-206.299
-185.446
-165.507
-146.643
-129.071
-113.047
-98.8399
-86.695
-76.8165
-69.3622
-64.4478
-62.1553
-62.5377
-65.5831
-71.2301
-79.3879
-89.9295
-102.684
-117.435
-133.927
-151.892
-171.081
-191.293
-212.384
-234.268
-256.86
-279.893
-302.51
-323.667
-343.154
-361.008
-376.015
-388.057
-397.462
-403.725
-407.721
-409.983
-410.571
-409.442
-406.651
-402.025
-394.82
-384.485
-371.598
-355.56
-337.094
-317.107
-295.403
-272.525
-249.57
-227.173
-205.518
-184.676
-164.749
-145.897
-128.339
-112.331
-98.1399
-86.0109
-76.1466
-68.7037
-63.7972
-61.5086
-31.3215
-34.3802
-40.0398
-48.2
-58.7307
-71.4715
-86.2335
-102.807
-120.974
-140.52
-161.247
-182.961
-205.465
-228.512
-251.736
-274.594
-296.618
-317.867
-338.089
-355.533
-369.422
-380.01
-387.652
-392.842
-395.889
-396.757
-395.324
-391.755
-385.983
-377.673
-366.266
-351.52
-333.223
-312.627
-291.205
-268.957
-245.952
-222.731
-199.799
-177.484
-156.016
-135.589
-116.397
-98.6442
-82.5468
-68.3229
-56.1779
-46.2938
-38.8233
-33.8882
-31.5812
-31.9666
-35.0295
-40.6969
-48.8682
-59.4126
-72.1691
-86.9481
-103.539
-121.723
-141.287
-162.029
-183.759
-206.275
-229.327
-252.546
-275.382
-297.376
-318.602
-338.76
-356.079
-369.847
-380.32
-387.87
-392.981
-395.955
-396.744
-395.234
-391.593
-385.737
-377.329
-365.805
-350.934
-332.522
-311.882
-290.436
-268.158
-245.136
-221.913
-198.989
-176.687
-155.234
-134.824
-115.649
-97.9141
-81.8343
-67.6274
-55.498
-45.6274
-38.1675
-33.2398
-30.9363
0.740024
-2.43283
-8.28821
-16.7066
-27.5391
-40.61
-55.7219
-72.6646
-91.2253
-111.199
-132.393
-154.626
-177.711
-201.426
-225.471
-249.462
-272.866
-295.231
-316.077
-334.933
-350.852
-362.598
-370.747
-376.245
-379.837
-380.942
-379.142
-375.062
-369.004
-360.06
-347.268
-330.444
-311.057
-289.77
-267.104
-243.505
-219.455
-195.46
-171.886
-149.008
-127.035
-106.151
-86.5405
-68.4005
-51.9392
-37.3704
-24.9022
-14.7272
-7.0144
-1.905
0.489665
0.0888827
-3.08809
-8.95119
-17.3805
-28.2267
-41.3134
-56.4427
-73.4037
-91.9833
-111.976
-133.189
-155.44
-178.541
-202.268
-226.316
-250.296
-273.672
-295.997
-316.784
-335.566
-351.349
-362.946
-370.983
-376.405
-379.923
-380.925
-379.029
-374.882
-368.736
-359.67
-346.725
-329.784
-310.328
-288.988
-266.286
-242.667
-218.613
-194.62
-171.058
-148.196
-126.241
-105.375
-85.7845
-67.6635
-51.2206
-36.6691
-24.2166
-14.055
-6.3527
-1.25054
1.14053
33.6651
30.338
24.2136
15.4335
4.16987
-9.38114
-25.0073
-42.4905
-61.6166
-82.1843
-104.009
-126.919
-150.744
-175.295
-200.331
-225.588
-250.601
-274.872
-297.737
-318.316
-335.463
-347.873
-355.631
-360.418
-363.372
-364.381
-362.78
-359.435
-354.057
-345.278
-331.607
-313.459
-292.216
-268.914
-244.399
-219.273
-194.023
-169.096
-144.718
-121.117
-98.4778
-76.9718
-56.7738
-38.0739
-21.0779
-6.00253
6.93418
17.5232
25.5738
30.9219
33.4345
33.0133
29.682
23.5497
14.7584
3.4806
-10.087
-25.7316
-43.2348
-62.382
-82.9717
-104.819
-127.751
-151.597
-176.165
-201.214
-226.471
-251.471
-275.709
-298.516
-319.002
-336.006
-348.236
-355.853
-360.555
-363.449
-364.364
-362.682
-359.275
-353.799
-344.861
-331.016
-312.74
-291.415
-268.062
-243.522
-218.387
-193.141
-168.228
-143.867
-120.287
-97.6708
-76.1871
-56.011
-37.332
-20.3559
-5.29888
7.62151
18.1967
26.2365
31.5771
34.086
65.3156
61.7732
55.2693
45.9759
34.0992
19.8693
3.52857
-14.6818
-34.5338
-55.8217
-78.3668
-102.015
-126.627
-152.06
-178.144
-204.676
-231.219
-257.245
-282.053
-304.708
-323.961
-337.944
-345.545
-348.855
-350.357
-350.793
-350.095
-348.28
-344.195
-335.088
-319.587
-299.328
-276.028
-250.827
-224.606
-198.009
-171.542
-145.617
-120.385
-96.011
-72.6382
-50.4102
-29.4883
-10.0593
7.66355
23.4471
37.0481
48.226
56.7558
62.4397
65.1165
64.6673
61.1204
54.6082
45.303
33.4112
19.1638
2.80319
-15.4289
-35.3042
-56.6167
-79.1875
-102.862
-127.5
-152.958
-179.063
-205.606
-232.146
-258.148
-282.904
-305.47
-324.577
-338.34
-345.737
-348.943
-350.395
-350.784
-350.042
-348.168
-343.952
-334.621
-318.919
-298.535
-275.157
-249.913
-223.674
-197.078
-170.624
-144.722
-119.515
-95.1674
-71.8209
-49.6184
-28.7209
-9.31499
8.38642
24.1504
37.7341
48.8973
57.4156
63.0917
65.7646
94.9786
91.1458
84.1268
74.1338
61.4209
46.2688
28.9671
9.79685
-10.9853
-33.159
-56.5464
-81.0113
-106.45
-132.777
-159.899
-187.647
-215.618
-243.278
-269.905
-294.528
-315.891
-332.265
-341.723
-344.973
-345.487
-345.506
-345.464
-344.575
-340.076
-328.791
-310.968
-288.644
-263.407
-236.43
-208.622
-180.651
-153.015
-126.091
-99.9831
-74.7846
-50.5869
-27.5023
-5.67905
14.6925
33.3806
50.1199
64.6249
76.6062
85.7885
91.9278
94.8256
94.3388
90.5012
83.4732
73.4674
60.7384
45.5673
28.2442
9.05044
-11.7571
-33.9581
-57.3744
-81.8698
-107.341
-133.699
-160.851
-188.619
-216.595
-244.24
-270.821
-295.36
-316.586
-332.749
-341.95
-345.036
-345.497
-345.503
-345.443
-344.478
-339.777
-328.235
-310.225
-287.781
-262.471
-235.459
-207.641
-179.68
-152.067
-125.173
-99.0975
-73.9304
-49.7628
-26.7069
-4.91049
15.436
34.1008
50.819
65.3054
77.2709
86.4408
92.5716
95.4651
122.553
118.338
110.639
99.7193
85.8974
69.5236
50.9555
30.5333
8.55878
-14.7198
-39.117
-64.5111
-90.8352
-118.061
-146.174
-175.025
-204.258
-233.364
-261.631
-288.088
-311.49
-330.288
-342.721
-348.339
-349.727
-349.862
-349.596
-347.495
-340.313
-326.15
-306.033
-281.726
-254.701
-226.133
-196.924
-167.733
-139.027
-111.132
-84.1278
-58.0313
-32.8805
-8.7568
14.2001
35.7865
55.7377
73.7387
89.4419
102.489
112.535
119.275
122.462
121.927
117.707
109.998
99.064
85.2244
68.8301
50.2388
29.7912
7.78921
-15.519
-39.9481
-65.3763
-91.7367
-119
-147.15
-176.03
-205.277
-234.376
-262.606
-288.986
-312.261
-330.868
-343.052
-348.457
-349.75
-349.858
-349.554
-347.325
-339.907
-325.507
-305.217
-280.798
-253.709
-225.112
-195.903
-166.731
-138.055
-110.198
-83.2318
-57.1711
-32.0539
-7.96155
14.9662
36.5255
56.4516
74.4298
90.1127
103.142
113.175
119.905
123.088
148.383
143.682
135.112
123.003
107.754
89.8081
69.612
47.5864
24.0976
-0.563226
-26.1919
-52.6734
-79.9731
-108.118
-137.165
-166.984
-197.279
-227.588
-257.23
-285.266
-310.497
-331.498
-346.776
-355.568
-359.154
-359.882
-358.621
-353.969
-343.59
-326.757
-304.551
-278.485
-249.934
-220.035
-189.661
-159.435
-129.774
-100.942
-73.0018
-45.8978
-19.6176
5.7832
30.1649
53.2981
74.8687
94.4924
111.737
126.154
137.308
144.816
148.372
147.775
143.068
134.487
122.362
107.094
89.1259
68.9047
46.8518
23.3336
-1.35887
-27.0218
-53.5405
-80.8804
-109.068
-138.158
-168.012
-198.329
-228.639
-258.252
-286.22
-311.333
-332.162
-347.216
-355.786
-359.225
-359.87
-358.515
-353.691
-343.08
-326.036
-303.673
-277.504
-248.897
-218.978
-188.611
-158.411
-128.787
-99.9991
-72.1008
-45.0362
-18.7924
6.57477
30.9253
54.0295
75.5731
95.172
112.395
126.792
137.932
145.429
148.98
173.034
167.734
158.088
144.503
127.481
107.578
85.3526
61.3288
35.9567
9.58725
-17.5429
-45.3149
-73.7185
-102.828
-132.755
-163.401
-194.542
-225.776
-256.468
-285.725
-312.406
-335.185
-352.728
-364.182
-369.945
-371.352
-368.979
-361.914
-348.921
-329.956
-306.067
-278.614
-248.887
-217.971
-186.695
-155.63
-125.131
-95.3906
-66.4481
-38.1885
-10.557
16.4077
42.5539
67.612
91.201
112.846
132.01
148.128
160.656
169.112
173.121
172.448
167.142
157.484
143.881
126.838
106.91
84.6575
60.6044
35.2011
8.79819
-18.3681
-46.1794
-74.6259
-103.781
-133.755
-164.441
-195.61
-226.851
-257.522
-286.719
-313.293
-335.915
-353.254
-364.488
-370.068
-371.331
-368.807
-361.544
-348.332
-329.174
-305.141
-277.595
-247.82
-216.891
-185.628
-154.595
-124.138
-94.4446
-65.5475
-37.3297
-9.73659
17.1927
43.3061
68.3333
91.8933
113.512
132.651
148.748
161.259
169.703
173.707
197.13
191.118
180.186
164.834
145.686
123.429
98.759
72.323
44.674
16.2396
-12.6959
-41.9962
-71.664
-101.812
-132.572
-163.911
-195.683
-227.551
-258.935
-288.996
-316.655
-340.666
-359.782
-373.081
-380.419
-382.341
-379.129
-370.343
-355.542
-335.093
-310.043
-281.66
-251.162
-219.571
-187.662
-155.953
-124.724
-94.0877
-64.051
-34.4548
-5.21539
23.6329
51.9118
79.296
105.32
129.399
150.868
169.026
183.196
192.784
197.333
196.57
190.55
179.604
164.233
145.061
122.777
98.078
71.6106
43.9286
15.4595
-13.5133
-42.8541
-72.5663
-102.763
-133.57
-164.953
-196.756
-228.636
-260.004
-290.012
-317.573
-341.437
-360.364
-373.448
-380.58
-382.313
-378.91
-369.912
-354.9
-334.272
-309.089
-280.622
-250.081
-218.482
-186.592
-154.917
-123.733
-93.145
-63.1553
-33.6024
-4.40244
24.4093
52.6539
80.0055
105.998
130.048
151.49
169.625
183.776
193.351
197.893
221.255
214.421
202.005
184.61
162.997
138.01
110.497
81.2459
50.9305
20.07
-10.9887
-42.0736
-73.1849
-104.457
-136.028
-167.949
-200.153
-232.378
-264.091
-294.517
-322.648
-347.312
-367.326
-381.711
-390
-392.241
-388.51
-378.693
-362.83
-341.546
-315.893
-287.071
-256.22
-224.294
-192.012
-159.833
-127.964
-96.4326
-65.1849
-34.0494
-2.92712
28.1366
58.919
89.0238
117.886
144.794
168.936
189.456
205.525
216.419
221.589
220.722
213.88
201.448
184.032
162.393
137.376
109.831
80.5469
50.1969
19.3003
-11.7959
-42.9214
-74.0768
-105.397
-137.016
-168.98
-201.217
-233.458
-265.158
-295.536
-323.575
-348.103
-367.937
-382.112
-390.183
-392.21
-388.263
-378.228
-362.161
-340.709
-314.932
-286.031
-255.143
-223.212
-190.95
-158.808
-126.983
-95.4979
-64.2984
-33.2062
-2.12357
28.9029
59.6497
89.7202
118.549
145.425
169.537
190.031
206.08
216.959
222.121
245.904
238.152
224.075
204.395
180.026
151.98
121.275
88.8532
55.5194
21.895
-11.5964
-44.7226
-77.464
-109.954
-142.342
-174.76
-207.227
-239.579
-271.278
-301.635
-329.735
-354.496
-374.799
-389.662
-398.435
-400.848
-396.838
-386.506
-370.203
-348.679
-322.966
-294.19
-263.401
-231.452
-199.01
-166.511
-134.065
-101.621
-69.0317
-36.1472
-2.86959
30.7306
64.3586
97.5384
129.594
159.675
186.81
209.971
228.165
240.519
246.383
245.401
237.64
223.546
203.842
179.444
151.366
120.626
88.1685
54.7983
21.1368
-12.3919
-45.5573
-78.3411
-110.877
-143.309
-175.77
-208.27
-240.639
-272.325
-302.636
-330.651
-355.283
-375.416
-390.076
-398.628
-400.814
-396.579
-386.03
-369.531
-347.848
-322.019
-293.168
-262.344
-230.389
-197.97
-165.506
-133.104
-100.704
-68.1592
-35.316
-2.07669
31.4857
65.0771
98.2208
130.24
160.287
187.389
210.522
228.692
241.03
246.885
271.474
262.723
246.844
224.692
197.346
165.997
131.838
95.973
59.3441
22.6761
-13.5298
-48.9313
-83.4843
-117.296
-150.528
-183.389
-215.961
-248.126
-279.492
-309.438
-337.132
-361.58
-381.736
-396.638
-405.546
-408.019
-403.911
-393.45
-377.149
-355.814
-330.443
-302.08
-271.684
-240.039
-207.712
-175.022
-142.031
-108.621
-74.5693
-39.7399
-4.06235
32.3639
69.114
105.644
141.163
174.675
205.042
231.058
251.551
265.492
272.111
271.004
262.242
246.344
224.166
196.788
165.403
131.207
95.3036
58.6365
21.9292
-14.3119
-49.7508
-84.3429
-118.195
-151.469
-184.368
-216.97
-249.149
-280.503
-310.406
-338.02
-362.346
-382.342
-397.05
-405.74
-407.985
-403.651
-392.978
-376.491
-355.006
-329.526
-301.092
-270.663
-239.013
-206.705
-174.047
-141.096
-107.726
-73.7142
-38.9226
-3.28026
33.1071
69.8194
106.312
141.793
175.267
205.598
231.582
252.049
265.972
272.582
298.274
288.458
270.682
245.946
215.502
180.721
142.971
103.514
63.4348
23.5828
-15.4375
-53.2588
-89.7575
-124.984
-159.123
-192.435
-225.06
-256.948
-287.804
-317.104
-344.112
-367.936
-387.616
-402.234
-411.031
-413.486
-409.408
-399.091
-383.119
-362.3
-337.574
-309.892
-280.113
-248.923
-216.791
-183.945
-150.385
-115.934
-80.3172
-43.4043
-5.18557
34.1559
74.1801
114.216
153.343
190.421
224.145
253.135
276.036
291.653
299.081
297.838
288.009
270.212
245.447
214.968
180.148
142.358
102.862
62.7427
22.8527
-16.2037
-54.0604
-90.5944
-125.856
-160.03
-193.376
-226.026
-257.924
-288.768
-318.027
-344.959
-368.669
-388.198
-402.633
-411.221
-413.453
-409.154
-398.635
-382.487
-361.528
-336.699
-308.951
-279.139
-247.943
-215.825
-183.007
-149.481
-115.066
-79.4825
-42.6039
-4.41984
34.885
74.8712
114.867
153.954
190.991
224.677
253.631
276.504
292.1
299.518
326.567
315.665
295.984
268.68
235.177
197.014
155.719
112.699
69.1632
26.0771
-15.8601
-56.2081
-94.764
-131.505
-166.642
-200.472
-233.179
-264.772
-295.047
-323.574
-349.727
-372.725
-391.708
-405.83
-414.355
-416.741
-412.775
-402.781
-387.355
-367.27
-343.383
-316.541
-287.491
-256.814
-224.88
-191.84
-157.634
-122.044
-84.7607
-45.6551
-4.79356
37.5596
80.8916
124.427
167.129
207.723
244.758
276.688
301.988
319.294
327.551
326.166
315.252
295.548
268.212
234.671
196.466
155.128
112.065
68.4887
25.3641
-16.6086
-56.9899
-95.577
-132.347
-167.513
-201.37
-234.097
-265.696
-295.956
-324.443
-350.524
-373.415
-392.257
-406.208
-414.536
-416.71
-412.534
-402.349
-386.76
-366.543
-342.56
-315.654
-286.571
-255.885
-223.961
-190.942
-156.764
-121.204
-83.9483
-44.8732
-4.04451
38.2729
81.5662
125.06
167.719
208.27
245.262
277.154
302.423
319.706
327.952
356.581
344.645
323.168
293.458
257.097
215.776
171.157
124.768
77.9272
31.6978
-13.1282
-56.0234
-96.6959
-135.036
-171.279
-205.734
-238.616
-269.981
-299.699
-327.437
-352.679
-374.76
-392.934
-406.443
-414.605
-416.894
-413.086
-403.516
-388.754
-369.51
-346.544
-320.588
-292.273
-262.071
-230.262
-196.928
-161.965
-125.132
-86.1049
-44.7586
-1.24797
44.0731
90.604
137.475
183.546
227.433
267.558
302.235
329.788
348.691
357.74
356.218
344.269
322.767
293.023
256.622
215.256
170.591
124.156
77.2727
31.0039
-13.8574
-56.7839
-97.4836
-135.846
-172.112
-206.589
-239.483
-270.849
-300.55
-328.247
-353.42
-375.402
-393.446
-406.795
-414.774
-416.864
-412.86
-403.113
-388.2
-368.834
-345.777
-319.76
-291.411
-261.196
-229.392
-196.072
-161.131
-124.321
-85.3159
-43.9964
-0.516948
44.7684
91.2594
138.087
184.112
227.952
268.032
302.668
330.187
349.065
358.102
388.484
375.639
352.597
320.808
281.985
237.939
190.434
141.086
91.2959
42.2049
-5.31247
-50.6409
-93.3941
-133.365
-170.804
-206.009
-239.199
-270.466
-299.737
-326.767
-351.146
-372.327
-389.679
-402.544
-410.313
-412.493
-408.86
-399.745
-385.676
-367.278
-345.209
-320.082
-292.412
-262.569
-230.753
-196.991
-161.155
-123
-82.2161
-38.6866
7.33567
55.4033
104.829
154.662
203.682
250.422
293.211
330.257
359.759
380.057
389.805
388.162
375.304
352.235
320.41
281.544
237.45
189.896
140.5
90.6648
41.533
-6.01981
-51.3782
-94.1554
-134.144
-171.6
-206.819
-240.017
-271.279
-300.529
-327.518
-351.83
-372.919
-390.15
-402.868
-410.469
-412.465
-408.652
-399.374
-385.165
-366.654
-344.499
-319.313
-291.607
-261.748
-229.931
-196.177
-160.356
-122.219
-81.4514
-37.9457
8.04638
56.0778
105.462
155.249
204.22
250.91
293.651
330.654
360.12
380.391
390.126
422.391
408.841
384.602
351.24
310.567
264.469
214.771
163.136
111.01
59.5861
9.80208
-37.65
-82.2923
-123.817
-162.472
-198.514
-232.146
-263.469
-292.454
-318.927
-342.573
-362.955
-379.553
-391.814
-399.206
-401.28
-397.817
-389.136
-375.712
-358.084
-336.802
-312.367
-285.188
-255.544
-223.57
-189.258
-152.476
-113.004
-70.5702
-25.0817
23.1102
73.4697
125.236
177.398
228.686
277.587
322.38
361.209
392.189
413.557
423.851
422.113
408.548
384.282
350.883
310.164
264.016
214.266
162.58
110.407
58.9408
9.12048
-38.361
-83.0253
-124.564
-163.231
-199.283
-232.916
-264.229
-293.19
-319.621
-343.203
-363.498
-379.984
-392.11
-399.349
-401.254
-397.626
-388.796
-375.244
-357.511
-336.148
-311.655
-284.439
-254.774
-222.793
-188.484
-151.712
-112.251
-69.8313
-24.3649
23.7969
74.1188
125.841
177.954
229.191
278.039
322.782
361.565
392.507
413.849
424.129
458.372
444.401
419.477
385.245
343.566
296.354
245.442
192.494
138.956
86.0378
34.708
-14.2859
-60.3899
-103.204
-142.944
-179.8
-213.931
-245.425
-274.274
-300.356
-323.433
-343.162
-359.124
-370.863
-377.925
-379.906
-376.592
-368.289
-355.417
-338.432
-317.785
-293.878
-267.026
-237.437
-205.204
-170.306
-132.631
-92.0057
-48.232
-1.25437
48.4862
100.382
153.624
207.173
259.749
309.839
355.718
395.52
427.326
449.314
459.938
458.141
444.154
419.203
384.932
343.207
295.943
244.977
191.976
138.389
85.4257
34.0583
-14.9652
-61.0904
-103.917
-143.667
-180.528
-214.655
-246.136
-274.958
-300.997
-324.011
-343.658
-359.518
-371.134
-378.056
-379.882
-376.417
-367.978
-354.989
-337.907
-317.184
-293.219
-266.328
-236.715
-204.471
-169.57
-131.9
-91.2843
-47.5222
-0.566508
49.1428
101
154.195
207.692
260.214
310.249
356.076
395.831
427.599
449.559
460.169
496.455
482.431
457.48
423.275
381.676
334.566
283.73
230.777
177.108
123.899
72.1138
22.5181
-24.288
-67.8369
-108.276
-145.701
-180.205
-211.843
-240.602
-266.388
-289.016
-308.217
-323.658
-334.963
-341.749
-343.65
-340.46
-332.473
-320.058
-303.599
-283.462
-259.966
-233.357
-203.797
-171.357
-136.028
-97.7416
-56.3979
-11.8952
35.7621
86.069
138.378
191.867
245.51
298.065
348.068
393.849
433.585
465.381
487.409
498.083
496.274
482.235
457.256
423.012
381.367
334.204
283.313
230.305
176.585
123.33
71.5054
21.8797
-24.9471
-68.5116
-108.961
-146.389
-180.887
-212.508
-241.238
-266.98
-289.548
-308.672
-324.018
-335.211
-341.868
-343.628
-340.301
-332.189
-319.667
-303.117
-282.907
-259.355
-232.706
-203.12
-170.665
-135.331
-97.047
-55.7116
-11.221
36.4128
86.6862
138.953
192.393
245.983
298.482
348.429
394.157
433.846
465.603
487.604
498.264
536.63
523.003
498.819
465.728
425.527
380.007
330.847
279.548
227.408
175.525
124.805
75.9875
29.6738
-13.6525
-54.0206
-91.418
-125.855
-157.331
-185.81
-211.202
-233.351
-252.037
-266.989
-277.895
-284.428
-286.257
-283.181
-275.482
-263.489
-247.528
-227.898
-204.859
-178.614
-149.301
-116.994
-81.718
-43.4665
-2.22982
41.9768
89.0699
138.523
189.695
241.798
293.87
344.757
393.097
437.332
475.742
506.518
527.884
538.266
536.503
522.861
498.65
465.521
425.274
379.703
330.488
279.133
226.941
175.011
124.25
75.4031
29.0755
-14.28
-54.662
-92.0625
-126.492
-157.95
-186.4
-211.749
-233.84
-252.454
-267.317
-278.12
-284.537
-286.237
-283.035
-275.223
-263.131
-247.086
-227.387
-204.295
-178.01
-148.669
-116.346
-81.0638
-42.8146
-1.5876
42.6039
89.6704
139.087
190.215
242.267
294.285
345.115
393.4
437.583
475.947
506.686
528.025
538.393
578.853
566.139
543.637
512.91
475.629
433.433
387.836
340.177
291.603
243.08
195.405
149.24
105.137
63.4925
24.4742
-11.8027
-45.2629
-75.8437
-103.469
-128.034
-149.388
-167.341
-181.658
-192.077
-198.311
-200.056
-197.115
-189.761
-178.294
-162.992
-144.113
-121.877
-96.4654
-68.0147
-36.6221
-2.35803
34.7124
74.5025
116.874
161.65
208.345
256.38
305.057
353.53
400.782
445.609
486.618
522.25
550.843
570.738
580.432
578.783
566.056
543.528
512.765
475.441
433.196
387.546
339.833
291.208
242.635
194.918
148.718
104.589
62.9203
23.8876
-12.3936
-45.8476
-76.4113
-104.009
-128.532
-149.833
-167.718
-181.956
-192.281
-198.41
-200.038
-196.982
-189.527
-177.969
-162.591
-143.648
-121.361
-95.9121
-67.4353
-36.0274
-1.7584
35.3077
75.085
117.436
162.182
208.838
256.828
305.454
353.873
401.071
445.845
486.804
522.392
550.95
570.821
580.502
623.044
611.814
591.996
565.003
532.316
495.362
455.438
413.673
371.017
328.257
286.036
244.874
205.202
167.317
131.539
98.0833
67.1026
38.7191
13.0495
-9.77634
-29.605
-46.2554
-59.5189
-69.163
-74.9335
-76.5496
-73.8209
-67.0106
-56.3905
-42.2081
-24.6891
-4.03469
19.5818
46.0138
75.1356
106.83
140.967
177.374
215.802
255.984
297.542
340.025
382.878
425.42
466.818
506.069
541.994
573.252
598.388
615.924
624.496
623.035
611.793
591.953
564.928
532.201
495.203
455.231
413.416
370.711
327.904
285.638
244.438
204.733
166.823
131.028
97.5658
66.5885
38.2187
12.5738
-10.2161
-29.9974
-46.5885
-59.7812
-69.3432
-75.0208
-76.5333
-73.704
-66.8036
-56.1044
-41.8542
-24.279
-3.57984
20.0699
46.5242
75.6579
107.354
141.483
177.873
216.275
256.423
297.941
340.379
383.183
425.675
467.023
506.226
542.106
573.325
598.43
615.945
624.506
669.096
659.945
643.859
622.029
595.683
565.981
533.958
500.49
466.298
431.955
397.907
364.492
331.956
300.452
270.409
242.113
215.764
191.519
169.52
149.912
132.851
118.508
107.072
98.7481
93.76
92.3606
94.726
100.613
109.78
122.008
137.098
154.865
175.142
197.778
222.629
249.548
278.367
308.863
340.707
373.563
407.236
441.455
475.854
509.952
543.134
574.636
603.534
628.752
649.102
663.353
670.347
669.151
659.991
643.886
622.029
595.651
565.912
533.848
500.337
466.102
431.716
397.627
364.172
331.599
300.068
270.006
241.7
215.349
191.113
169.132
149.552
132.529
118.234
106.855
98.5988
93.6874
92.3741
94.823
100.784
110.016
122.299
137.434
155.237
175.54
198.191
223.048
249.965
278.772
309.246
341.058
373.878
407.513
441.69
476.046
510.101
543.241
574.703
603.563
628.75
649.074
663.307
670.291
716.895
710.413
699.092
683.835
665.55
645.079
623.15
600.361
577.175
553.938
530.879
508.129
485.718
463.604
442.269
422.006
403.01
385.429
369.396
355.039
342.496
331.912
323.443
317.256
313.534
312.485
314.259
318.649
325.458
334.508
345.635
358.686
373.518
389.998
407.994
427.37
447.966
469.562
491.814
514.366
537.254
560.422
583.712
606.862
629.494
651.107
671.065
688.605
702.857
712.907
717.869
717.018
710.53
699.195
683.918
665.609
645.111
623.152
600.33
577.111
553.839
530.746
507.96
485.512
463.37
442.015
421.739
402.736
385.156
369.131
354.79
342.271
331.719
323.289
317.15
313.482
312.495
314.328
318.771
325.625
334.712
345.869
358.942
373.788
390.274
408.27
427.638
448.219
469.79
492.008
514.525
537.381
560.515
583.772
606.889
629.49
651.073
671.004
688.52
702.754
712.79
717.745
766.264
763.005
757.413
750.03
741.387
731.952
722.108
712.146
702.262
692.567
683.086
673.759
664.411
654.793
645.339
636.258
627.667
619.643
612.256
605.574
599.673
594.637
590.559
587.541
585.7
585.174
586.063
588.229
591.541
595.888
601.171
607.298
614.188
621.766
629.965
638.714
647.923
657.456
667.047
676.4
685.789
695.355
705.135
715.079
725.052
734.832
744.102
752.452
759.393
764.385
766.893
766.459
763.196
757.596
750.203
741.546
732.096
722.235
712.254
702.35
692.633
683.129
673.775
664.396
654.753
645.28
636.184
627.581
619.55
612.159
605.478
599.582
594.556
590.492
587.493
585.676
585.178
586.094
588.282
591.612
595.972
601.263
607.394
614.284
621.858
630.049
638.784
647.977
657.487
667.046
676.372
685.739
695.283
705.043
714.967
724.923
734.686
743.941
752.278
759.209
764.194
766.698
817.232
817.67
818.629
820.224
822.537
825.608
829.434
833.969
839.129
844.8
850.833
857.038
863.143
868.773
874.126
879.203
883.953
888.318
892.243
895.679
898.592
900.955
902.755
903.994
904.685
904.862
904.559
903.731
902.351
900.408
897.904
894.857
891.295
887.257
882.791
877.956
872.809
867.387
861.645
855.492
849.325
843.386
837.853
832.864
828.528
824.917
822.066
819.966
818.564
817.768
817.456
817.502
817.94
818.898
820.492
822.803
825.872
829.695
834.227
839.384
845.049
851.075
857.268
863.356
868.972
874.31
879.372
884.107
888.455
892.362
895.781
898.675
901.02
902.802
904.023
904.697
904.859
904.54
903.695
902.297
900.335
897.814
894.749
891.168
887.113
882.631
877.781
872.618
867.18
861.419
855.254
849.078
843.133
837.595
832.603
828.265
824.652
821.799
819.698
818.295
817.498
817.186
)
;

boundaryField
{
    top
    {
        type            fixedFluxPressure;
        gradient        nonuniform List<scalar> 
102
(
1571.02
1693.08
1908.73
2203.06
2560.61
2966.65
3408.04
3873.57
4354.18
4842.98
5335.47
5830.33
6331.77
6851
7364.2
7860.39
8332.38
8774.34
9180.92
9547.03
9867.72
10138.2
10353.9
10510.4
10603.7
10629.6
10585.7
10475.4
10303
10072.4
9788.1
9454.77
9077.23
8660.47
8209.65
7730.26
7228.48
6712.39
6195.9
5696.46
5201.71
4709.36
4221.75
3744.08
3283.88
2850.82
2456.7
2115.19
1841.34
1650.62
1557.48
1573.36
1695.54
1911.39
2206.02
2563.95
2970.42
3412.27
3878.28
4359.39
4848.69
5341.73
5837.21
6339.53
6859.25
7372.73
7869.02
8340.94
8782.64
9188.78
9554.25
9874.11
10143.6
10358.1
10513.2
10605
10629.4
10583.8
10472.1
10298.4
10066.6
9781.39
9447.28
9069.15
8651.99
8200.98
7721.57
7219.96
6704.28
6188.68
5689.83
5195.59
4703.72
4216.59
3739.4
3279.67
2847.07
2453.37
2112.23
1838.68
1648.17
1555.14
)
;
        value           nonuniform List<scalar> 
102
(
843.416
845.888
850.441
856.942
865.214
875.052
886.234
898.528
911.699
925.517
939.758
954.21
968.673
982.957
996.863
1010.21
1022.83
1034.56
1045.26
1054.8
1063.05
1069.92
1075.32
1079.17
1081.41
1082.02
1080.99
1078.32
1074.07
1068.28
1061.04
1052.44
1042.58
1031.6
1019.62
1006.79
993.283
979.26
964.91
950.433
936.02
921.875
908.215
895.266
883.259
872.431
863.011
855.219
849.253
845.278
843.414
843.725
846.199
850.755
857.259
865.535
875.379
886.566
898.865
912.04
925.861
940.104
954.555
969.015
983.293
997.189
1010.52
1023.12
1034.83
1045.51
1055.02
1063.24
1070.08
1075.44
1079.24
1081.45
1082.02
1080.94
1078.23
1073.94
1068.11
1060.84
1052.2
1042.32
1031.31
1019.31
1006.47
992.95
978.918
964.564
950.084
935.671
921.528
907.872
894.927
882.926
872.103
862.688
854.901
848.939
844.967
843.105
)
;
    }
    bottom
    {
        type            fixedFluxPressure;
        gradient        nonuniform List<scalar> 
102
(
0
0
0
0
0
0
0
0
0
0
0
0
0
0
0
0
0
0
0
0
0
0
0
0
0
0
0
0
0
0
0
0
0
0
0
0
0
0
0
0
0
0
0
0
0
0
0
0
0
0
0
0
0
0
0
0
0
0
0
0
0
0
0
0
0
0
0
0
0
0
0
0
0
0
0
0
0
0
0
0
0
0
0
0
0
0
0
0
0
0
0
0
0
0
0
0
0
0
0
0
0
-1.65264e-14
)
;
        value           nonuniform List<scalar> 
102
(
-38.8585
-42.1162
-48.1853
-57.0046
-68.5059
-82.6297
-99.3314
-118.569
-140.272
-164.304
-190.433
-218.318
-247.478
-277.264
-306.803
-335.042
-360.918
-383.54
-402.19
-416.534
-426.845
-433.684
-437.864
-440.208
-441.34
-441.619
-441.139
-439.743
-437.002
-432.231
-424.589
-413.301
-397.879
-378.171
-354.649
-328.08
-299.401
-269.701
-240.001
-211.115
-183.647
-158.04
-134.607
-113.553
-94.9935
-78.9898
-65.5818
-54.8177
-46.7602
-41.4769
-39.0236
-39.4313
-42.6943
-48.7734
-57.6079
-69.13
-83.2808
-100.016
-119.293
-141.04
-165.116
-191.29
-219.212
-248.398
-278.192
-307.71
-335.894
-361.683
-384.191
-402.705
-416.913
-427.101
-433.842
-437.953
-440.252
-441.356
-441.615
-441.114
-439.685
-436.894
-432.045
-424.297
-412.881
-397.321
-377.481
-353.852
-327.205
-298.482
-268.769
-239.082
-210.226
-182.798
-157.236
-133.849
-112.837
-94.316
-78.3442
-64.9619
-54.2175
-46.1742
-40.9
-38.4512
)
;
    }
    frontAndBack
    {
        type            empty;
    }
    left_cyc