/*--------------------------------*- C++ -*----------------------------------*\
| =========                 |                                                 |
| \\      /  F ield         | OpenFOAM: The Open Source CFD Toolbox           |
|  \\    /   O peration     | Version:  2.3.0                                 |
|   \\  /    A nd           | Web:      www.OpenFOAM.org                      |
|    \\/     M anipulation  |                                                 |
\*---------------------------------------------------------------------------*/
FoamFile
{
    version     2.0;
    format      ascii;
    class       surfaceScalarField;
    location    "24000";
    object      phi;
}
// * * * * * * * * * * * * * * * * * * * * * * * * * * * * * * * * * * * * * //

dimensions      [0 3 -1 0 0 0 0];

internalField   nonuniform List<scalar> 
1464
(
0.308006
0.00235234
0.313069
-0.00506276
0.327248
-0.0141792
0.350404
-0.0231559
0.378508
-0.0281041
0.401366
-0.0228582
0.401682
-0.000316291
0.35735
0.0443326
0.247604
0.109746
0.0681784
0.179426
-0.139286
0.207464
-0.295895
0.156609
-0.380709
0.0848141
-0.406489
0.02578
-0.395744
-0.0107449
-0.369184
-0.0265598
-0.34187
-0.027314
-0.321603
-0.0202675
-0.310742
-0.0108611
-0.308553
-0.00218871
-0.313044
0.00449125
-0.322123
0.00907862
-0.334416
0.0122935
-0.349302
0.0148862
-0.366803
0.0175008
-0.387535
0.0207321
-0.412695
0.0251592
-0.443631
0.0309367
-0.480099
0.0364675
-0.515483
0.0353838
-0.52764
0.0121578
-0.486568
-0.0410719
-0.395154
-0.0914148
-0.270035
-0.125118
-0.122387
-0.147648
0.029572
-0.151959
0.180817
-0.151245
0.322253
-0.141436
0.43531
-0.113057
0.510404
-0.075094
0.526966
-0.0165617
0.501869
0.0250964
0.464758
0.0371114
0.43044
0.0343181
0.40206
0.0283798
0.378894
0.0231666
0.359571
0.0193222
0.343135
0.0164368
0.329203
0.0139315
0.317982
0.011221
0.00762363
0.547187
-0.00589187
0.562197
-0.0200728
0.584291
-0.0362732
0.611349
-0.0502141
0.637006
-0.0537617
0.648663
-0.0345149
0.626183
0.0221636
0.541982
0.128534
0.368713
0.283015
0.100164
0.447975
-0.205382
0.513009
-0.442863
0.394091
-0.582097
0.224048
-0.640922
0.0846048
-0.648192
-0.00347482
-0.62944
-0.0453118
-0.602068
-0.0546866
-0.576213
-0.0461225
-0.556481
-0.0305929
-0.543928
-0.014742
-0.537699
-0.00173749
-0.536049
0.00742919
-0.53685
0.0130944
-0.538
0.0160359
-0.537418
0.0169185
-0.532852
0.0161665
-0.521694
0.0140007
-0.500815
0.0100583
-0.466629
0.00228097
-0.415399
-0.0158454
-0.344352
-0.0588898
-0.259583
-0.125841
-0.177735
-0.173262
-0.108952
-0.193902
-0.0496103
-0.20699
0.011216
-0.212785
0.0714792
-0.211508
0.132955
-0.202911
0.207699
-0.187802
0.293207
-0.160602
0.374522
-0.0978765
0.437932
-0.0383134
0.482124
-0.00708032
0.510625
0.00581722
0.52723
0.0117747
0.535394
0.0150024
0.538032
0.0166837
0.537591
0.0168782
0.536219
0.0153039
0.535965
0.0114746
0.00464624
0.578452
-0.0205026
0.59606
-0.0376807
0.615775
-0.0559877
0.634772
-0.0692118
0.647226
-0.0662156
0.642993
-0.0302811
0.606167
0.058989
0.514954
0.219747
0.34604
0.451929
0.093274
0.700741
-0.191349
0.797633
-0.416835
0.619577
-0.555947
0.36316
-0.624939
0.153596
-0.647745
0.0193317
-0.644509
-0.0485482
-0.628779
-0.0704163
-0.608989
-0.065913
-0.589754
-0.0498274
-0.573107
-0.0313895
-0.559436
-0.0154077
-0.548137
-0.00387013
-0.537737
0.0026943
-0.526124
0.00442288
-0.510631
0.00142547
-0.488067
-0.00639741
-0.454894
-0.019172
-0.40809
-0.0367462
-0.347074
-0.0587352
-0.277363
-0.0855561
-0.214761
-0.121491
-0.169802
-0.170801
-0.129181
-0.213883
-0.0843542
-0.238729
-0.0382359
-0.253108
0.00854384
-0.259565
0.0551466
-0.258111
0.101005
-0.24877
0.14435
-0.231147
0.184087
-0.200339
0.237191
-0.15098
0.30544
-0.106563
0.373105
-0.0747458
0.428655
-0.0497323
0.469694
-0.029264
0.49813
-0.0134341
0.517368
-0.0025543
0.530849
0.00339746
0.541553
0.00459982
0.551928
0.00109995
-0.00726759
0.517364
-0.0336386
0.53014
-0.0504569
0.541034
-0.0668818
0.547312
-0.0754897
0.544525
-0.0634279
0.525811
-0.0115671
0.481149
0.103651
0.397559
0.303337
0.261146
0.588342
0.0695125
0.892375
-0.14215
1.0093
-0.316216
0.793642
-0.432735
0.479679
-0.500901
0.221762
-0.53504
0.0534716
-0.547191
-0.0363974
-0.546142
-0.0714655
-0.537805
-0.0742497
-0.525963
-0.0616696
-0.512883
-0.04447
-0.499734
-0.0285561
-0.486823
-0.0167817
-0.473677
-0.0104516
-0.458973
-0.0102807
-0.440552
-0.0169963
-0.415504
-0.031445
-0.380516
-0.0541596
-0.332984
-0.084279
-0.273342
-0.118377
-0.208757
-0.150141
-0.155529
-0.174719
-0.12179
-0.20454
-0.0931822
-0.242491
-0.0624412
-0.26947
-0.0287833
-0.286766
0.0063825
-0.294731
0.0411506
-0.292879
0.0737393
-0.281359
0.103128
-0.260535
0.132079
-0.22929
0.174035
-0.192937
0.234035
-0.166563
0.298173
-0.138884
0.353358
-0.104917
0.395659
-0.0715647
0.426236
-0.0440118
0.448184
-0.0245023
0.464728
-0.0131457
0.478496
-0.00916815
0.491332
-0.0117363
-0.0201638
0.409288
-0.0403778
0.413227
-0.0543958
0.412813
-0.0664676
0.405963
-0.0686396
0.389933
-0.0473975
0.361122
0.0172437
0.315232
0.14954
0.247677
0.370892
0.154965
0.681054
0.0401716
1.00717
-0.0811955
1.13066
-0.189838
0.902285
-0.273898
0.563739
-0.33355
0.281414
-0.373098
0.0930191
-0.397077
-0.0124183
-0.409568
-0.0589739
-0.413882
-0.0699359
-0.412535
-0.0630173
-0.407427
-0.0495774
-0.399938
-0.0360453
-0.390923
-0.025797
-0.380651
-0.0207234
-0.368664
-0.0222671
-0.353662
-0.031999
-0.333478
-0.0516286
-0.30536
-0.0822781
-0.266869
-0.12277
-0.217871
-0.167375
-0.163209
-0.204803
-0.115207
-0.222721
-0.0848366
-0.23491
-0.0631485
-0.26418
-0.0421102
-0.290508
-0.0194786
-0.309397
0.00423975
-0.318449
0.0276627
-0.316302
0.0496347
-0.303331
0.0704364
-0.281337
0.0937249
-0.252578
0.131127
-0.230339
0.184098
-0.219534
0.23768
-0.192465
0.282853
-0.15009
0.317081
-0.105793
0.341736
-0.0686669
0.359556
-0.0423229
0.373133
-0.0267226
0.38431
-0.0203445
0.394057
-0.0214835
-0.0286563
0.266825
-0.0391536
0.261442
-0.0490121
0.2508
-0.0558256
0.233805
-0.0516452
0.209462
-0.0230546
0.177156
0.0495496
0.137303
0.189393
0.0921906
0.416004
0.0474659
0.725779
0.0109686
1.04367
-0.0204362
1.16207
-0.0611587
0.943007
-0.107585
0.610165
-0.151766
0.325595
-0.189426
0.13068
-0.219129
0.0172845
-0.240878
-0.0372245
-0.255546
-0.0552679
-0.264217
-0.0543469
-0.268012
-0.0457823
-0.26802
-0.0360376
-0.265207
-0.0286091
-0.260293
-0.0256382
-0.253542
-0.0290175
-0.244558
-0.040983
-0.232128
-0.0640585
-0.214304
-0.100102
-0.188958
-0.148116
-0.155188
-0.201145
-0.115229
-0.244762
-0.0762101
-0.26174
-0.05134
-0.25978
-0.0369137
-0.278606
-0.0244941
-0.302927
-0.0114119
-0.32248
0.00240411
-0.332265
0.0160105
-0.329908
0.028703
-0.316023
0.0416453
-0.294279
0.059575
-0.270508
0.0902772
-0.261041
0.130704
-0.25996
0.168571
-0.230333
0.199049
-0.180568
0.221273
-0.128016
0.236792
-0.0841863
0.247746
-0.0532772
0.255821
-0.0347969
0.261908
-0.0264315
0.266135
-0.0257108
-0.0305709
0.100788
-0.0309067
0.0881522
-0.036376
0.0706708
-0.0383442
0.048219
-0.0291933
0.0212956
0.00386879
-0.00816822
0.0790134
-0.0360518
0.217277
-0.0544248
0.434377
-0.0507169
0.722071
-0.0151409
1.00809
0.0337541
1.11317
0.0573433
0.919418
0.0508355
0.616673
0.0272897
0.349141
-0.00222452
0.160194
-0.0313568
0.0464168
-0.0569351
-0.0116462
-0.0777102
-0.0344929
-0.0934895
-0.0385676
-0.104549
-0.0347223
-0.111443
-0.029144
-0.114924
-0.0251277
-0.115838
-0.024725
-0.114899
-0.0299556
-0.112423
-0.0434598
-0.108094
-0.068387
-0.100942
-0.107255
-0.0896285
-0.159429
-0.0732914
-0.217482
-0.0526334
-0.26542
-0.0309564
-0.283417
-0.0185054
-0.272231
-0.0131388
-0.283972
-0.0090097
-0.307057
-0.0043653
-0.327124
0.000843031
-0.337474
0.00588572
-0.334951
0.010205
-0.320342
0.014658
-0.298732
0.0232785
-0.279129
0.0398667
-0.277629
0.0608071
-0.280901
0.0793661
-0.248892
0.093515
-0.194717
0.103089
-0.13759
0.109125
-0.0902225
0.112803
-0.0569554
0.114826
-0.0368193
0.115248
-0.0268534
0.11358
-0.0240429
-0.0260265
-0.0721803
-0.0182284
-0.088873
-0.0196832
-0.109528
-0.0176894
-0.133462
-0.00525917
-0.158743
0.0291503
-0.181188
0.101458
-0.193236
0.229326
-0.182532
0.423673
-0.133012
0.672551
-0.0366133
0.91169
0.0777309
0.998829
0.157695
0.839453
0.190964
0.583404
0.191319
0.348786
0.174057
0.177455
0.149762
0.0707119
0.124505
0.0136109
0.10151
-0.0114975
0.0821466
-0.0192042
0.066819
-0.0193948
0.0554149
-0.01774
0.0474348
-0.0171475
0.0420614
-0.0193517
0.0383488
-0.026243
0.0355043
-0.0406153
0.0330592
-0.0659419
0.0308317
-0.105027
0.0287515
-0.157349
0.0265888
-0.215319
0.0241103
-0.262942
0.0212456
-0.280552
0.0158488
-0.266834
0.00990927
-0.278033
0.0055029
-0.30265
0.00218947
-0.323811
-0.000593503
-0.334691
-0.00352373
-0.332021
-0.00724889
-0.316617
-0.0122767
-0.293705
-0.0187773
-0.272628
-0.0234318
-0.272975
-0.0265772
-0.277756
-0.0291253
-0.246344
-0.0311362
-0.192706
-0.0330452
-0.135681
-0.0350941
-0.0881736
-0.0374243
-0.0546251
-0.0403269
-0.0339168
-0.0443892
-0.0227911
-0.0504746
-0.0179575
-0.0169992
-0.233534
-0.00409752
-0.251416
-0.00180122
-0.272606
0.0035002
-0.295555
0.0176899
-0.316763
0.0503584
-0.329796
0.114491
-0.32408
0.223609
-0.284703
0.384297
-0.195613
0.58346
-0.052772
0.76885
0.109807
0.83625
0.234754
0.714507
0.304278
0.51388
0.329439
0.323625
0.326737
0.180158
0.309676
0.0877732
0.287174
0.0361129
0.26448
0.0111959
0.244267
0.00100872
0.227612
-0.00273918
0.214688
-0.00481622
0.205079
-0.00753901
0.197873
-0.0121455
0.191847
-0.0202163
0.18577
-0.0345387
0.17845
-0.0586223
0.168496
-0.0950735
0.154198
-0.14305
0.133754
-0.194875
0.106811
-0.235998
0.076274
-0.250016
0.0508067
-0.241367
0.033408
-0.260634
0.0203884
-0.289631
0.00892674
-0.312349
-0.00213771
-0.323626
-0.0133024
-0.320856
-0.0251873
-0.304732
-0.0398285
-0.279063
-0.063186
-0.24927
-0.0919887
-0.244172
-0.12104
-0.248704
-0.144983
-0.222401
-0.162338
-0.175351
-0.174312
-0.123707
-0.182718
-0.0797672
-0.18914
-0.0482031
-0.194847
-0.0282097
-0.200994
-0.0166442
-0.208803
-0.0101491
-0.00639861
-0.36552
0.0091868
-0.382449
0.0151285
-0.402177
0.023228
-0.422299
0.037812
-0.437939
0.0659982
-0.440706
0.117258
-0.418058
0.200961
-0.354427
0.320667
-0.236
0.465033
-0.0632007
0.59605
0.129147
0.643902
0.284773
0.558881
0.382765
0.415888
0.429984
0.276406
0.441857
0.168284
0.433223
0.0964079
0.415143
0.0541926
0.394656
0.0316826
0.375643
0.0200217
0.359868
0.0130365
0.347787
0.00726417
0.339002
0.001246
0.332352
-0.00549562
0.326132
-0.0139955
0.318547
-0.0269541
0.307685
-0.0477606
0.291121
-0.0785093
0.26599
-0.117919
0.229445
-0.158331
0.180946
-0.187499
0.12662
-0.19569
0.0842206
-0.198967
0.0584636
-0.234877
0.0371134
-0.26828
0.0165537
-0.291789
-0.0040755
-0.302997
-0.0247167
-0.300215
-0.0454864
-0.283963
-0.0687559
-0.255794
-0.101307
-0.216719
-0.149418
-0.196061
-0.202837
-0.195285
-0.246803
-0.178435
-0.278377
-0.143777
-0.2996
-0.102484
-0.313419
-0.0659481
-0.322588
-0.0390347
-0.329301
-0.0214959
-0.335346
-0.0105999
-0.342474
-0.00302056
0.00336246
-0.449667
0.0202167
-0.463801
0.0292627
-0.479962
0.0393888
-0.495325
0.053175
-0.504316
0.0749894
-0.49768
0.110621
-0.462393
0.165674
-0.383708
0.241981
-0.250704
0.332028
-0.0671215
0.412468
0.134515
0.442265
0.303009
0.390387
0.416745
0.302152
0.478768
0.214382
0.502362
0.14469
0.502166
0.0966042
0.490011
0.0663479
0.473809
0.0478846
0.458061
0.0357697
0.444877
0.0262204
0.434908
0.0172334
0.427851
0.00830307
0.422425
-7.02255e-05
0.416476
-0.00804599
0.407725
-0.0182032
0.393679
-0.0337147
0.371227
-0.0560569
0.337189
-0.0838809
0.288781
-0.109923
0.22599
-0.124709
0.16307
-0.13277
0.119443
-0.15534
0.0875632
-0.202998
0.0571886
-0.237906
0.0257414
-0.260342
-0.0064501
-0.270805
-0.0384939
-0.268171
-0.0696384
-0.252818
-0.100217
-0.225216
-0.132339
-0.184596
-0.18353
-0.144871
-0.25125
-0.127565
-0.309605
-0.120081
-0.352382
-0.100999
-0.381681
-0.0731858
-0.400506
-0.0471227
-0.412163
-0.0273777
-0.419553
-0.0141053
-0.424993
-0.00515993
-0.430719
0.00270532
0.0112804
-0.466678
0.027998
-0.475811
0.0383955
-0.485449
0.0490266
-0.493221
0.0609469
-0.494233
0.0760011
-0.480232
0.0966205
-0.439705
0.125147
-0.360038
0.162315
-0.232817
0.204807
-0.0627023
0.242354
0.122945
0.256618
0.280962
0.23237
0.392017
0.191097
0.45712
0.149279
0.487096
0.114714
0.494716
0.0889849
0.490548
0.0705161
0.481659
0.0567728
0.471971
0.0454585
0.463216
0.0349746
0.455905
0.0245444
0.44989
0.0143181
0.444271
0.00554862
0.437291
-0.00106595
0.426777
-0.00768832
0.409873
-0.0168114
0.383108
-0.0292921
0.34424
-0.0450123
0.294349
-0.060032
0.239022
-0.0693816
0.192166
-0.0859139
0.159184
-0.122357
0.121752
-0.165566
0.0803955
-0.196549
0.0363167
-0.216263
-0.00908142
-0.225407
-0.0541504
-0.223102
-0.0972987
-0.20967
-0.136833
-0.185681
-0.171655
-0.149774
-0.210156
-0.10637
-0.261373
-0.0763478
-0.315188
-0.0662654
-0.360976
-0.0552112
-0.395075
-0.0390873
-0.417709
-0.0244884
-0.431819
-0.0132679
-0.440736
-0.00518842
-0.44697
0.00107446
-0.452526
0.0082617
0.0176512
-0.410491
0.0306096
-0.411124
0.0390284
-0.409578
0.0474808
-0.404835
0.0562045
-0.394276
0.065442
-0.373042
0.0753857
-0.333982
0.0860872
-0.26896
0.0972937
-0.172325
0.108172
-0.0468823
0.116911
0.0896007
0.120135
0.207257
0.114714
0.293461
0.104893
0.349038
0.0937013
0.381182
0.0825705
0.398071
0.0720953
0.406197
0.0623905
0.40963
0.0533393
0.410366
0.0447231
0.409046
0.0362938
0.405761
0.02783
0.400734
0.019345
0.394639
0.0116435
0.388097
0.0054759
0.380431
-2.19503e-05
0.369368
-0.00574815
0.351981
-0.011905
0.325766
-0.0187973
0.293223
-0.0274898
0.263329
-0.0394872
0.236043
-0.058628
0.201643
-0.0879577
0.155911
-0.119833
0.103305
-0.143944
0.0467349
-0.159693
-0.0116704
-0.167002
-0.0696162
-0.165156
-0.12487
-0.154416
-0.175135
-0.135416
-0.216952
-0.107958
-0.248091
-0.0752307
-0.274409
-0.0500291
-0.306119
-0.0345562
-0.337239
-0.0240905
-0.360043
-0.0162838
-0.374782
-0.00974904
-0.384287
-0.0037633
-0.391307
0.0018322
-0.39764
0.00740714
-0.403419
0.0140404
0.0221117
-0.355398
0.0187973
-0.339246
0.0228768
-0.318785
0.0270196
-0.293879
0.0312978
-0.264189
0.035752
-0.229153
0.04035
-0.188009
0.0449432
-0.139941
0.0492261
-0.0845056
0.0527367
-0.0225615
0.0549664
0.042007
0.0555663
0.102275
0.0544464
0.155401
0.0517666
0.201158
0.0479448
0.240223
0.0435054
0.273444
0.0388741
0.30153
0.0343046
0.324967
0.0299021
0.344021
0.0256693
0.358766
0.021549
0.369123
0.0174731
0.374971
0.0134967
0.37664
0.00997457
0.375053
0.00706226
0.370738
0.00429388
0.363532
0.00145777
0.353085
-0.00145879
0.33905
-0.00476172
0.321094
-0.00953397
0.299163
-0.0175559
0.271463
-0.0309285
0.232747
-0.0492412
0.181352
-0.0684382
0.120952
-0.0835437
0.0549239
-0.0936653
-0.0136862
-0.098392
-0.081646
-0.0971966
-0.1458
-0.0902624
-0.203075
-0.078141
-0.249845
-0.0611879
-0.283546
-0.0415297
-0.308416
-0.0251589
-0.328866
-0.0141062
-0.345391
-0.00756568
-0.358118
-0.00355656
-0.367392
-0.000474715
-0.373559
0.00240297
-0.376944
0.00521791
-0.377528
0.00799065
-0.374548
0.0110607
0.0147737
-0.343166
-0.325787
-0.304006
-0.277627
-0.24641
-0.210132
-0.168718
-0.122411
-0.0719733
-0.0188068
0.0351195
0.0876357
0.136904
0.18172
0.221501
0.256133
0.28576
0.310623
0.330954
0.346926
0.35865
0.366298
0.37037
0.37152
0.370027
0.366025
0.359708
0.351093
0.339407
0.322419
0.295973
0.255879
0.201216
0.135174
0.0616479
-0.0153425
-0.0914556
-0.162468
-0.224452
-0.273587
-0.307856
-0.33012
-0.344801
-0.355249
-0.363075
-0.368656
-0.371849
-0.372478
-0.370405
-0.365225
)
;

boundaryField
{
    top
    {
        type            calculated;
        value           nonuniform List<scalar> 
51
(
0.00569397
0.00549795
0.00523856
0.00491944
0.00453433
0.00407273
0.00352915
0.00291826
0.00229944
0.00179986
0.00164005
0.00193018
0.00249816
0.00312931
0.00372454
0.004242
0.00467722
0.00503917
0.00533801
0.00557719
0.00574959
0.00584836
0.00590247
0.00591266
0.00578677
0.00545964
0.00485827
0.00385325
0.002152
-0.000567877
-0.00448218
-0.00914737
-0.0137754
-0.017502
-0.020139
-0.0214015
-0.0210835
-0.0192505
-0.0161566
-0.0120528
-0.00726086
-0.00289494
0.000574522
0.00288234
0.00426994
0.00510572
0.00559628
0.00584679
0.00591742
0.00588149
0.00581731
)
;
    }
    bottom
    {
        type            calculated;
        value           uniform 0;
    }
    frontAndBack
    {
        type            empty;
        value           nonuniform 0();
    }
    left_cyc
    {
        type            cyclic;
        value           nonuniform List<scalar> 
15
(
-0.310358
-0.538942
-0.563841
-0.504228
-0.402549
-0.26805
-0.109035
0.059502
0.219403
0.352235
0.438637
0.458897
0.407879
0.36721
0.356269
)
;
    }
    right_cyc
    {
        type            cyclic;
        value           nonuniform List<scalar> 
15
(
0.310358
0.538942
0.563841
0.504228
0.402549
0.26805
0.109035
-0.059502
-0.219403
-0.352235
-0.438637
-0.458897
-0.407879
-0.36721
-0.356269
)
;
    }
}


// ************************************************************************* //
