/*--------------------------------*- C++ -*----------------------------------*\
| =========                 |                                                 |
| \\      /  F ield         | OpenFOAM: The Open Source CFD Toolbox           |
|  \\    /   O peration     | Version:  2.3.0                                 |
|   \\  /    A nd           | Web:      www.OpenFOAM.org                      |
|    \\/     M anipulation  |                                                 |
\*---------------------------------------------------------------------------*/
FoamFile
{
    version     2.0;
    format      ascii;
    class       volScalarField;
    location    "24000";
    object      T;
}
// * * * * * * * * * * * * * * * * * * * * * * * * * * * * * * * * * * * * * //

dimensions      [0 0 0 1 0 0 0];

internalField   nonuniform List<scalar> 
765
(
40.0075
40.0649
40.0153
39.9122
39.8353
39.8885
40.1542
40.4385
40.8235
41.3365
41.6162
41.14
40.6564
40.3059
40.0203
39.8357
39.8424
39.941
40.0339
40.0515
39.9471
39.7572
39.5106
39.2073
38.836
38.3779
37.8062
37.0894
36.1958
35.1015
33.7865
32.1661
30.6901
29.5921
28.8268
28.4965
28.5904
29.0826
29.9887
31.2173
32.8556
34.3392
35.5643
36.5765
37.396
38.0507
38.5734
38.9942
39.3367
39.6171
39.8429
33.0407
33.2251
33.2968
33.3034
33.3333
33.512
33.9301
34.7569
36.1184
37.9127
38.8589
37.2581
35.5705
34.4137
33.7632
33.3999
33.2885
33.2799
33.2583
33.1498
32.9208
32.5229
32.0032
31.3863
30.6757
29.8623
28.9224
27.8091
26.4419
24.7034
22.6149
20.6609
19.0613
17.7399
16.722
16.1806
16.3354
17.0883
18.243
19.665
21.3835
23.4943
25.4542
27.0269
28.2799
29.3166
30.2026
30.9737
31.6476
32.2289
32.7077
28.1425
28.4626
28.7101
28.9139
29.1267
29.44
30.0092
31.1999
33.1952
35.8098
37.1637
34.8574
32.3742
30.6648
29.7146
29.2803
29.0184
28.8156
28.599
28.3253
27.9732
27.5392
26.9825
26.3174
25.5615
24.7162
23.7849
22.7587
21.6144
20.3427
18.8794
17.248
15.5635
13.9812
12.7112
12.0206
12.2149
13.1736
14.6024
16.2517
17.9341
19.5103
20.886
22.1017
23.1917
24.1758
25.0723
25.8814
26.6027
27.2308
27.7406
26.0262
26.4011
26.7436
27.0558
27.3482
27.6744
28.258
29.4834
31.6552
34.5945
36.1086
33.5231
30.7459
28.9235
27.9633
27.5272
27.2261
26.9284
26.6044
26.2489
25.861
25.4408
24.989
24.5033
23.988
23.4499
22.8673
22.1953
21.3649
20.283
18.8506
17.0634
15.0679
13.0956
11.486
10.6175
10.8555
12.068
13.8723
15.8969
17.8361
19.4884
20.7681
21.7341
22.4885
23.1159
23.6748
24.2033
24.7079
25.1788
25.6186
26.0051
26.3414
26.6714
26.9709
27.2186
27.4534
27.9006
28.945
31.022
33.9643
35.4652
32.8957
30.1354
28.4553
27.6828
27.3508
27.1273
26.8604
26.5465
26.2113
25.8767
25.5545
25.2489
24.9572
24.6695
24.362
23.9888
23.4759
22.72
21.5947
19.981
17.8693
15.4529
13.0298
11.0422
9.98176
10.2653
11.7537
13.9776
16.4492
18.7749
20.6988
22.1037
23.0635
23.7065
24.1515
24.49
24.7846
25.0712
25.3666
25.6779
26.9216
27.1981
27.4659
27.6841
27.8217
27.9356
28.1902
29.0329
30.9429
33.7114
35.0871
32.7192
30.1176
28.6178
28.0502
27.8871
27.78
27.6126
27.3722
27.0974
26.826
26.5815
26.3722
26.193
26.0244
25.8279
25.5397
25.0654
24.2819
23.0494
21.2395
18.813
15.9807
13.1157
10.7578
9.50864
9.83701
11.5955
14.2298
17.1411
19.8406
22.0294
23.597
24.6341
25.2782
25.665
25.9068
26.0855
26.2541
26.4428
26.6653
28.0594
28.2741
28.457
28.5682
28.5925
28.5988
28.7762
29.5365
31.2268
33.6181
34.8123
32.7757
30.5118
29.1667
28.6637
28.6022
28.5932
28.5399
28.3998
28.2017
27.9859
27.7843
27.6136
27.474
27.346
27.1852
26.9156
26.4274
25.5849
24.2436
22.269
19.5923
16.4081
13.1544
10.4619
9.03423
9.40657
11.4146
14.4153
17.7122
20.7226
23.1207
24.8299
25.9569
26.6427
27.0301
27.2458
27.3864
27.515
27.6654
27.8489
29.1006
29.2452
29.3418
29.3807
29.3929
29.4066
29.615
30.2855
31.658
33.5682
34.5744
32.905
31.0935
29.9767
29.5019
29.391
29.3884
29.3749
29.317
29.202
29.047
28.8774
28.7138
28.564
28.4161
28.229
27.9228
27.38
26.4621
25.0282
22.9367
20.0963
16.6487
13.0857
10.111
8.51434
8.93227
11.1635
14.4644
18.0658
21.304
23.839
25.6481
26.859
27.6126
28.0479
28.2966
28.462
28.6082
28.7638
28.9323
29.9129
30.0248
30.1064
30.1626
30.2011
30.2802
30.5182
31.0808
32.1237
33.55
34.3648
33.0674
31.7117
30.8402
30.4103
30.2446
30.1908
30.1486
30.085
29.9942
29.8726
29.7252
29.559
29.3759
29.1647
28.8897
28.48
27.8309
26.8202
25.3205
23.1764
20.2347
16.5984
12.8349
9.6644
7.92267
8.38456
10.7891
14.2882
18.095
21.4891
24.094
25.9552
27.2433
28.0981
28.6416
28.9901
29.2356
29.4345
29.612
29.773
30.4695
30.6187
30.743
30.8487
30.9538
31.0964
31.3444
31.7966
32.5478
33.5478
34.1738
33.2269
32.2699
31.6219
31.2505
31.0482
30.9246
30.8223
30.7119
30.5792
30.4211
30.2368
30.0237
29.7733
29.4676
29.069
28.5137
27.7151
26.5791
25.0022
22.8185
19.8213
16.1075
12.2956
9.05283
7.2238
7.71682
10.2084
13.7606
17.6075
21.076
23.7344
25.649
27.0362
28.0309
28.7263
29.2141
29.5728
29.8556
30.0917
30.2943
30.5066
30.7618
30.9955
31.2128
31.4239
31.6486
31.9232
32.3018
32.8375
33.507
33.9584
33.3133
32.6614
32.1769
31.8379
31.5844
31.3667
31.1545
30.932
30.6909
30.4269
30.1364
29.8147
29.4402
28.9939
28.437
27.7119
26.7498
25.4867
23.8442
21.6364
18.6534
15.0561
11.3895
8.22871
6.39406
6.89674
9.36008
12.7862
16.4636
19.8685
22.5494
24.4988
25.9763
27.1165
27.9809
28.6359
29.1464
29.5629
29.9163
30.2261
29.4251
29.8647
30.2796
30.6754
31.0573
31.4317
31.8108
32.2143
32.6623
33.1381
33.4521
33.0218
32.5383
32.1013
31.7056
31.3278
30.9501
30.5628
30.1599
29.7361
29.2854
28.802
28.2836
27.734
27.1144
26.3918
25.5208
24.4463
23.1181
21.4695
19.318
16.5316
13.3139
10.0214
7.13036
5.40385
5.8839
8.17053
11.2761
14.5742
17.6616
20.1978
22.112
23.6179
24.8428
25.8336
26.6435
27.324
27.9161
28.4499
28.9545
26.1037
26.756
27.3794
27.9828
28.5723
29.15
29.7137
30.2576
30.7694
31.2127
31.4513
31.1162
30.6384
30.1095
29.5546
28.9828
28.3987
27.8029
27.1919
26.5581
25.8922
25.1881
24.451
23.6995
22.9485
22.1279
21.2222
20.194
18.9811
17.4997
15.6462
13.3632
10.7572
8.07301
5.67991
4.21537
4.62807
6.54619
9.10042
11.7802
14.2766
16.3799
18.0676
19.4307
20.562
21.5363
22.4042
23.1951
23.9415
24.6894
25.4145
19.2111
19.9199
20.6062
21.2762
21.9328
22.5749
23.1956
23.7807
24.304
24.714
24.8899
24.6252
24.1686
23.618
23.016
22.3843
21.7346
21.0715
20.3947
19.6997
18.9802
18.2328
17.4665
16.6985
15.9393
15.2242
14.501
13.7234
12.8478
11.8062
10.5255
8.98218
7.23953
5.43938
3.81186
2.79277
3.08312
4.40407
6.12929
7.92063
9.59135
11.0255
12.2018
13.1687
13.9993
14.7535
15.464
16.1898
16.9489
17.7154
18.4749
7.71742
8.10958
8.49788
8.88375
9.2665
9.64202
10.0017
10.3317
10.6115
10.8123
10.8862
10.7688
10.5394
10.2398
9.89687
9.52924
9.14926
8.76397
8.37621
7.98574
7.59089
7.19223
6.79694
6.41261
6.03866
5.6775
5.33913
5.01922
4.68946
4.32162
3.88847
3.373
2.77724
2.13178
1.51665
1.11353
1.23012
1.74366
2.38227
3.01134
3.5749
4.05461
4.45809
4.80664
5.12762
5.44842
5.79716
6.16157
6.53741
6.92439
7.32074
)
;

boundaryField
{
    top
    {
        type            fixedValue;
        value           uniform 0;
    }
    bottom
    {
        type            fixedValue;
        value           uniform 43.8;
    }
    frontAndBack
    {
        type            empty;
    }
    left_cyc
    {
        type            cyclic;
    }
    right_cyc
    {
        type            cyclic;
    }
}


// ************************************************************************* //
