/*--------------------------------*- C++ -*----------------------------------*\
| =========                 |                                                 |
| \\      /  F ield         | OpenFOAM: The Open Source CFD Toolbox           |
|  \\    /   O peration     | Version:  2.3.0                                 |
|   \\  /    A nd           | Web:      www.OpenFOAM.org                      |
|    \\/     M anipulation  |                                                 |
\*---------------------------------------------------------------------------*/
FoamFile
{
    version     2.0;
    format      ascii;
    class       volScalarField;
    location    "24000";
    object      T;
}
// * * * * * * * * * * * * * * * * * * * * * * * * * * * * * * * * * * * * * //

dimensions      [0 0 0 1 0 0 0];

internalField   nonuniform List<scalar> 
3060
(
33.5909
33.6138
33.6592
33.7251
33.809
33.9079
34.0181
34.1351
34.2546
34.3729
34.4849
34.5971
34.7114
34.8274
34.9449
35.0648
35.1871
35.3109
35.4343
35.5546
35.6683
35.7716
35.8604
35.9299
35.9757
35.9934
35.9807
35.9394
35.8736
35.7878
35.6866
35.5744
35.455
35.3318
35.2078
35.0851
34.9646
34.8465
34.7299
34.6151
34.5024
34.3903
34.2728
34.1534
34.0361
33.9252
33.8249
33.7392
33.6712
33.6235
33.598
33.5967
33.6196
33.665
33.7309
33.8148
33.9136
34.0236
34.1404
34.2597
34.3777
34.4898
34.6021
34.7166
34.8328
34.9507
35.0708
35.1933
35.3173
35.4408
35.5608
35.6742
35.7768
35.8647
35.9331
35.9774
35.9935
35.9792
35.9364
35.8694
35.7826
35.6808
35.5682
35.4485
35.3253
35.2015
35.079
34.9589
34.841
34.7247
34.6101
34.4976
34.3855
34.2677
34.1481
34.0306
33.9195
33.8191
33.7334
33.6654
33.6176
33.5922
28.2168
28.2733
28.3854
28.5481
28.7551
28.9993
29.2723
29.5652
29.8706
30.1847
30.5113
30.8453
31.1877
31.5349
31.8849
32.242
32.6065
32.9754
33.3428
33.7
34.0375
34.3446
34.6094
34.8183
34.9568
35.011
34.9721
34.847
34.649
34.3927
34.0918
33.7587
33.4041
33.0377
32.6683
32.3025
31.9436
31.5917
31.2432
30.8986
30.563
30.2354
29.9199
29.6136
29.3191
29.0438
28.7961
28.5845
28.4166
28.2986
28.2356
28.2322
28.2888
28.4008
28.5634
28.7704
29.0144
29.287
29.5795
29.8846
30.1987
30.5253
30.8598
31.2031
31.5511
31.902
32.26
32.6252
32.9945
33.3619
33.7185
34.0548
34.3601
34.6223
34.8278
34.962
35.0113
34.9674
34.8379
34.6364
34.3774
34.0746
33.7403
33.3851
33.0185
32.6496
32.2844
31.9264
31.5754
31.2276
30.8838
30.5487
30.2214
29.9058
29.5991
29.3043
29.0286
28.7807
28.569
28.4011
28.2831
28.2202
23.5302
23.6081
23.7627
23.9874
24.2744
24.6145
24.9979
25.415
25.8577
26.3218
26.8069
27.3136
27.8442
28.403
28.9754
29.5625
30.1622
30.768
31.3692
31.9519
32.5016
33.0026
33.4362
33.7807
34.011
34.1021
34.0367
33.8283
33.5014
33.0812
32.5903
32.0477
31.4695
30.8702
30.2641
29.6624
29.0724
28.497
27.9333
27.3983
26.8878
26.3995
25.9326
25.487
25.0666
24.6788
24.3332
24.0396
23.8072
23.6442
23.5572
23.5524
23.6303
23.7849
24.0097
24.2966
24.6366
25.0198
25.4367
25.8794
26.3437
26.8294
27.3371
27.8693
28.4299
29.0036
29.5921
30.1929
30.7993
31.4004
31.9821
32.5299
33.0279
33.4575
33.7965
34.0198
34.1026
34.0288
33.8132
33.4806
33.0562
32.5622
32.0176
31.4383
30.8388
30.2332
29.6325
29.0439
28.4701
27.908
27.3743
26.865
26.3773
25.9107
25.4651
25.0445
24.6566
24.3109
24.0173
23.7849
23.6219
23.5349
19.6474
19.7373
19.9163
20.1769
20.5108
20.909
21.3617
21.8601
22.3969
22.968
23.5722
24.2106
24.8852
25.5981
26.3475
27.124
27.9241
28.7386
29.5522
30.3441
31.0922
31.7735
32.3641
32.8354
33.1527
33.2793
33.1885
32.901
32.4534
31.8809
31.2132
30.4748
29.6888
28.8773
28.0615
27.2579
26.4766
25.7221
25.0021
24.321
23.6768
23.0673
22.4913
21.9495
21.4458
20.9869
20.5815
20.2392
19.9693
19.7802
19.6794
19.6737
19.7636
19.9426
20.2033
20.5374
20.9356
21.3885
21.8871
22.4244
22.9962
23.6016
24.2415
24.9182
25.6334
26.385
27.1636
27.9654
28.7811
29.5946
30.3853
31.1308
31.8081
32.3932
32.8571
33.1649
33.28
33.1775
32.8802
32.4249
31.8467
31.1749
30.4338
29.6463
28.8346
28.0197
27.2178
26.4385
25.6859
24.9685
24.2895
23.647
23.0387
22.4635
21.9222
21.4188
20.96
20.5547
20.2126
19.9428
19.7538
19.6531
16.5738
16.6701
16.8622
17.1426
17.5028
17.9341
18.4278
18.9759
19.5722
20.2131
20.8976
21.6265
22.4023
23.2272
24.1024
25.0208
25.9758
26.9555
27.9419
28.9108
29.8326
30.6747
31.4051
31.9887
32.3832
32.5414
32.428
32.0705
31.5159
30.808
29.9827
29.0723
28.1093
27.1242
26.1419
25.1818
24.2565
23.3735
22.5401
21.7563
21.0197
20.3283
19.6806
19.0776
18.5224
18.0209
17.5808
17.2109
16.92
16.7165
16.6082
16.6019
16.6982
16.8905
17.1711
17.5316
17.9633
18.4575
19.0063
19.6035
20.2457
20.9318
21.6629
22.4412
23.269
24.1471
25.0684
26.0257
27.007
27.9938
28.9616
29.8804
30.7177
31.4412
32.0158
32.3985
32.5422
32.4142
32.0446
31.4806
30.7656
29.9352
29.0216
28.0573
27.0723
26.0916
25.1337
24.2111
23.331
22.5006
21.7193
20.985
20.2953
19.6489
19.0468
18.4923
17.9914
17.5518
17.1822
16.8916
16.6883
16.58
14.2334
14.3338
14.5344
14.8272
15.2039
15.6557
16.1742
16.7521
17.3841
18.067
18.8002
19.5851
20.4245
21.322
22.2806
23.2968
24.3621
25.4628
26.5791
27.6838
28.743
29.7174
30.5646
31.2413
31.6986
31.8821
31.7508
31.3365
30.6937
29.8726
28.9172
27.87
26.7708
25.6548
24.5502
23.4781
22.4532
21.4847
20.5773
19.7284
18.9347
18.1931
17.5021
16.862
16.2756
15.7481
15.2865
14.8991
14.5947
14.3819
14.2685
14.2617
14.3622
14.563
14.8562
15.2334
15.6858
16.2051
16.7842
17.4175
18.1022
18.8375
19.625
20.4675
21.3684
22.3305
23.3502
24.4184
25.5213
26.6385
27.7423
28.7985
29.7674
30.6067
31.2727
31.7164
31.8831
31.7347
31.3063
30.6527
29.8234
28.8622
27.8116
26.7113
25.596
24.4933
23.4241
22.4025
21.4377
20.5338
19.6879
18.8968
18.1575
17.4682
16.8295
16.2442
15.7176
15.2567
14.8699
14.5659
14.3534
14.2402
12.5056
12.6101
12.819
13.1238
13.5154
13.9844
14.5219
15.1207
15.7753
16.483
17.2434
18.0588
18.9331
19.8713
20.8788
21.955
23.0908
24.2719
25.4769
26.677
27.8348
28.9063
29.8418
30.5887
31.0918
31.2929
31.1493
30.694
29.9851
29.0784
28.0271
26.8814
25.6864
24.4807
23.2945
22.1505
21.064
20.045
19.0957
18.211
17.3859
16.6162
15.8996
15.236
14.628
14.0807
13.6011
13.1981
12.8808
12.6587
12.5403
12.5331
12.6378
12.847
13.1523
13.5446
14.0144
14.553
15.1531
15.8094
16.5192
17.2822
18.1005
18.9782
19.9204
20.9321
22.0123
23.1516
24.3353
25.5416
26.741
27.8958
28.9616
29.8884
30.6235
31.1114
31.294
31.1316
30.6608
29.9396
29.0239
27.9665
26.8174
25.6216
24.4169
23.2332
22.0926
21.0101
19.9953
19.0499
18.1687
17.3465
16.5794
15.8649
15.2031
14.5965
14.0503
13.5717
13.1693
12.8526
12.6309
12.5127
11.2556
11.3658
11.586
11.9067
12.3174
12.807
13.3654
13.9844
14.6577
15.3824
16.1583
16.9885
17.878
18.834
19.8643
20.97
22.143
23.3689
24.6261
25.8843
27.104
28.2373
29.2297
30.0219
30.5529
30.7637
30.6136
30.1338
29.3825
28.4208
27.3084
26.1009
24.8473
23.5885
22.3565
21.1743
20.0571
19.0143
18.0466
17.1461
16.3058
15.5203
14.7864
14.1038
13.4753
12.9065
12.4058
11.983
11.649
11.4147
11.2896
11.2819
11.3923
11.6129
11.9342
12.3455
12.8361
13.3959
14.0163
14.6916
15.4186
16.1973
17.0307
17.924
18.8843
19.9192
21.0294
22.2063
23.4353
24.6941
25.9519
27.1686
28.2961
29.2792
30.0587
30.5735
30.7648
30.595
30.0986
29.3342
28.3629
27.2442
26.0334
24.7791
23.5218
22.2926
21.1143
20.0015
18.9634
17.9998
17.1031
16.2662
15.4835
14.7519
14.0713
13.4444
12.8769
12.3772
11.9552
11.6219
11.388
11.2632
10.357
10.4752
10.7113
11.0542
11.4912
12.009
12.5952
13.2394
13.9342
14.6755
15.4631
16.3005
17.1941
18.153
19.1874
20.2997
21.4832
22.7246
24.0027
25.2864
26.5348
27.6976
28.7167
29.5292
30.071
30.2842
30.1329
29.6443
28.8745
27.8872
26.7459
25.5096
24.2301
22.9499
21.7017
20.5083
19.384
18.3366
17.3658
16.4611
15.6137
14.8167
14.0664
13.3625
12.7086
12.1119
11.5825
11.1327
10.7757
10.5244
10.3902
10.382
10.5004
10.7369
11.0804
11.5182
12.037
12.6246
13.2705
13.9672
14.711
15.5015
16.3423
17.2399
18.2033
19.2426
20.3597
21.5474
22.7922
24.0721
25.3557
26.6013
27.7581
28.7677
29.5669
30.092
30.2854
30.114
29.6082
28.8248
27.8276
26.6799
25.4404
24.1604
22.8819
21.6369
20.4476
19.3281
18.2856
17.3192
16.4186
15.5746
14.7806
14.0327
13.3309
12.6787
12.0834
11.5551
11.1062
10.7499
10.4991
10.3651
9.70311
9.83194
10.089
10.4612
10.9332
11.4886
12.1118
12.7898
13.5127
14.2751
15.0762
15.9195
16.8125
17.7659
18.7923
19.8946
21.0684
22.302
23.5751
24.8567
26.1053
27.2692
28.2885
29.0989
29.6364
29.8461
29.6978
29.214
28.4471
27.4602
26.3181
25.0817
23.8041
22.5286
21.2879
20.104
18.9896
17.9504
16.9853
16.0817
15.229
14.4191
13.6482
12.9165
12.2292
11.5953
11.028
10.5425
10.1553
9.88185
9.73572
9.7268
9.85578
10.1132
10.4861
10.9589
11.5154
12.14
12.8196
13.5446
14.3095
15.1135
15.9603
16.8573
17.8153
18.8467
19.954
21.1322
22.3694
23.6445
24.9261
26.1719
27.3298
28.3395
29.1365
29.6571
29.8473
29.6792
29.1781
28.3974
27.4004
26.252
25.0124
23.7345
22.4608
21.2235
20.0439
18.9345
17.9003
16.9397
16.0402
15.191
14.3841
13.6157
12.8861
12.2004
11.568
11.0019
10.5173
10.1307
9.85783
9.71197
9.21079
9.35263
9.63545
10.0439
10.5595
11.162
11.8323
12.5536
13.3134
14.1041
14.9237
15.7755
16.6678
17.6124
18.6234
19.7047
20.8541
22.0621
23.3097
24.5667
25.7917
26.9329
27.9305
28.7205
29.2415
29.4434
29.3011
28.8331
28.0863
27.1213
26.0021
24.7893
23.5363
22.2865
21.0715
19.9121
18.8194
17.7963
16.8406
15.9387
15.0783
14.2508
13.4524
12.6846
11.9542
11.2734
10.6585
10.1287
9.70412
9.4036
9.24295
9.23325
9.37525
9.65847
10.0676
10.584
11.1876
11.8592
12.5822
13.344
14.1372
14.9597
15.8149
16.7112
17.6603
18.6763
19.7625
20.9164
22.1281
23.3777
24.6347
25.857
26.9923
27.9802
28.757
29.2615
29.4445
29.2832
28.7982
28.0378
27.0629
25.9372
24.7213
23.4681
22.2201
21.0085
19.8536
18.7657
17.7476
16.7965
15.8986
15.0416
14.2171
13.4211
12.6553
11.9266
11.2472
10.6335
10.1047
9.68079
9.38077
9.22041
8.81871
8.97563
9.28838
9.73917
10.3058
10.9642
11.6908
12.4649
13.2705
14.0975
14.9424
15.8077
16.7019
17.6377
18.6296
19.6829
20.798
21.9675
23.1739
24.3886
25.5713
26.671
27.6295
28.3854
28.8811
29.0721
28.9379
28.4933
27.7799
26.8536
25.7757
24.6055
23.3951
22.1867
21.0108
19.8865
18.8226
17.82
16.8741
15.9713
15.0987
14.2471
13.4134
12.6005
11.8178
11.0808
10.4097
9.82803
9.35994
9.028
8.85062
8.84009
8.99716
9.3103
9.76171
10.3292
10.9887
11.7166
12.4923
13.2998
14.1292
14.9768
15.8454
16.7435
17.6838
18.6804
19.7385
20.858
22.031
23.2395
24.4542
25.6342
26.7281
27.6771
28.4201
28.9
29.0731
28.921
28.4602
27.7335
26.7975
25.7133
24.54
23.3293
22.1227
20.9502
19.8302
18.7711
17.7732
16.8317
15.9329
15.0635
14.2147
13.3834
12.5724
11.7913
11.0557
10.3858
9.80503
9.33767
9.00625
8.82917
8.48374
8.65731
9.00322
9.50103
10.1248
10.846
11.6365
12.4715
13.331
14.2022
15.0793
15.964
16.8643
17.7935
18.7651
19.787
20.8617
21.9838
23.1379
24.2971
25.4232
26.4675
27.374
28.0857
28.5502
28.7284
28.6036
28.1877
27.5168
26.6417
25.6191
24.5055
23.351
22.1956
21.068
19.9852
18.9541
17.9732
17.0355
16.128
15.2374
14.355
13.4783
12.6123
11.7693
10.9683
10.2341
9.59441
9.07804
8.71136
8.51556
8.50413
8.67785
9.02415
9.52258
10.1472
10.8694
11.6613
12.4978
13.3592
14.2325
15.1122
16
16.904
17.8374
18.8135
19.8399
20.9188
22.0442
23.2002
24.3594
25.4827
26.5213
27.4188
28.1182
28.5678
28.7294
28.5878
28.1567
27.4732
26.5887
25.56
24.4434
23.2885
22.1348
21.0104
19.9317
18.905
17.9286
16.995
16.0913
15.2038
14.3239
13.4494
12.5853
11.7438
10.9442
10.2111
9.57234
9.05671
8.69057
8.49508
8.17645
8.36773
8.74896
9.29696
9.98188
10.7707
11.6308
12.5326
13.4526
14.3745
15.2904
16.2003
17.1116
18.0371
18.9897
19.9794
21.0109
22.0804
23.1745
24.2689
25.3282
26.3077
27.153
27.8137
28.2436
28.4083
28.293
27.9086
27.2865
26.4716
25.514
24.4669
23.3776
22.2831
21.2095
20.1714
19.1739
18.2137
17.2815
16.3648
15.4505
14.5307
13.6045
12.679
11.7696
10.8992
10.0968
9.39512
8.82727
8.42364
8.20829
8.19595
8.38738
8.76899
9.31761
10.0034
10.7933
11.6546
12.5579
13.4796
14.4036
15.3219
16.2347
17.1493
18.0787
19.0354
20.0293
21.0646
22.1371
23.2329
24.3271
25.3838
26.3577
27.1944
27.8436
28.2597
28.4092
28.2786
27.8801
27.2463
26.4224
25.4588
24.4088
23.3191
22.2261
21.1553
20.1209
19.1275
18.1715
17.243
16.3297
15.4183
14.5009
13.5767
12.6529
11.745
10.8759
10.0746
9.37388
8.80679
8.40372
8.1887
7.87718
8.08674
8.50435
9.104
9.85191
10.7107
11.6432
12.6156
13.6003
14.5779
15.5379
16.4784
17.4056
18.3311
19.2672
20.2264
21.2151
22.2293
23.2588
24.2822
25.2673
26.1735
26.9535
27.5614
27.9562
28.1076
28.0018
27.6491
27.0772
26.3258
25.4404
24.4679
23.4505
22.4218
21.4049
20.4118
19.4462
18.5043
17.5741
16.6435
15.7002
14.7377
13.757
12.7676
11.7881
10.8453
9.97256
9.20699
8.58622
8.14459
7.90912
7.89584
8.10554
8.52355
9.12383
9.8726
10.7324
11.6661
12.64
13.6263
14.6058
15.568
16.5112
17.4413
18.3702
19.3101
20.2731
21.2651
22.2819
23.3128
24.3358
25.3184
26.2192
26.9913
27.5887
27.9709
28.1084
27.9887
27.6231
27.0405
26.2808
25.3898
24.4144
23.3964
22.3688
21.3544
20.3645
19.4027
18.4645
17.5377
16.61
15.6693
14.709
13.7301
12.7423
11.7643
10.8227
9.95111
9.18652
8.56653
8.12547
7.89035
7.57285
7.80082
8.25481
8.90579
9.71615
10.6443
11.6492
12.693
13.7441
14.7802
15.7881
16.7638
17.7114
18.6409
19.564
20.4939
21.4383
22.3969
23.361
24.3119
25.2215
26.0538
26.7678
27.3229
27.683
27.8211
27.7247
27.4033
26.8815
26.1942
25.3816
24.4847
23.5405
22.5784
21.6186
20.6711
19.7372
18.8106
17.8786
16.9294
15.9526
14.9436
13.9055
12.8505
11.8002
10.7849
9.84223
9.01343
8.34015
7.8606
7.60492
7.59069
7.8188
8.2732
8.92483
9.73606
10.6653
11.6714
12.7166
13.7693
14.8071
15.8169
16.795
17.7452
18.6777
19.604
20.5371
21.4844
22.4453
23.4104
24.3608
25.2678
26.0952
26.802
27.3475
27.6962
27.8218
27.7128
27.3798
26.8483
26.1534
25.3357
24.4359
23.491
22.5298
21.572
20.6273
19.6967
18.7732
17.8441
16.8974
15.9229
14.9158
13.8794
12.826
11.7771
10.763
9.82149
8.99369
8.32121
7.84227
7.58696
7.25451
7.50084
7.99022
8.6904
9.5601
10.554
11.627
12.7383
13.8536
14.9475
16.0044
17.0179
17.9895
18.927
19.8416
20.7469
21.6519
22.5582
23.4594
24.34
25.1759
25.9363
26.5859
27.0897
27.416
27.5414
27.454
27.1628
26.6897
26.0648
25.3231
24.4998
23.6265
22.7285
21.8225
20.9162
20.009
19.0931
18.1553
17.1839
16.1709
15.1141
14.019
12.9004
11.7828
10.6995
9.69102
8.80227
8.0788
7.56251
7.28677
7.27153
7.51801
8.00781
8.70866
9.57925
10.5742
11.6485
12.7611
13.8778
14.9734
16.0321
17.0476
18.0215
18.9614
19.8786
20.7867
21.6941
22.6022
23.5042
24.3841
25.2175
25.9734
26.6165
27.1117
27.4279
27.542
27.4434
27.1419
26.66
26.0283
25.2818
24.4558
23.5816
22.6842
21.7798
20.8759
19.9714
19.0581
18.1226
17.1534
16.1424
15.0873
13.9937
12.8766
11.7604
10.6783
9.67097
8.78325
8.06062
7.54497
7.26961
6.91485
7.17815
7.69954
8.44367
9.36611
10.4185
11.5529
12.726
13.9011
15.0506
16.1561
17.2087
18.2073
19.1568
20.0682
20.955
21.8268
22.6867
23.5304
24.3456
25.1125
25.8052
26.3942
26.8494
27.1439
27.2571
27.1783
26.9156
26.4883
25.9223
25.2472
24.4927
23.6854
22.846
21.988
21.1168
20.2302
19.3196
18.3718
17.3751
16.3244
15.2199
14.07
12.892
11.7128
10.568
9.50088
8.55889
7.79065
7.24123
6.94712
6.93104
7.19448
7.7163
8.46113
9.38449
10.4379
11.5737
12.7481
13.9246
15.0756
16.1827
17.237
18.2375
19.189
20.1025
20.9915
21.8652
22.7265
23.5706
24.385
25.1496
25.8382
26.4212
26.8688
27.1544
27.2576
27.1689
26.8971
26.4619
25.8898
25.2104
24.4533
23.645
22.806
21.9492
21.0798
20.1953
19.2868
18.3408
17.346
16.2969
15.194
14.0455
12.8689
11.691
10.5475
9.48154
8.54061
7.77325
7.2245
6.9308
6.54842
6.82598
7.37388
8.1541
9.11976
10.2204
11.4063
12.6323
13.8602
15.0602
16.2118
17.3033
18.3307
19.2961
20.2098
21.0849
21.9309
22.7521
23.5459
24.3031
25.008
25.6393
26.1729
26.5836
26.8489
26.9509
26.8799
26.6434
26.258
25.7456
25.1309
24.4383
23.6896
22.9013
22.0836
21.2399
20.3669
19.4558
18.4939
17.4699
16.3814
15.2317
14.0317
12.8012
11.569
10.3728
9.25714
8.27155
7.46665
6.88991
6.58046
6.56372
6.84143
7.38978
8.17071
9.13733
10.2391
11.4263
12.6536
13.8829
15.0844
16.2374
17.3304
18.3594
19.3263
20.2416
21.1184
21.9659
22.7879
23.5819
24.3382
25.0408
25.6684
26.1967
26.6007
26.8581
26.9514
26.8716
26.6271
26.2348
25.7169
25.0983
24.4033
23.6534
22.8651
22.0482
21.2059
20.3345
19.425
18.4646
17.442
16.3549
15.2065
14.0079
12.7788
11.5479
10.353
9.23856
8.25406
7.45007
6.87403
6.56501
6.15139
6.43943
7.00634
7.8121
8.80836
9.9436
11.1675
12.434
13.704
14.9463
16.1384
17.2662
18.3227
19.3067
20.2278
21.0981
21.9266
22.7177
23.4708
24.1792
24.8307
25.4087
25.8936
26.2651
26.5044
26.5964
26.5323
26.319
25.9705
25.5051
24.9429
24.3036
23.6043
22.8577
22.0714
21.2469
20.3804
19.4635
18.4846
17.4326
16.3086
15.1189
13.8768
12.6042
11.3315
10.0973
8.94683
7.93043
7.09969
6.50349
6.18293
6.16575
6.45395
7.02132
7.82782
8.82507
9.96148
11.1866
12.4545
13.7259
14.9696
16.1631
17.2921
18.3499
19.335
20.2574
21.1289
21.9583
22.7501
23.503
24.2103
24.8597
25.4343
25.9145
26.2801
26.5124
26.5968
26.525
26.3047
25.9501
25.4799
24.9141
24.2725
23.5719
22.8251
22.0392
21.2157
20.3503
19.4345
18.4566
17.4059
16.2831
15.0945
13.8538
12.5825
11.3112
10.0782
8.92906
7.91379
7.084
6.48852
6.1684
5.72117
6.01485
6.59132
7.40943
8.42046
9.57307
10.8173
12.1077
13.4049
14.6772
15.9005
17.0584
18.1413
19.1446
20.077
20.9485
21.7672
22.5376
23.2598
23.9295
24.5375
25.0712
25.5153
25.8535
26.0706
26.154
26.0958
25.9021
25.5848
25.1589
24.6402
24.0443
23.3842
22.6695
21.9052
21.0919
20.2256
19.2987
18.3015
17.224
16.0703
14.8495
13.5775
12.2776
10.9809
9.72603
8.55818
7.52702
6.68395
6.0782
5.75187
5.73454
6.02838
6.60532
7.42419
8.43624
9.59006
10.8357
12.1274
13.426
14.6996
15.9242
17.0833
18.1672
19.1713
20.1046
20.9769
21.7962
22.5668
23.2886
23.9571
24.5631
25.0936
25.5335
25.8665
26.0776
26.1543
26.0894
25.8896
25.567
25.1367
24.6148
24.0166
23.3552
22.64
21.8759
21.063
20.1974
19.2714
18.2749
17.1983
16.0456
14.826
13.5553
12.2567
10.9613
9.70786
8.54131
7.51131
6.66922
6.06421
5.73834
5.25613
5.54961
6.12432
6.93901
7.94578
9.09476
10.3377
11.6306
12.9352
14.2199
15.46
16.6372
17.7396
18.7594
19.7038
20.5804
21.3955
22.1531
22.8539
23.4948
24.0695
24.5684
24.9797
25.291
25.4901
25.5664
25.5129
25.3351
25.0429
24.6484
24.164
23.6014
22.9704
22.278
21.5276
20.7189
19.8486
18.9105
17.8974
16.8008
15.6278
14.3902
13.1055
11.7978
10.4983
9.24471
8.08058
7.05395
6.21475
5.61125
5.28559
5.26843
5.56207
6.13726
6.95273
7.96054
9.11076
10.3551
11.6494
12.9554
14.2415
15.4827
16.6611
17.7642
18.7847
19.7296
20.6067
21.4221
22.1796
22.8797
23.5194
24.092
24.588
24.9957
25.3024
25.4962
25.5667
25.5073
25.3241
25.0273
24.6289
24.1415
23.5767
22.9444
22.2512
21.5006
20.6921
19.8222
18.8847
17.8721
16.7762
15.6041
14.3676
13.0841
11.7778
10.4798
9.22752
8.06471
7.03928
6.20107
5.59832
5.27313
4.75544
5.04199
5.60195
6.39507
7.37554
8.49624
9.71188
10.9811
12.2677
13.5414
14.7774
15.9569
17.0658
18.0941
19.0464
19.9276
20.7418
21.4918
22.1781
22.7986
23.3487
23.8214
24.2077
24.4982
24.6832
24.7538
24.7039
24.5383
24.2656
23.895
23.4362
22.898
22.2878
21.6105
20.8684
20.0615
19.1871
18.2414
17.2199
16.1166
14.9411
13.707
12.4329
11.1428
9.86676
8.64047
7.50493
6.50523
5.68847
5.10081
4.78323
4.7666
5.0533
5.61374
6.40765
7.38916
8.51111
9.72813
10.9988
12.2869
13.5618
14.7991
15.9796
17.0893
18.118
19.0707
19.9522
20.7664
21.516
22.2015
22.8206
23.3688
23.8387
24.2217
24.5082
24.6885
24.754
24.6989
24.5287
24.2518
23.8777
23.4161
22.8759
22.2642
21.5859
20.8434
20.0364
19.1622
18.217
17.1959
16.0932
14.9185
13.6855
12.4126
11.1239
9.84928
8.62441
7.49022
6.49171
5.67595
5.08903
4.77191
4.21909
4.49123
5.02206
5.77351
6.70307
7.76755
8.92575
10.1401
11.3777
12.6102
13.8144
14.9714
16.0662
17.0873
18.0365
18.9151
19.7249
20.467
21.1412
21.7457
22.2769
22.7294
23.0966
23.371
23.5449
23.6112
23.5639
23.4077
23.1498
22.7975
22.3583
21.8389
21.2448
20.5798
19.846
19.0437
18.172
17.2292
16.2138
15.1244
13.9709
12.768
11.5344
10.293
9.07164
7.90299
6.82429
5.87653
5.10285
4.54602
4.24471
4.22902
4.50131
5.03262
5.78483
6.71542
7.78113
8.9407
10.1565
11.3955
12.6294
13.8348
14.9927
16.0884
17.1099
18.0593
18.938
19.7477
20.4892
21.1625
21.7656
22.2949
22.7449
23.109
23.3797
23.5496
23.6113
23.5595
23.3991
23.1375
22.782
22.3402
21.8188
21.2232
20.5572
19.8228
19.0203
18.1486
17.2062
16.1916
15.1024
13.9496
12.7478
11.5154
10.2754
9.0555
7.88826
6.81089
5.8643
5.0916
4.53548
4.23463
3.6479
3.89766
4.38409
5.07242
5.92459
6.90239
7.96972
9.09376
10.2456
11.4005
12.5373
13.6385
14.6896
15.6787
16.604
17.4637
18.2569
18.9826
19.6398
20.2261
20.7384
21.1722
21.5222
21.7826
21.9471
22.0095
21.9645
21.8163
21.5712
21.2351
20.8139
20.3131
19.737
19.089
18.3715
17.5857
16.7325
15.8128
14.8282
13.7816
12.6829
11.5466
10.3901
9.23398
8.10299
7.02571
6.03467
5.16579
4.45721
3.94715
3.67085
3.65652
3.90643
4.3933
5.08236
5.9355
6.91448
7.98312
9.10856
10.2618
11.418
12.556
13.6582
14.7101
15.6997
16.6253
17.4851
18.2779
19.0031
19.6592
20.2442
20.7546
21.186
21.5332
21.7904
21.9512
22.0096
21.9605
21.8086
21.5601
21.2212
20.7976
20.2948
19.7172
19.0681
18.3499
17.5638
16.7106
15.7912
14.8071
13.7611
12.6633
11.5281
10.3728
9.21803
8.08844
7.01253
6.02276
5.15501
4.44734
3.93796
3.66208
3.04357
3.26285
3.68931
4.29264
5.04016
5.89955
6.84053
7.83578
8.8613
9.89636
10.9233
11.9272
12.8954
13.8171
14.687
15.5
16.253
16.9432
17.5681
18.1247
18.6099
19.0194
19.3487
19.5931
19.7471
19.8053
19.7629
19.6237
19.3933
19.0767
18.679
18.2045
17.6575
17.0412
16.3587
15.6125
14.8052
13.9399
13.0214
12.0562
11.0537
10.0264
8.98902
7.95916
6.95729
6.00722
5.13603
4.3738
3.75279
3.30573
3.06332
3.05079
3.27021
3.69708
4.30106
5.04947
5.90993
6.85211
7.84865
8.87547
9.91179
10.9399
11.9448
12.9137
13.8361
14.7063
15.5195
16.2722
16.9617
17.5856
18.141
18.6243
19.0317
19.3585
19.5999
19.7507
19.8054
19.7593
19.6168
19.3834
19.0643
18.6643
18.1881
17.6396
17.0223
16.3391
15.5925
14.7851
13.9201
13.0021
12.0377
11.0361
10.0099
8.97376
7.94521
6.94466
5.99586
5.12583
4.36463
3.74444
3.298
3.05597
2.40875
2.58969
2.94118
3.43829
4.0546
4.76431
5.54348
6.37072
7.22739
8.09749
8.9675
9.82608
10.6638
11.4727
12.2441
12.9708
13.6476
14.2706
14.836
15.3403
15.7798
16.1506
16.4485
16.6693
16.8083
16.8607
16.8222
16.6962
16.4877
16.2011
15.8406
15.4106
14.9148
14.3569
13.7406
13.0694
12.3474
11.5794
10.7723
9.936
9.07757
8.20639
7.33371
6.4729
5.63979
4.85284
4.13324
3.50476
2.99311
2.62473
2.42481
2.4145
2.59556
2.94739
3.44506
4.06213
4.77275
5.55295
6.38131
7.23912
8.11034
8.98137
9.84082
10.6791
11.4891
12.261
12.9878
13.6644
14.2868
14.8513
15.3544
15.7924
16.1613
16.457
16.6752
16.8114
16.8608
16.819
16.6902
16.4791
16.1902
15.8279
15.3962
14.8991
14.3403
13.7234
13.0519
12.3298
11.5621
10.7556
9.92011
9.06265
8.19255
7.32101
6.46137
5.62942
4.84357
4.12498
3.49736
2.98641
2.61856
2.41895
1.74704
1.88255
2.14549
2.51722
2.97822
3.50964
4.09419
4.71661
5.36374
6.02453
6.6899
7.35268
8.00752
8.65107
9.27185
9.86184
10.4152
10.9274
11.3943
11.812
12.1769
12.4851
12.7329
12.9165
13.0322
13.0757
13.0435
12.9384
12.7647
12.5261
12.2263
11.8691
11.4582
10.9972
10.4902
9.94098
9.35424
8.73563
8.09294
7.43782
6.77419
6.10724
5.444
4.79339
4.16632
3.57576
3.03685
2.56673
2.18414
1.90861
1.75894
1.75124
1.88684
2.15005
2.5222
2.98377
3.5159
4.10126
4.72455
5.37258
6.03428
6.70053
7.36415
8.01976
8.66413
9.28537
9.87551
10.4288
10.9405
11.4067
11.8235
12.1871
12.4938
12.7398
12.9213
13.0347
13.0757
13.0409
12.9336
12.7578
12.5173
12.216
11.8574
11.4454
10.9838
10.4762
9.92682
9.34013
8.72182
8.0797
7.42543
6.7627
6.09669
5.43439
4.78472
4.15856
3.56886
3.03073
2.56127
2.17923
1.90409
1.75466
1.06294
1.14718
1.31045
1.5411
1.82707
2.15677
2.5197
2.90669
3.30997
3.72323
4.14162
4.56197
4.98311
5.40652
5.82035
6.21745
6.59287
6.94261
7.2632
7.55134
7.80389
8.0178
8.1901
8.31792
8.39846
8.42879
8.40621
8.33293
8.21188
8.04584
7.83764
7.59021
7.30657
6.98985
6.64331
6.27043
5.87514
5.46231
5.03892
4.61647
4.1949
3.77511
3.36007
2.95446
2.56448
2.19776
1.86339
1.57176
1.33438
1.16331
1.0703
1.06551
1.14981
1.31324
1.54417
1.8305
2.16064
2.52408
2.91163
3.3155
3.72936
4.14838
4.56939
4.9913
5.41527
5.82945
6.2267
6.60207
6.95157
7.2717
7.55918
7.81088
8.02373
8.1948
8.32122
8.40019
8.42879
8.40446
8.32959
8.20711
8.0398
7.83052
7.5822
7.29787
6.98066
6.63383
6.26085
5.86564
5.45308
5.03017
4.60847
4.1876
3.76846
3.35405
2.94905
2.55965
2.19349
1.8596
1.5684
1.33135
1.16054
1.06768
0.361714
0.390617
0.44655
0.52542
0.622998
0.735247
0.858533
0.989713
1.12618
1.26591
1.40753
1.55063
1.69668
1.85126
2.00525
2.15489
2.29784
2.43227
2.55648
2.66889
2.76799
2.8523
2.92044
2.9711
3.00305
3.01508
3.0061
2.97701
2.929
2.8633
2.78118
2.68401
2.57325
2.45042
2.31708
2.17491
2.02575
1.8719
1.71698
1.56953
1.42571
1.28352
1.14317
1.00592
0.873744
0.749198
0.635381
0.53589
0.454735
0.396142
0.364233
0.362589
0.391512
0.447501
0.526463
0.624162
0.736561
0.860017
0.991382
1.12805
1.26799
1.40984
1.55323
1.69975
1.85459
2.00874
2.15846
2.30142
2.43577
2.55982
2.67199
2.77076
2.85466
2.92231
2.97241
3.00374
3.01508
3.00541
2.97568
2.9271
2.8609
2.77836
2.68085
2.56983
2.44682
2.31339
2.17121
2.02211
1.8684
1.71372
1.56674
1.42321
1.28127
1.14113
1.00409
0.87211
0.747747
0.634094
0.534746
0.453706
0.395197
0.36334
)
;

boundaryField
{
    top
    {
        type            fixedValue;
        value           uniform 0;
    }
    bottom
    {
        type            fixedValue;
        value           uniform 36.5;
    }
    frontAndBack
    {
        type            empty;
    }
    left_cyc
    {
        type            cyclic;
    }
    right_cyc
    {
        type            cyclic;
    }
}


// ************************************************************************* //
