/*--------------------------------*- C++ -*----------------------------------*\
| =========                 |                                                 |
| \\      /  F ield         | OpenFOAM: The Open Source CFD Toolbox           |
|  \\    /   O peration     | Version:  2.3.0                                 |
|   \\  /    A nd           | Web:      www.OpenFOAM.org                      |
|    \\/     M anipulation  |                                                 |
\*---------------------------------------------------------------------------*/
FoamFile
{
    version     2.0;
    format      ascii;
    class       volVectorField;
    location    "24000";
    object      U;
}
// * * * * * * * * * * * * * * * * * * * * * * * * * * * * * * * * * * * * * //

dimensions      [0 1 -1 0 0 0 0];

internalField   nonuniform List<vector> 
765
(
(2.03691 0 -2.29251)
(5.22449 0 -2.2008)
(8.18388 0 -2.01481)
(10.7737 0 -1.72068)
(12.8516 0 -1.29945)
(14.2615 0 -0.709558)
(14.8111 0 0.111962)
(14.2562 0 1.10326)
(12.4025 0 1.73048)
(9.53221 0 1.66071)
(6.17023 0 1.3463)
(2.99322 0 1.02127)
(0.290698 0 0.84554)
(-2.3421 0 0.958552)
(-5.40205 0 1.27084)
(-8.79207 0 1.59789)
(-11.8267 0 1.75682)
(-13.9587 0 1.31324)
(-14.8098 0 0.337061)
(-14.4956 0 -0.538406)
(-13.2705 0 -1.17663)
(-11.3375 0 -1.63174)
(-8.85899 0 -1.95307)
(-5.97805 0 -2.16333)
(-2.83498 0 -2.27639)
(0.429088 0 -2.3057)
(3.67509 0 -2.25547)
(6.7634 0 -2.11831)
(9.55278 0 -1.88049)
(11.9033 0 -1.52753)
(13.6694 0 -1.03161)
(14.6805 0 -0.336425)
(14.7225 0 0.591348)
(13.5365 0 1.50755)
(11.1263 0 1.74987)
(7.94298 0 1.5183)
(4.57135 0 1.18643)
(1.64327 0 0.901074)
(-0.941619 0 0.861523)
(-3.74298 0 1.0988)
(-7.03469 0 1.42989)
(-10.3292 0 1.71383)
(-12.9908 0 1.65124)
(-14.5225 0 0.855466)
(-14.7751 0 -0.115628)
(-13.9917 0 -0.874727)
(-12.4002 0 -1.41703)
(-10.1823 0 -1.80403)
(-7.48838 0 -2.07014)
(-4.45953 0 -2.23163)
(-1.23751 0 -2.30235)
(2.26467 0 -4.93683)
(5.79277 0 -4.68611)
(9.03237 0 -4.21925)
(11.8308 0 -3.54468)
(14.0608 0 -2.6657)
(15.6263 0 -1.5738)
(16.4768 0 -0.25798)
(16.6016 0 1.26421)
(15.9783 0 2.98624)
(14.0615 0 4.79676)
(10.3562 0 5.54437)
(5.59762 0 5.06241)
(0.563899 0 4.6633)
(-4.45071 0 4.92586)
(-9.34724 0 5.48386)
(-13.3657 0 5.14057)
(-15.7199 0 3.41312)
(-16.5537 0 1.64511)
(-16.5987 0 0.0811201)
(-15.9184 0 -1.28379)
(-14.5199 0 -2.42531)
(-12.4418 0 -3.35136)
(-9.77007 0 -4.07307)
(-6.62483 0 -4.58971)
(-3.15232 0 -4.89328)
(0.478649 0 -4.97614)
(4.08563 0 -4.83512)
(7.48837 0 -4.47515)
(10.5235 0 -3.90458)
(13.0515 0 -3.13059)
(14.9599 0 -2.15099)
(16.1741 0 -0.953135)
(16.6668 0 0.464323)
(16.4339 0 2.07639)
(15.3162 0 3.88625)
(12.4749 0 5.41389)
(8.16199 0 5.37066)
(3.1669 0 4.79307)
(-1.82662 0 4.69971)
(-6.86255 0 5.21782)
(-11.4266 0 5.54311)
(-14.7372 0 4.36562)
(-16.2248 0 2.53374)
(-16.6506 0 0.866041)
(-16.3453 0 -0.606438)
(-15.3151 0 -1.8653)
(-13.5783 0 -2.90235)
(-11.1974 0 -3.73011)
(-8.27714 0 -4.35393)
(-4.95121 0 -4.76829)
(-1.37802 0 -4.9646)
(2.14914 0 -8.52554)
(5.48741 0 -8.06347)
(8.52503 0 -7.21767)
(11.1096 0 -6.02576)
(13.1226 0 -4.52436)
(14.4818 0 -2.73933)
(15.141 0 -0.685172)
(15.0652 0 1.6369)
(14.2311 0 4.27063)
(12.6594 0 7.08479)
(10.19 0 9.5026)
(6.10307 0 10.5697)
(0.632285 0 10.5604)
(-4.92023 0 10.5991)
(-9.46867 0 9.91804)
(-12.2036 0 7.70667)
(-13.9575 0 4.92224)
(-14.9655 0 2.219)
(-15.219 0 -0.166021)
(-14.7294 0 -2.27824)
(-13.5336 0 -4.12399)
(-11.6708 0 -5.69142)
(-9.21414 0 -6.95809)
(-6.27318 0 -7.88957)
(-2.99198 0 -8.44741)
(0.455586 0 -8.60122)
(3.87794 0 -8.34007)
(7.08637 0 -7.68147)
(9.91406 0 -6.65924)
(12.2258 0 -5.3121)
(13.9212 0 -3.67195)
(14.937 0 -1.75817)
(15.2382 0 0.41985)
(14.7881 0 2.88005)
(13.5911 0 5.64538)
(11.6199 0 8.35544)
(8.52403 0 10.2631)
(3.54159 0 10.5907)
(-2.05138 0 10.5691)
(-7.35031 0 10.4749)
(-10.9207 0 8.97235)
(-13.1354 0 6.38652)
(-14.5217 0 3.57934)
(-15.1683 0 1.03086)
(-15.0576 0 -1.22074)
(-14.2218 0 -3.2075)
(-12.695 0 -4.923)
(-10.5314 0 -6.35023)
(-7.82244 0 -7.46008)
(-4.69513 0 -8.21445)
(-1.30952 0 -8.57714)
(1.89285 0 -11.8602)
(4.82396 0 -11.1828)
(7.463 0 -9.95179)
(9.66354 0 -8.23677)
(11.3145 0 -6.11087)
(12.3399 0 -3.63681)
(12.6958 0 -0.862534)
(12.3587 0 2.1758)
(11.3476 0 5.45582)
(9.7418 0 8.90141)
(7.63511 0 12.2384)
(4.76072 0 14.7658)
(0.540932 0 15.7391)
(-3.95775 0 15.1368)
(-7.084 0 12.9295)
(-9.32024 0 9.69487)
(-11.049 0 6.24665)
(-12.2068 0 2.91914)
(-12.7066 0 -0.172798)
(-12.5126 0 -3.00692)
(-11.643 0 -5.55095)
(-10.1357 0 -7.76077)
(-8.05796 0 -9.57775)
(-5.512 0 -10.9307)
(-2.63555 0 -11.7476)
(0.402702 0 -11.9736)
(3.41644 0 -11.5902)
(6.22218 0 -10.6275)
(8.65843 0 -9.14706)
(10.5966 0 -7.22233)
(11.944 0 -4.92211)
(12.6415 0 -2.30108)
(12.657 0 0.599661)
(11.9807 0 3.75156)
(10.6662 0 7.12646)
(8.80898 0 10.56)
(6.39855 0 13.6268)
(2.94422 0 15.4428)
(-1.74338 0 15.6471)
(-5.59213 0 14.26)
(-8.22295 0 11.4348)
(-10.2056 0 8.03362)
(-11.6722 0 4.61406)
(-12.5215 0 1.39484)
(-12.6852 0 -1.57823)
(-12.1604 0 -4.28006)
(-10.9746 0 -6.67165)
(-9.17926 0 -8.70156)
(-6.85855 0 -10.3036)
(-4.13245 0 -11.4039)
(-1.15531 0 -11.936)
(1.53538 0 -14.571)
(3.90327 0 -13.6964)
(6.00553 0 -12.1142)
(7.71154 0 -9.92601)
(8.92631 0 -7.24032)
(9.59054 0 -4.15204)
(9.67686 0 -0.735583)
(9.18397 0 2.94659)
(8.14875 0 6.81947)
(6.65256 0 10.7438)
(4.83692 0 14.4748)
(2.79277 0 17.5644)
(0.302193 0 19.0199)
(-2.2868 0 18.0861)
(-4.40815 0 15.2658)
(-6.27441 0 11.6333)
(-7.86092 0 7.73305)
(-9.0116 0 3.83583)
(-9.63694 0 0.106408)
(-9.68786 0 -3.37203)
(-9.15915 0 -6.53832)
(-8.07125 0 -9.32308)
(-6.47518 0 -11.6368)
(-4.45679 0 -13.3735)
(-2.13807 0 -14.4276)
(0.328126 0 -14.7199)
(2.77196 0 -14.2243)
(5.02628 0 -12.9836)
(6.94534 0 -11.0867)
(8.41642 0 -8.64187)
(9.36309 0 -5.75194)
(9.74277 0 -2.50087)
(9.5418 0 1.0457)
(8.77401 0 4.82445)
(7.50129 0 8.74002)
(5.82537 0 12.6001)
(3.90573 0 16.0963)
(1.6761 0 18.5472)
(-0.981671 0 18.8727)
(-3.34464 0 16.8925)
(-5.32203 0 13.5744)
(-7.07549 0 9.76734)
(-8.46581 0 5.83859)
(-9.37244 0 2.00718)
(-9.72269 0 -1.61219)
(-9.49195 0 -4.9512)
(-8.68762 0 -7.94598)
(-7.34448 0 -10.5173)
(-5.53028 0 -12.5655)
(-3.34899 0 -13.9816)
(-0.939189 0 -14.669)
(1.11195 0 -16.6827)
(2.81635 0 -15.6337)
(4.2982 0 -13.7424)
(5.45168 0 -11.1425)
(6.20521 0 -7.97805)
(6.52214 0 -4.37849)
(6.39832 0 -0.449526)
(5.85904 0 3.71522)
(4.96312 0 8.00154)
(3.80308 0 12.2334)
(2.5128 0 16.1426)
(1.27612 0 19.2677)
(0.12503 0 20.7263)
(-1.01802 0 19.7894)
(-2.23031 0 16.9546)
(-3.52479 0 13.1765)
(-4.72986 0 8.9967)
(-5.69661 0 4.7089)
(-6.32649 0 0.509852)
(-6.55167 0 -3.47642)
(-6.33986 0 -7.15651)
(-5.68795 0 -10.4304)
(-4.62442 0 -13.1751)
(-3.21208 0 -15.2488)
(-1.54856 0 -16.5127)
(0.239103 0 -16.8636)
(2.00789 0 -16.2686)
(3.61731 0 -14.7823)
(4.94705 0 -12.5207)
(5.90834 0 -9.62656)
(6.44755 0 -6.23821)
(6.54473 0 -2.4722)
(6.21067 0 1.57552)
(5.48565 0 5.80759)
(4.44675 0 10.0871)
(3.20069 0 14.1945)
(1.9138 0 17.7986)
(0.725432 0 20.2524)
(-0.414295 0 20.579)
(-1.5808 0 18.5973)
(-2.84528 0 15.2109)
(-4.1203 0 11.1912)
(-5.22475 0 6.92658)
(-6.03979 0 2.66056)
(-6.47995 0 -1.45179)
(-6.49589 0 -5.30562)
(-6.06938 0 -8.80646)
(-5.21232 0 -11.8431)
(-3.96975 0 -14.281)
(-2.42193 0 -15.9755)
(-0.682289 0 -16.8003)
(0.644507 0 -18.0753)
(1.62018 0 -16.8879)
(2.43259 0 -14.754)
(3.00895 0 -11.8369)
(3.30645 0 -8.31404)
(3.31345 0 -4.3479)
(3.04829 0 -0.0754119)
(2.55798 0 4.37939)
(1.91655 0 8.8715)
(1.22102 0 13.1949)
(0.590028 0 17.0522)
(0.171614 0 19.9929)
(0.00821977 0 21.3048)
(-0.119872 0 20.4675)
(-0.475552 0 17.832)
(-1.07218 0 14.1409)
(-1.76525 0 9.89965)
(-2.42923 0 5.43038)
(-2.96318 0 0.958411)
(-3.28692 0 -3.36137)
(-3.34718 0 -7.40517)
(-3.11867 0 -11.0422)
(-2.60573 0 -14.1171)
(-1.84347 0 -16.4544)
(-0.897637 0 -17.8844)
(0.14018 0 -18.2821)
(1.16394 0 -17.608)
(2.0699 0 -15.9276)
(2.7724 0 -13.3819)
(3.21348 0 -10.1459)
(3.36612 0 -6.39133)
(3.23385 0 -2.26668)
(2.84945 0 2.10169)
(2.27288 0 6.58632)
(1.59042 0 11.0192)
(0.907618 0 15.1529)
(0.358902 0 18.633)
(0.0724297 0 20.885)
(-0.0343596 0 21.1754)
(-0.252079 0 19.3775)
(-0.73789 0 16.1495)
(-1.39894 0 12.1428)
(-2.09161 0 7.75539)
(-2.70428 0 3.25955)
(-3.14487 0 -1.15884)
(-3.34626 0 -5.36465)
(-3.26823 0 -9.23293)
(-2.89975 0 -12.6209)
(-2.26005 0 -15.3606)
(-1.39957 0 -17.2744)
(-0.397821 0 -18.2086)
(0.1485 0 -18.701)
(0.354722 0 -17.4219)
(0.472086 0 -15.1311)
(0.467617 0 -12.0162)
(0.330523 0 -8.28248)
(0.073272 0 -4.1203)
(-0.268181 0 0.306164)
(-0.635046 0 4.84762)
(-0.950635 0 9.33952)
(-1.12817 0 13.5615)
(-1.07931 0 17.209)
(-0.723131 0 19.8679)
(-0.0817211 0 21.0076)
(0.596964 0 20.2845)
(1.02732 0 17.9279)
(1.13969 0 14.4698)
(1.0058 0 10.3544)
(0.713526 0 5.90782)
(0.350474 0 1.36778)
(-0.00346398 0 -3.09236)
(-0.284961 0 -7.32472)
(-0.452522 0 -11.1717)
(-0.488117 0 -14.4502)
(-0.396986 0 -16.9569)
(-0.206911 0 -18.4965)
(0.0346252 0 -18.9254)
(0.2682 0 -18.1985)
(0.436315 0 -16.3907)
(0.49614 0 -13.6642)
(0.425614 0 -10.2202)
(0.225513 0 -6.25857)
(-0.0800696 0 -1.95536)
(-0.443566 0 2.53672)
(-0.797044 0 7.06792)
(-1.05785 0 11.4527)
(-1.13794 0 15.4331)
(-0.950048 0 18.6576)
(-0.440873 0 20.648)
(0.260534 0 20.8975)
(0.844449 0 19.3241)
(1.11737 0 16.3698)
(1.10046 0 12.5455)
(0.87939 0 8.23323)
(0.542482 0 3.7142)
(0.174796 0 -0.809581)
(-0.151036 0 -5.18226)
(-0.381442 0 -9.25287)
(-0.48632 0 -12.8511)
(-0.459005 0 -15.7811)
(-0.315943 0 -17.8378)
(-0.0951653 0 -18.8447)
(-0.36331 0 -18.5257)
(-0.947268 0 -17.2117)
(-1.53271 0 -14.8671)
(-2.10791 0 -11.6955)
(-2.65043 0 -7.91995)
(-3.12647 0 -3.74938)
(-3.48941 0 0.633179)
(-3.67989 0 5.0624)
(-3.63125 0 9.36597)
(-3.27926 0 13.3255)
(-2.5757 0 16.6545)
(-1.50736 0 18.9977)
(-0.159513 0 19.9716)
(1.22242 0 19.3565)
(2.36773 0 17.2977)
(3.15537 0 14.1651)
(3.58455 0 10.3272)
(3.69752 0 6.0865)
(3.55615 0 1.67569)
(3.22754 0 -2.72601)
(2.7733 0 -6.95637)
(2.24313 0 -10.8393)
(1.67365 0 -14.1728)
(1.08979 0 -16.7359)
(0.505756 0 -18.3165)
(-0.0747912 0 -18.7578)
(-0.656051 0 -18.01)
(-1.24091 0 -16.1557)
(-1.82301 0 -13.3714)
(-2.38538 0 -9.8755)
(-2.90024 0 -5.88591)
(-3.32777 0 -1.59752)
(-3.61476 0 2.81895)
(-3.69759 0 7.20166)
(-3.50945 0 11.3614)
(-2.99207 0 15.049)
(-2.11071 0 17.9442)
(-0.88681 0 19.6676)
(0.515931 0 19.8791)
(1.81081 0 18.5269)
(2.78943 0 15.8992)
(3.40125 0 12.3822)
(3.67139 0 8.31463)
(3.65351 0 3.9645)
(3.41344 0 -0.465104)
(3.0167 0 -4.80866)
(2.51991 0 -8.8979)
(1.96632 0 -12.5435)
(1.38672 0 -15.5311)
(0.80086 0 -17.6385)
(0.217832 0 -18.6736)
(-0.876809 0 -17.5359)
(-2.25007 0 -16.2523)
(-3.52824 0 -13.9703)
(-4.65259 0 -10.8985)
(-5.56791 0 -7.26408)
(-6.22252 0 -3.28133)
(-6.56594 0 0.859991)
(-6.54769 0 4.99012)
(-6.1209 0 8.94007)
(-5.25182 0 12.5072)
(-3.93564 0 15.4401)
(-2.2176 0 17.4517)
(-0.230136 0 18.2704)
(1.78834 0 17.7551)
(3.58394 0 15.9982)
(4.99879 0 13.2544)
(5.97189 0 9.81347)
(6.49874 0 5.93703)
(6.60805 0 1.83819)
(6.34476 0 -2.30942)
(5.75901 0 -6.34048)
(4.90119 0 -10.0722)
(3.82221 0 -13.2968)
(2.57609 0 -15.7889)
(1.22062 0 -17.3319)
(-0.184948 0 -17.7639)
(-1.58309 0 -17.0323)
(-2.91593 0 -15.2236)
(-4.12418 0 -12.5197)
(-5.15097 0 -9.14307)
(-5.94336 0 -5.31634)
(-6.45091 0 -1.24061)
(-6.62314 0 2.90698)
(-6.41063 0 6.96358)
(-5.77138 0 10.7484)
(-4.68331 0 14.0362)
(-3.16255 0 16.5554)
(-1.29017 0 18.0169)
(0.74723 0 18.1935)
(2.68621 0 17.0526)
(4.31147 0 14.7818)
(5.51719 0 11.6647)
(6.27338 0 7.98209)
(6.59395 0 3.97265)
(6.51716 0 -0.172413)
(6.09136 0 -4.28883)
(5.36717 0 -8.20265)
(4.39504 0 -11.718)
(3.22724 0 -14.6155)
(1.91995 0 -16.6687)
(0.5324 0 -17.6807)
(-1.3734 0 -15.7428)
(-3.5072 0 -14.5598)
(-5.44612 0 -12.4642)
(-7.08503 0 -9.65573)
(-8.33793 0 -6.35003)
(-9.13851 0 -2.75126)
(-9.4372 0 0.958632)
(-9.19838 0 4.61788)
(-8.40074 0 8.07081)
(-7.04468 0 11.1406)
(-5.16783 0 13.6206)
(-2.86282 0 15.2908)
(-0.294792 0 15.9613)
(2.30232 0 15.5402)
(4.6854 0 14.0875)
(6.67159 0 11.7774)
(8.1532 0 8.82789)
(9.08168 0 5.45094)
(9.44963 0 1.82999)
(9.27443 0 -1.87684)
(8.58865 0 -5.51282)
(7.4382 0 -8.9024)
(5.88477 0 -11.8474)
(4.00913 0 -14.1338)
(1.91176 0 -15.5549)
(-0.291723 0 -15.9539)
(-2.47924 0 -15.2785)
(-4.52965 0 -13.6142)
(-6.33052 0 -11.1362)
(-7.78638 0 -8.05629)
(-8.8217 0 -4.58599)
(-9.37935 0 -0.917538)
(-9.41712 0 2.77903)
(-8.90599 0 6.35057)
(-7.83364 0 9.63469)
(-6.2162 0 12.4404)
(-4.11542 0 14.5511)
(-1.65675 0 15.7546)
(0.958083 0 15.8987)
(3.48048 0 14.9621)
(5.69064 0 13.0685)
(7.4432 0 10.4208)
(8.66122 0 7.23858)
(9.31825 0 3.72115)
(9.42064 0 0.0377437)
(8.99354 0 -3.65865)
(8.07568 0 -7.20158)
(6.72035 0 -10.4034)
(4.99847 0 -13.0557)
(3.00094 0 -14.9431)
(0.836943 0 -15.8766)
(-1.82854 0 -13.1912)
(-4.65752 0 -12.179)
(-7.19635 0 -10.3921)
(-9.29741 0 -8.00656)
(-10.8475 0 -5.21054)
(-11.7684 0 -2.18199)
(-12.0137 0 0.91999)
(-11.5644 0 3.95404)
(-10.426 0 6.78667)
(-8.63259 0 9.27405)
(-6.25999 0 11.2573)
(-3.43749 0 12.5768)
(-0.352901 0 13.1023)
(2.75998 0 12.7727)
(5.66175 0 11.628)
(8.15209 0 9.78621)
(10.0885 0 7.4036)
(11.3839 0 4.64101)
(11.9958 0 1.64564)
(11.9133 0 -1.44838)
(11.1494 0 -4.5042)
(9.74353 0 -7.36816)
(7.76555 0 -9.8674)
(5.31964 0 -11.8153)
(2.54503 0 -13.0304)
(-0.389705 0 -13.3724)
(-3.30019 0 -12.7936)
(-6.00453 0 -11.3719)
(-8.34082 0 -9.2627)
(-10.1788 0 -6.65179)
(-11.4235 0 -3.72332)
(-12.0136 0 -0.645133)
(-11.9171 0 2.4339)
(-11.1271 0 5.3805)
(-9.66144 0 8.0587)
(-7.57265 0 10.3174)
(-4.96086 0 11.9947)
(-1.98342 0 12.9407)
(1.14668 0 13.0534)
(4.1868 0 12.3185)
(6.91216 0 10.8183)
(9.1497 0 8.69409)
(10.7846 0 6.10739)
(11.7531 0 3.2136)
(12.0294 0 0.152352)
(11.6141 0 -2.9438)
(10.532 0 -5.92939)
(8.83724 0 -8.64057)
(6.61615 0 -10.8956)
(3.99072 0 -12.5065)
(1.11621 0 -13.3058)
(-2.21229 0 -9.96771)
(-5.62627 0 -9.19084)
(-8.66794 0 -7.8236)
(-11.1545 0 -6.00414)
(-12.951 0 -3.87877)
(-13.9701 0 -1.58493)
(-14.1685 0 0.754625)
(-13.5415 0 3.03033)
(-12.1177 0 5.13879)
(-9.96055 0 6.97383)
(-7.17681 0 8.42395)
(-3.92272 0 9.38147)
(-0.402392 0 9.76114)
(3.14634 0 9.52316)
(6.48176 0 8.69368)
(9.39036 0 7.34973)
(11.7045 0 5.59579)
(13.3068 0 3.54364)
(14.1245 0 1.30064)
(14.1216 0 -1.03036)
(13.2949 0 -3.34281)
(11.6778 0 -5.51813)
(9.34615 0 -7.42285)
(6.42281 0 -8.91225)
(3.07883 0 -9.84424)
(-0.472349 0 -10.1072)
(-3.99203 0 -9.66239)
(-7.24557 0 -8.57265)
(-10.0295 0 -6.96129)
(-12.1853 0 -4.97319)
(-13.6028 0 -2.75093)
(-14.2175 0 -0.424045)
(-14.0065 0 1.89261)
(-12.9818 0 4.09491)
(-11.188 0 6.0798)
(-8.70799 0 7.73862)
(-5.67183 0 8.96003)
(-2.25937 0 9.64457)
(1.30658 0 9.72587)
(4.78225 0 9.19456)
(7.93628 0 8.10421)
(10.5761 0 6.54772)
(12.5583 0 4.63508)
(13.7882 0 2.47657)
(14.2118 0 0.176651)
(13.8085 0 -2.16108)
(12.5915 0 -4.42442)
(10.6148 0 -6.487)
(7.97677 0 -8.20833)
(4.82454 0 -9.44198)
(1.35168 0 -10.0559)
(-2.49274 0 -6.21378)
(-6.33347 0 -5.72429)
(-9.74098 0 -4.86495)
(-12.5077 0 -3.72439)
(-14.4841 0 -2.39542)
(-15.577 0 -0.964479)
(-15.745 0 0.491807)
(-14.992 0 1.90445)
(-13.3628 0 3.20724)
(-10.9419 0 4.33478)
(-7.85792 0 5.22104)
(-4.28525 0 5.80381)
(-0.43963 0 6.03442)
(3.43496 0 5.88991)
(7.09139 0 5.38545)
(10.306 0 4.56503)
(12.8945 0 3.48876)
(14.7181 0 2.2224)
(15.6824 0 0.831414)
(15.734 0 -0.618858)
(14.8589 0 -2.0607)
(13.0871 0 -3.42016)
(10.4983 0 -4.61345)
(7.22786 0 -5.549)
(3.46881 0 -6.13593)
(-0.532734 0 -6.30185)
(-4.49731 0 -6.02127)
(-8.15089 0 -5.33541)
(-11.2602 0 -4.32394)
(-13.6472 0 -3.07923)
(-15.1916 0 -1.69134)
(-15.8275 0 -0.24137)
(-15.5369 0 1.19915)
(-14.3442 0 2.56336)
(-12.3131 0 3.78646)
(-9.54858 0 4.80288)
(-6.20111 0 5.54762)
(-2.46565 0 5.96364)
(1.42647 0 6.013)
(5.22654 0 5.69023)
(8.69602 0 5.02607)
(11.629 0 4.07364)
(13.8627 0 2.89677)
(15.2803 0 1.56129)
(15.8074 0 0.132207)
(15.4092 0 -1.32364)
(14.0922 0 -2.73627)
(11.91 0 -4.02673)
(8.96904 0 -5.10647)
(5.43333 0 -5.88238)
(1.52371 0 -6.26942)
(-2.64133 0 -2.11213)
(-6.70774 0 -1.94465)
(-10.3081 0 -1.65115)
(-13.2225 0 -1.26236)
(-15.2943 0 -0.810176)
(-16.4282 0 -0.324053)
(-16.5834 0 0.170126)
(-15.7668 0 0.648908)
(-14.0305 0 1.08937)
(-11.4704 0 1.46942)
(-8.22634 0 1.76731)
(-4.48214 0 1.96278)
(-0.459945 0 2.04006)
(3.5917 0 1.99164)
(7.42133 0 1.82249)
(10.7995 0 1.5469)
(13.5332 0 1.18439)
(15.4725 0 0.756548)
(16.5118 0 0.285349)
(16.5888 0 -0.206704)
(15.6857 0 -0.696388)
(13.8314 0 -1.15876)
(11.1072 0 -1.56535)
(7.65374 0 -1.88473)
(3.67538 0 -2.08548)
(-0.564721 0 -2.1423)
(-4.76485 0 -2.04623)
(-8.62962 0 -1.81175)
(-11.9103 0 -1.46662)
(-14.4193 0 -1.04272)
(-16.032 0 -0.570888)
(-16.6819 0 -0.0786133)
(-16.3525 0 0.410031)
(-15.0733 0 0.871886)
(-12.9175 0 1.28478)
(-10.0021 0 1.62687)
(-6.48786 0 1.8769)
(-2.57772 0 2.01634)
(1.49173 0 2.03288)
(5.46761 0 1.92471)
(9.10654 0 1.70185)
(12.1954 0 1.38153)
(14.5616 0 0.984543)
(16.0765 0 0.532704)
(16.6551 0 0.0480945)
(16.2564 0 -0.446026)
(14.8849 0 -0.926071)
(12.5941 0 -1.36533)
(9.49358 0 -1.73357)
(5.75556 0 -1.99871)
(1.61484 0 -2.13119)
)
;

boundaryField
{
    top
    {
        type            directionMixed;
        refValue        uniform (0 0 0);
        refGradient     uniform (0 0 0);
        valueFraction   uniform (0 0 0 0 0 1);
        value           nonuniform List<vector> 
51
(
(-2.64133 0 0)
(-6.70774 0 0)
(-10.3081 0 0)
(-13.2225 0 0)
(-15.2943 0 0)
(-16.4282 0 0)
(-16.5834 0 0)
(-15.7668 0 0)
(-14.0305 0 0)
(-11.4704 0 0)
(-8.22634 0 0)
(-4.48214 0 0)
(-0.459945 0 0)
(3.5917 0 0)
(7.42133 0 0)
(10.7995 0 0)
(13.5332 0 0)
(15.4725 0 0)
(16.5118 0 0)
(16.5888 0 0)
(15.6857 0 0)
(13.8314 0 0)
(11.1072 0 0)
(7.65374 0 0)
(3.67538 0 0)
(-0.564721 0 0)
(-4.76485 0 0)
(-8.62962 0 0)
(-11.9103 0 0)
(-14.4193 0 0)
(-16.032 0 0)
(-16.6819 0 0)
(-16.3525 0 0)
(-15.0733 0 0)
(-12.9175 0 0)
(-10.0021 0 0)
(-6.48786 0 0)
(-2.57772 0 0)
(1.49173 0 0)
(5.46761 0 0)
(9.10654 0 0)
(12.1954 0 0)
(14.5616 0 0)
(16.0765 0 0)
(16.6551 0 0)
(16.2564 0 0)
(14.8849 0 0)
(12.5941 0 0)
(9.49358 0 0)
(5.75556 0 0)
(1.61484 0 0)
)
;
    }
    bottom
    {
        type            fixedValue;
        value           uniform (0 0 0);
    }
    frontAndBack
    {
        type            empty;
    }
    left_cyc
    {
        type            cyclic;
    }
    right_cyc
    {
        type            cyclic;
    }
}


// ************************************************************************* //
