/*--------------------------------*- C++ -*----------------------------------*\
| =========                 |                                                 |
| \\      /  F ield         | OpenFOAM: The Open Source CFD Toolbox           |
|  \\    /   O peration     | Version:  2.3.0                                 |
|   \\  /    A nd           | Web:      www.OpenFOAM.org                      |
|    \\/     M anipulation  |                                                 |
\*---------------------------------------------------------------------------*/
FoamFile
{
    version     2.0;
    format      ascii;
    class       volVectorField;
    location    "24000";
    object      U;
}
// * * * * * * * * * * * * * * * * * * * * * * * * * * * * * * * * * * * * * //

dimensions      [0 1 -1 0 0 0 0];

internalField   nonuniform List<vector> 
3060
(
(0.624689 0 -0.447193)
(1.58814 0 -0.430892)
(2.52736 0 -0.400766)
(3.42841 0 -0.357377)
(4.27822 0 -0.301773)
(5.06492 0 -0.236072)
(5.7783 0 -0.163971)
(6.41023 0 -0.0907291)
(6.95473 0 -0.0222239)
(7.40708 0 0.0366665)
(7.76194 0 0.0833853)
(8.01102 0 0.117885)
(8.14111 0 0.141793)
(8.13336 0 0.157542)
(7.96653 0 0.170624)
(7.62102 0 0.191703)
(7.09018 0 0.227991)
(6.38449 0 0.271552)
(5.5355 0 0.302131)
(4.60327 0 0.305431)
(3.65681 0 0.28391)
(2.75464 0 0.246187)
(1.93493 0 0.204352)
(1.20516 0 0.16913)
(0.546065 0 0.147052)
(-0.0772394 0 0.140859)
(-0.705696 0 0.151117)
(-1.37947 0 0.176851)
(-2.13059 0 0.214507)
(-2.97257 0 0.256447)
(-3.89024 0 0.291249)
(-4.83888 0 0.307109)
(-5.75632 0 0.296746)
(-6.57356 0 0.260945)
(-7.23661 0 0.217565)
(-7.72047 0 0.18504)
(-8.0187 0 0.167007)
(-8.14232 0 0.153925)
(-8.11183 0 0.13628)
(-7.94854 0 0.109725)
(-7.66988 0 0.0720166)
(-7.28775 0 0.0218852)
(-6.8095 0 -0.039998)
(-6.24016 0 -0.110378)
(-5.58471 0 -0.183937)
(-4.84971 0 -0.254809)
(-4.04394 0 -0.318089)
(-3.17815 0 -0.370524)
(-2.26461 0 -0.41034)
(-1.31671 0 -0.43667)
(-0.348629 0 -0.448996)
(0.624834 0 -0.446935)
(1.58866 0 -0.430581)
(2.5282 0 -0.40036)
(3.42948 0 -0.35684)
(4.27941 0 -0.301086)
(5.06608 0 -0.235242)
(5.77926 0 -0.163044)
(6.41082 0 -0.0897846)
(6.95473 0 -0.0213512)
(7.40623 0 0.0374014)
(7.75987 0 0.0839586)
(8.00717 0 0.11831)
(8.13475 0 0.142103)
(8.12357 0 0.157801)
(7.95236 0 0.171051)
(7.6017 0 0.192631)
(7.06554 0 0.229398)
(6.35498 0 0.272872)
(5.5026 0 0.30266)
(4.56919 0 0.305026)
(3.62372 0 0.282773)
(2.7242 0 0.244712)
(1.90786 0 0.202954)
(1.18112 0 0.16811)
(0.523983 0 0.146561)
(-0.0987875 0 0.140943)
(-0.728209 0 0.151769)
(-1.4043 0 0.178002)
(-2.15865 0 0.215966)
(-3.00391 0 0.257867)
(-3.92382 0 0.292211)
(-4.87288 0 0.307272)
(-5.78849 0 0.295939)
(-6.60179 0 0.259518)
(-7.25976 0 0.216253)
(-7.73829 0 0.184272)
(-8.03152 0 0.166667)
(-8.15101 0 0.15367)
(-8.11735 0 0.135941)
(-7.95176 0 0.109256)
(-7.67149 0 0.0713895)
(-7.28823 0 0.021096)
(-6.80919 0 -0.0409128)
(-6.23932 0 -0.111342)
(-5.58352 0 -0.18486)
(-4.84837 0 -0.255617)
(-4.04259 0 -0.318746)
(-3.17694 0 -0.371031)
(-2.26365 0 -0.410722)
(-1.31609 0 -0.436965)
(-0.348381 0 -0.449249)
(0.932658 0 -1.67946)
(2.37852 0 -1.65817)
(3.80716 0 -1.61914)
(5.20892 0 -1.5638)
(6.57521 0 -1.49383)
(7.89814 0 -1.41067)
(9.1694 0 -1.31493)
(10.3785 0 -1.20583)
(11.5109 0 -1.08089)
(12.5468 0 -0.935724)
(13.4615 0 -0.76387)
(14.2251 0 -0.55648)
(14.8029 0 -0.302645)
(15.1542 0 0.00766856)
(15.23 0 0.371529)
(14.9767 0 0.754433)
(14.3548 0 1.10065)
(13.3499 0 1.37715)
(11.9779 0 1.56972)
(10.3165 0 1.66621)
(8.48375 0 1.66262)
(6.60185 0 1.57041)
(4.77025 0 1.4323)
(3.0364 0 1.29975)
(1.39448 0 1.21073)
(-0.197268 0 1.18497)
(-1.79631 0 1.22735)
(-3.45796 0 1.32964)
(-5.21701 0 1.46775)
(-7.0671 0 1.59928)
(-8.94682 0 1.67244)
(-10.7474 0 1.65046)
(-12.3451 0 1.52919)
(-13.6284 0 1.31393)
(-14.5352 0 1.01803)
(-15.0604 0 0.657676)
(-15.2241 0 0.273934)
(-15.0715 0 -0.0786558)
(-14.6565 0 -0.374531)
(-14.0258 0 -0.615857)
(-13.2184 0 -0.813508)
(-12.2679 0 -0.97801)
(-11.2029 0 -1.1176)
(-10.047 0 -1.23818)
(-8.81867 0 -1.34365)
(-7.53125 0 -1.43604)
(-6.19452 0 -1.51571)
(-4.81658 0 -1.5818)
(-3.40548 0 -1.63275)
(-1.97013 0 -1.66691)
(-0.520459 0 -1.68299)
(0.933014 0 -1.68031)
(2.37968 0 -1.659)
(3.80911 0 -1.61991)
(5.21166 0 -1.56449)
(6.57869 0 -1.4944)
(7.90227 0 -1.41107)
(9.17403 0 -1.31507)
(10.3833 0 -1.20558)
(11.5155 0 -1.08007)
(12.5506 0 -0.934091)
(13.4635 0 -0.761102)
(14.2243 0 -0.552181)
(14.7979 0 -0.296381)
(15.1435 0 0.0161903)
(15.2117 0 0.381877)
(14.9488 0 0.764969)
(14.3162 0 1.10968)
(13.3001 0 1.38393)
(11.9182 0 1.57367)
(10.2502 0 1.66701)
(8.41489 0 1.6601)
(6.53421 0 1.56562)
(4.70619 0 1.42701)
(2.97635 0 1.29556)
(1.33727 0 1.20863)
(-0.253676 0 1.18533)
(-1.85416 0 1.23012)
(-3.51911 0 1.33429)
(-5.28225 0 1.4731)
(-7.13544 0 1.60357)
(-9.01536 0 1.67405)
(-10.8122 0 1.64875)
(-12.4022 0 1.52437)
(-13.675 0 1.30644)
(-14.5706 0 1.00845)
(-15.0854 0 0.646957)
(-15.2399 0 0.263951)
(-15.0803 0 -0.0865757)
(-14.66 0 -0.380229)
(-14.0255 0 -0.619707)
(-13.2156 0 -0.815946)
(-12.2636 0 -0.979411)
(-11.1979 0 -1.11826)
(-10.0419 0 -1.23833)
(-8.81388 0 -1.34345)
(-7.527 0 -1.4356)
(-6.19095 0 -1.51512)
(-4.81375 0 -1.5811)
(-3.40343 0 -1.63197)
(-1.96887 0 -1.66608)
(-0.520007 0 -1.68213)
(1.04548 0 -3.18532)
(2.6653 0 -3.15033)
(4.26318 0 -3.08579)
(5.8259 0 -2.99343)
(7.34034 0 -2.87511)
(8.79311 0 -2.73204)
(10.1702 0 -2.56404)
(11.4567 0 -2.369)
(12.6365 0 -2.14279)
(13.6929 0 -1.87962)
(14.6089 0 -1.57237)
(15.3688 0 -1.21287)
(15.9594 0 -0.792362)
(16.3711 0 -0.302179)
(16.5969 0 0.266632)
(16.6186 0 0.926374)
(16.3784 0 1.68521)
(15.7738 0 2.49781)
(14.715 0 3.21112)
(13.1675 0 3.66376)
(11.1899 0 3.84967)
(8.93812 0 3.81656)
(6.58761 0 3.63917)
(4.25267 0 3.42564)
(1.96967 0 3.26908)
(-0.278486 0 3.2222)
(-2.53179 0 3.29873)
(-4.82715 0 3.47576)
(-7.17136 0 3.68992)
(-9.50981 0 3.84049)
(-11.7095 0 3.82416)
(-13.5896 0 3.57456)
(-15.0143 0 3.05011)
(-15.9515 0 2.29233)
(-16.4529 0 1.48262)
(-16.6169 0 0.747274)
(-16.5385 0 0.11113)
(-16.2628 0 -0.437549)
(-15.803 0 -0.90988)
(-15.1662 0 -1.31458)
(-14.3629 0 -1.66039)
(-13.4072 0 -1.95597)
(-12.3153 0 -2.20924)
(-11.1043 0 -2.42704)
(-9.79077 0 -2.61476)
(-8.39065 0 -2.77604)
(-6.91867 0 -2.91247)
(-5.38868 0 -3.02381)
(-3.814 0 -3.10862)
(-2.20782 0 -3.16501)
(-0.583423 0 -3.19142)
(1.04579 0 -3.18703)
(2.66637 0 -3.15198)
(4.26495 0 -3.08733)
(5.82827 0 -2.9948)
(7.34315 0 -2.87623)
(8.79616 0 -2.73278)
(10.1732 0 -2.56423)
(11.4592 0 -2.36841)
(12.6381 0 -2.14114)
(13.693 0 -1.87657)
(14.607 0 -1.56754)
(15.3642 0 -1.20588)
(15.9515 0 -0.782796)
(16.3596 0 -0.289677)
(16.5812 0 0.282459)
(16.5976 0 0.946022)
(16.3489 0 1.70846)
(15.7322 0 2.52137)
(14.6587 0 3.22839)
(13.0967 0 3.67193)
(11.1082 0 3.84988)
(8.85165 0 3.81074)
(6.50128 0 3.63064)
(4.16869 0 3.41813)
(1.88783 0 3.26513)
(-0.359687 0 3.2229)
(-2.61414 0 3.3039)
(-4.91189 0 3.4839)
(-7.25811 0 3.69809)
(-9.59554 0 3.84483)
(-11.7887 0 3.82186)
(-13.6564 0 3.56391)
(-15.0661 0 3.03038)
(-15.9893 0 2.26822)
(-16.4795 0 1.46019)
(-16.636 0 0.728698)
(-16.5527 0 0.0962413)
(-16.273 0 -0.449234)
(-15.8096 0 -0.91873)
(-15.1698 0 -1.32098)
(-14.364 0 -1.66472)
(-13.4063 0 -1.95863)
(-12.3131 0 -2.21061)
(-11.1013 0 -2.42742)
(-9.78742 0 -2.61444)
(-8.38732 0 -2.77522)
(-6.91562 0 -2.91131)
(-5.38611 0 -3.02241)
(-3.81206 0 -3.10705)
(-2.2066 0 -3.16335)
(-0.58296 0 -3.18971)
(1.0937 0 -4.86926)
(2.78631 0 -4.81575)
(4.45079 0 -4.71663)
(6.07022 0 -4.57375)
(7.62778 0 -4.38904)
(9.10686 0 -4.1637)
(10.4911 0 -3.89765)
(11.7645 0 -3.58909)
(12.912 0 -3.23463)
(13.9194 0 -2.82962)
(14.7741 0 -2.36849)
(15.4651 0 -1.84496)
(15.9832 0 -1.25194)
(16.3209 0 -0.580742)
(16.4705 0 0.181106)
(16.4236 0 1.05089)
(16.1718 0 2.0374)
(15.7058 0 3.11516)
(14.9864 0 4.2223)
(13.8864 0 5.24952)
(12.2477 0 5.96836)
(10.0982 0 6.22801)
(7.60824 0 6.1593)
(4.98015 0 5.95486)
(2.32473 0 5.77705)
(-0.328515 0 5.72093)
(-2.98231 0 5.81154)
(-5.63534 0 6.00712)
(-8.24254 0 6.19414)
(-10.6667 0 6.1984)
(-12.6994 0 5.82886)
(-14.1961 0 5.00604)
(-15.1818 0 3.94233)
(-15.8284 0 2.83435)
(-16.2375 0 1.77408)
(-16.4353 0 0.81538)
(-16.4299 0 -0.026461)
(-16.23 0 -0.764795)
(-15.8438 0 -1.41602)
(-15.2788 0 -1.99139)
(-14.5429 0 -2.49899)
(-13.6457 0 -2.94568)
(-12.5988 0 -3.33754)
(-11.4153 0 -3.67993)
(-10.1096 0 -3.97722)
(-8.69724 0 -4.23244)
(-7.19429 0 -4.4469)
(-5.6173 0 -4.62034)
(-3.98303 0 -4.75129)
(-2.30835 0 -4.83781)
(-0.610331 0 -4.87818)
(1.09386 0 -4.87147)
(2.78699 0 -4.81785)
(4.45191 0 -4.71852)
(6.07162 0 -4.5753)
(7.62927 0 -4.3901)
(9.10815 0 -4.16409)
(10.4918 0 -3.89712)
(11.7643 0 -3.58737)
(12.9104 0 -3.2314)
(13.916 0 -2.82451)
(14.7685 0 -2.36114)
(15.4566 0 -1.83498)
(15.9715 0 -1.23894)
(16.3055 0 -0.564289)
(16.451 0 0.201565)
(16.3995 0 1.07594)
(16.1425 0 2.06689)
(15.6706 0 3.14755)
(14.9426 0 4.25496)
(13.8277 0 5.2769)
(12.1712 0 5.98114)
(10.0079 0 6.22711)
(7.51133 0 6.15126)
(4.88196 0 5.94608)
(2.227 0 5.77211)
(-0.426016 0 5.72181)
(-3.0802 0 5.81792)
(-5.73348 0 6.01629)
(-8.3383 0 6.20083)
(-10.7537 0 6.19597)
(-12.771 0 5.81137)
(-14.2498 0 4.97622)
(-15.2226 0 3.90932)
(-15.8616 0 2.80249)
(-16.2652 0 1.74569)
(-16.458 0 0.791599)
(-16.4481 0 -0.0457844)
(-16.2441 0 -0.780288)
(-15.8543 0 -1.4282)
(-15.2862 0 -2.00066)
(-14.5477 0 -2.50575)
(-13.6483 0 -2.95029)
(-12.5996 0 -3.34038)
(-11.4149 0 -3.68134)
(-10.1083 0 -3.97752)
(-8.69552 0 -4.23189)
(-7.19244 0 -4.44573)
(-5.61559 0 -4.61872)
(-3.98163 0 -4.74935)
(-2.30742 0 -4.83567)
(-0.609934 0 -4.87596)
(1.10343 0 -6.60181)
(2.80948 0 -6.52737)
(4.48285 0 -6.38912)
(6.10401 0 -6.1891)
(7.65391 0 -5.92948)
(9.11412 0 -5.61185)
(10.4672 0 -5.23668)
(11.6968 0 -4.80302)
(12.7882 0 -4.30859)
(13.7284 0 -3.75008)
(14.5059 0 -3.12351)
(15.1108 0 -2.42441)
(15.5349 0 -1.64768)
(15.7708 0 -0.786762)
(15.8131 0 0.167727)
(15.6609 0 1.22794)
(15.3206 0 2.40122)
(14.8002 0 3.67872)
(14.0956 0 5.03362)
(13.1795 0 6.39896)
(11.9564 0 7.62344)
(10.2365 0 8.46591)
(7.94863 0 8.7617)
(5.30097 0 8.70577)
(2.49862 0 8.57248)
(-0.353157 0 8.52365)
(-3.19836 0 8.60048)
(-5.97494 0 8.73379)
(-8.55452 0 8.729)
(-10.7134 0 8.30238)
(-12.2886 0 7.33755)
(-13.4193 0 6.05785)
(-14.276 0 4.68357)
(-14.9316 0 3.34335)
(-15.4054 0 2.08916)
(-15.6976 0 0.943135)
(-15.7992 0 -0.0904756)
(-15.7056 0 -1.02137)
(-15.4193 0 -1.86126)
(-14.9463 0 -2.61866)
(-14.2942 0 -3.29961)
(-13.4719 0 -3.909)
(-12.4895 0 -4.45113)
(-11.359 0 -4.92984)
(-10.0939 0 -5.34821)
(-8.70947 0 -5.70819)
(-7.22241 0 -6.01036)
(-5.65054 0 -6.25392)
(-4.01256 0 -6.43709)
(-2.32772 0 -6.55769)
(-0.615747 0 -6.61385)
(1.10341 0 -6.60453)
(2.80969 0 -6.52991)
(4.4832 0 -6.39131)
(6.10434 0 -6.19077)
(7.65397 0 -5.9304)
(9.11363 0 -5.61177)
(10.4658 0 -5.23531)
(11.6941 0 -4.80004)
(12.7838 0 -4.30363)
(13.7219 0 -3.74277)
(14.4968 0 -3.11347)
(15.0988 0 -2.41128)
(15.5194 0 -1.63109)
(15.7514 0 -0.766345)
(15.7896 0 0.192423)
(15.6329 0 1.25734)
(15.2883 0 2.43535)
(14.7635 0 3.71697)
(14.0539 0 5.07465)
(13.1308 0 6.43904)
(11.8953 0 7.65569)
(10.156 0 8.48095)
(7.85248 0 8.76067)
(5.19742 0 8.69895)
(2.39266 0 8.56782)
(-0.459584 0 8.52451)
(-3.3039 0 8.60631)
(-6.07708 0 8.74001)
(-8.64709 0 8.72641)
(-10.7881 0 8.28167)
(-12.3453 0 7.30213)
(-13.4656 0 6.01688)
(-14.316 0 4.64303)
(-14.9668 0 3.30609)
(-15.4363 0 2.05625)
(-15.7242 0 0.915014)
(-15.8214 0 -0.11399)
(-15.7236 0 -1.04075)
(-15.4335 0 -1.87692)
(-14.9573 0 -2.63097)
(-14.3023 0 -3.30894)
(-13.4775 0 -3.9157)
(-12.493 0 -4.45559)
(-11.3609 0 -4.93242)
(-10.0946 0 -5.34925)
(-8.70941 0 -5.70803)
(-7.22187 0 -6.00926)
(-5.6498 0 -6.25213)
(-4.01183 0 -6.43481)
(-2.32716 0 -6.55511)
(-0.615442 0 -6.61112)
(1.08298 0 -8.30483)
(2.75599 0 -8.20619)
(4.3932 0 -8.02286)
(5.97338 0 -7.75744)
(7.47611 0 -7.41286)
(8.88203 0 -6.99182)
(10.1732 0 -6.49621)
(11.3335 0 -5.92681)
(12.3485 0 -5.28322)
(13.2061 0 -4.56401)
(13.8958 0 -3.76687)
(14.4089 0 -2.88874)
(14.7383 0 -1.92569)
(14.8784 0 -0.872645)
(14.8261 0 0.276669)
(14.5827 0 1.52818)
(14.156 0 2.88177)
(13.5573 0 4.32564)
(12.7965 0 5.83887)
(11.8779 0 7.39087)
(10.7831 0 8.91238)
(9.41416 0 10.2334)
(7.5779 0 11.096)
(5.19535 0 11.4119)
(2.48486 0 11.4374)
(-0.351818 0 11.4232)
(-3.17118 0 11.4398)
(-5.8224 0 11.3698)
(-8.08127 0 10.9316)
(-9.78149 0 9.93111)
(-11.0649 0 8.53608)
(-12.1101 0 6.9952)
(-12.9876 0 5.44752)
(-13.7071 0 3.9482)
(-14.262 0 2.52399)
(-14.6419 0 1.1941)
(-14.8357 0 -0.0326583)
(-14.8373 0 -1.15836)
(-14.6467 0 -2.18931)
(-14.2679 0 -3.13149)
(-13.7068 0 -3.98961)
(-12.971 0 -4.76732)
(-12.0698 0 -5.46747)
(-11.014 0 -6.09212)
(-9.81645 0 -6.64244)
(-8.49202 0 -7.11853)
(-7.05746 0 -7.5193)
(-5.5312 0 -7.84261)
(-3.93297 0 -8.08567)
(-2.28353 0 -8.24558)
(-0.604318 0 -8.31999)
(1.08277 0 -8.30764)
(2.75573 0 -8.20875)
(4.39278 0 -8.02494)
(5.97263 0 -7.75878)
(7.47479 0 -7.41319)
(8.87986 0 -6.99084)
(10.1699 0 -6.49358)
(11.3286 0 -5.92218)
(12.3417 0 -5.27621)
(13.1969 0 -4.55423)
(13.8838 0 -3.75395)
(14.3938 0 -2.87231)
(14.7197 0 -1.9054)
(14.8559 0 -0.848163)
(14.7994 0 0.305655)
(14.5518 0 1.56185)
(14.121 0 2.91996)
(13.5183 0 4.36775)
(12.7536 0 5.88407)
(11.8307 0 7.43763)
(10.7299 0 8.95689)
(9.34912 0 10.2674)
(7.49402 0 11.1113)
(5.0962 0 11.413)
(2.37897 0 11.4352)
(-0.459265 0 11.4237)
(-3.27575 0 11.4419)
(-5.91819 0 11.3659)
(-8.15935 0 10.9107)
(-9.84236 0 9.89305)
(-11.1159 0 8.49021)
(-12.1559 0 6.94856)
(-13.0293 0 5.40301)
(-13.7449 0 3.90703)
(-14.2957 0 2.48694)
(-14.6714 0 1.16167)
(-14.861 0 -0.0604359)
(-14.8585 0 -1.18173)
(-14.6641 0 -2.20858)
(-14.2818 0 -3.14701)
(-13.7176 0 -4.00172)
(-12.9793 0 -4.7764)
(-12.0758 0 -5.47389)
(-11.0181 0 -6.09625)
(-9.8191 0 -6.64467)
(-8.49356 0 -7.1192)
(-7.05822 0 -7.51873)
(-5.53145 0 -7.8411)
(-3.93293 0 -8.08347)
(-2.28336 0 -8.24295)
(-0.604116 0 -8.31716)
(1.03786 0 -9.959)
(2.63993 0 -9.83457)
(4.20436 0 -9.60333)
(5.70904 0 -9.26862)
(7.13289 0 -8.83448)
(8.45628 0 -8.30505)
(9.66135 0 -7.68399)
(10.7323 0 -6.97407)
(11.6555 0 -6.17699)
(12.4196 0 -5.29338)
(13.0152 0 -4.32282)
(13.4351 0 -3.26399)
(13.6734 0 -2.11473)
(13.7268 0 -0.872257)
(13.5942 0 0.466251)
(13.2786 0 1.90191)
(12.788 0 3.43045)
(12.133 0 5.03907)
(11.3254 0 6.70671)
(10.3763 0 8.40351)
(9.29261 0 10.0851)
(8.05585 0 11.6701)
(6.55974 0 12.9799)
(4.62897 0 13.793)
(2.25724 0 14.1246)
(-0.320438 0 14.1886)
(-2.86991 0 14.073)
(-5.14937 0 13.6382)
(-6.95816 0 12.6879)
(-8.37265 0 11.285)
(-9.56508 0 9.66281)
(-10.6141 0 7.9708)
(-11.5274 0 6.27641)
(-12.2966 0 4.61974)
(-12.9098 0 3.02801)
(-13.3556 0 1.52041)
(-13.6238 0 0.107513)
(-13.7076 0 -1.20807)
(-13.6051 0 -2.4281)
(-13.3181 0 -3.55547)
(-12.8507 0 -4.59277)
(-12.2091 0 -5.54191)
(-11.4011 0 -6.40394)
(-10.4367 0 -7.17897)
(-9.32779 0 -7.8661)
(-8.08871 0 -8.46332)
(-6.73589 0 -8.96758)
(-5.28776 0 -9.37507)
(-3.76445 0 -9.68163)
(-2.18743 0 -9.88335)
(-0.579127 0 -9.97722)
(1.03747 0 -9.96164)
(2.63921 0 -9.83689)
(4.20321 0 -9.60502)
(5.70729 0 -9.26937)
(7.13032 0 -8.83396)
(8.45262 0 -8.30292)
(9.65628 0 -7.67987)
(10.7255 0 -6.96759)
(11.6466 0 -6.16776)
(12.4082 0 -5.28099)
(13.001 0 -4.30691)
(13.4177 0 -3.2442)
(13.6526 0 -2.09074)
(13.7022 0 -0.843802)
(13.5656 0 0.499356)
(13.246 0 1.93969)
(12.7515 0 3.47264)
(12.0927 0 5.08508)
(11.2815 0 6.75565)
(10.3289 0 8.45409)
(9.24154 0 10.1354)
(7.9991 0 11.7159)
(6.49135 0 13.0128)
(4.54372 0 13.8082)
(2.16069 0 14.1286)
(-0.419678 0 14.1881)
(-2.96419 0 14.0667)
(-5.22979 0 13.6181)
(-7.02247 0 12.6504)
(-8.42728 0 11.2372)
(-9.61496 0 9.61208)
(-10.6604 0 7.92044)
(-11.5702 0 6.2281)
(-12.3357 0 4.57464)
(-12.9451 0 2.98692)
(-13.387 0 1.48383)
(-13.6511 0 0.0756238)
(-13.7309 0 -1.23536)
(-13.6247 0 -2.45101)
(-13.3343 0 -3.57427)
(-12.8639 0 -4.60779)
(-12.2195 0 -5.55351)
(-11.4091 0 -6.41249)
(-10.4427 0 -7.18488)
(-9.3321 0 -7.86974)
(-8.09169 0 -8.46507)
(-6.73783 0 -8.9678)
(-5.28894 0 -9.37409)
(-3.76507 0 -9.67978)
(-2.18765 0 -9.88094)
(-0.579027 0 -9.97455)
(0.972755 0 -11.5246)
(2.47319 0 -11.3735)
(3.93531 0 -11.0928)
(5.33673 0 -10.6868)
(6.65636 0 -10.161)
(7.87478 0 -9.52122)
(8.97463 0 -8.77317)
(9.94081 0 -7.9219)
(10.7606 0 -6.97143)
(11.4238 0 -5.92461)
(11.9224 0 -4.78314)
(12.2503 0 -3.54767)
(12.4038 0 -2.21807)
(12.3811 0 -0.793977)
(12.1833 0 0.724278)
(11.8146 0 2.33391)
(11.2829 0 4.02711)
(10.5988 0 5.78914)
(9.77414 0 7.59833)
(8.82157 0 9.42587)
(7.75283 0 11.2338)
(6.57565 0 12.9662)
(5.26634 0 14.5194)
(3.72033 0 15.7082)
(1.84055 0 16.3793)
(-0.261843 0 16.5505)
(-2.33104 0 16.2596)
(-4.12747 0 15.4532)
(-5.60114 0 14.1521)
(-6.87035 0 12.5385)
(-8.01975 0 10.7787)
(-9.05943 0 8.96013)
(-9.98 0 7.13242)
(-10.7693 0 5.33099)
(-11.4148 0 3.58271)
(-11.9048 0 1.90763)
(-12.2293 0 0.318706)
(-12.3812 0 -1.17764)
(-12.3573 0 -2.57944)
(-12.1573 0 -3.88659)
(-11.7834 0 -5.09941)
(-11.2401 0 -6.21781)
(-10.5339 0 -7.24082)
(-9.6734 0 -8.16641)
(-8.66962 0 -8.99137)
(-7.53592 0 -9.71137)
(-6.28808 0 -10.3212)
(-4.94413 0 -10.8149)
(-3.52403 0 -11.1868)
(-2.04934 0 -11.4317)
(-0.542791 0 -11.5457)
(0.972214 0 -11.5268)
(2.47207 0 -11.3753)
(3.93352 0 -11.0939)
(5.33412 0 -10.6868)
(6.65271 0 -10.1594)
(7.86986 0 -9.51775)
(8.96814 0 -8.7674)
(9.93246 0 -7.91343)
(10.7501 0 -6.95986)
(11.4108 0 -5.90955)
(11.9065 0 -4.76423)
(12.2314 0 -3.52457)
(12.3815 0 -2.19051)
(12.3553 0 -0.761752)
(12.1538 0 0.761249)
(11.7814 0 2.37553)
(11.2461 0 4.07301)
(10.5585 0 5.8387)
(9.73061 0 7.65064)
(8.77501 0 9.47974)
(7.70337 0 11.2877)
(6.52314 0 13.0175)
(5.20836 0 14.5631)
(3.65199 0 15.7372)
(1.76119 0 16.3916)
(-0.344483 0 16.5485)
(-2.40778 0 16.2428)
(-4.19239 0 15.4195)
(-5.65705 0 14.1054)
(-6.92184 0 12.486)
(-8.06833 0 10.7245)
(-9.10509 0 8.90648)
(-10.0226 0 7.08069)
(-10.8086 0 5.28228)
(-11.4505 0 3.53785)
(-11.9368 0 1.86718)
(-12.2576 0 0.282944)
(-12.4059 0 -1.20868)
(-12.3784 0 -2.60586)
(-12.1751 0 -3.90863)
(-11.7981 0 -5.11736)
(-11.2521 0 -6.23201)
(-10.5435 0 -7.25163)
(-9.68089 0 -8.17423)
(-8.67531 0 -8.9966)
(-7.54012 0 -9.71441)
(-6.29106 0 -10.3224)
(-4.94612 0 -10.8147)
(-3.52523 0 -11.1856)
(-2.0499 0 -11.4298)
(-0.542785 0 -11.5435)
(0.891503 0 -12.975)
(2.26554 0 -12.7971)
(3.60159 0 -12.4669)
(4.87758 0 -11.9896)
(6.0729 0 -11.3725)
(7.16881 0 -10.6233)
(8.14879 0 -9.74997)
(8.99878 0 -8.76003)
(9.70728 0 -7.65997)
(10.2653 0 -6.45505)
(10.6663 0 -5.14926)
(10.9059 0 -3.74542)
(10.9822 0 -2.2456)
(10.8953 0 -0.651823)
(10.6479 0 1.03277)
(10.2454 0 2.80228)
(9.69643 0 4.64608)
(9.01151 0 6.54746)
(8.20305 0 8.48335)
(7.28482 0 10.4242)
(6.27134 0 12.3333)
(5.17784 0 14.1626)
(4.01586 0 15.8347)
(2.75981 0 17.2089)
(1.34996 0 18.0908)
(-0.191066 0 18.3411)
(-1.71019 0 17.9242)
(-3.0779 0 16.9004)
(-4.30457 0 15.4327)
(-5.44876 0 13.7095)
(-6.52308 0 11.853)
(-7.51323 0 9.93035)
(-8.40427 0 7.98576)
(-9.18179 0 6.05413)
(-9.83233 0 4.16333)
(-10.3439 0 2.33489)
(-10.7063 0 0.583966)
(-10.9119 0 -1.08004)
(-10.9558 0 -2.65209)
(-10.8361 0 -4.12939)
(-10.5532 0 -5.50991)
(-10.1096 0 -6.79136)
(-9.51048 0 -7.97057)
(-8.76286 0 -9.04318)
(-7.8765 0 -10.0035)
(-6.86362 0 -10.8448)
(-5.73902 0 -11.5593)
(-4.51992 0 -12.1391)
(-3.22566 0 -12.5764)
(-1.87736 0 -12.8646)
(-0.497453 0 -12.9988)
(0.89084 0 -12.9765)
(2.2641 0 -12.7982)
(3.59928 0 -12.4671)
(4.87427 0 -11.9885)
(6.06841 0 -11.3697)
(7.16291 0 -10.6183)
(8.14124 0 -9.74243)
(8.98932 0 -8.74951)
(9.69563 0 -7.64606)
(10.2512 0 -6.43737)
(10.6495 0 -5.12745)
(10.8862 0 -3.71918)
(10.9594 0 -2.21469)
(10.8692 0 -0.616124)
(10.6185 0 1.07326)
(10.2128 0 2.84737)
(9.66058 0 4.69533)
(8.97266 0 6.60016)
(8.16145 0 8.53857)
(7.24074 0 10.4808)
(6.2251 0 12.3897)
(5.1298 0 14.2169)
(3.96582 0 15.8831)
(2.70567 0 17.2453)
(1.29009 0 18.1089)
(-0.253159 0 18.3381)
(-1.76849 0 17.9004)
(-3.13055 0 16.8598)
(-4.35388 0 15.3821)
(-5.49628 0 13.6543)
(-6.56869 0 11.7963)
(-7.55658 0 9.87395)
(-8.44506 0 7.93104)
(-9.21974 0 6.0022)
(-9.86721 0 4.11507)
(-10.3756 0 2.29092)
(-10.7347 0 0.544665)
(-10.9369 0 -1.11455)
(-10.9776 0 -2.68183)
(-10.8548 0 -4.15453)
(-10.569 0 -5.53071)
(-10.1228 0 -6.80813)
(-9.52123 0 -7.98367)
(-8.77149 0 -9.053)
(-7.88326 0 -10.0105)
(-6.86878 0 -10.8493)
(-5.74282 0 -11.5618)
(-4.52257 0 -12.1399)
(-3.22734 0 -12.576)
(-1.8782 0 -12.8634)
(-0.497531 0 -12.9972)
(0.797229 0 -14.2877)
(2.02494 0 -14.0837)
(3.21588 0 -13.7049)
(4.34883 0 -13.1582)
(5.4041 0 -12.4523)
(6.36401 0 -11.5972)
(7.21325 0 -10.6032)
(7.93905 0 -9.48042)
(8.53129 0 -8.23797)
(8.98251 0 -6.88364)
(9.28773 0 -5.42382)
(9.4444 0 -3.86365)
(9.45224 0 -2.20748)
(9.31328 0 -0.459677)
(9.03187 0 1.37411)
(8.61487 0 3.28534)
(8.07161 0 5.26098)
(7.41352 0 7.28238)
(6.6539 0 9.32473)
(5.80796 0 11.3568)
(4.89307 0 13.3401)
(3.92934 0 15.2259)
(2.94065 0 16.9435)
(1.94201 0 18.3706)
(0.921205 0 19.3179)
(-0.128342 0 19.5954)
(-1.1725 0 19.1358)
(-2.18566 0 18.0469)
(-3.18137 0 16.5299)
(-4.16557 0 14.7595)
(-5.11859 0 12.8421)
(-6.0172 0 10.8407)
(-6.84211 0 8.80075)
(-7.57654 0 6.75891)
(-8.20574 0 4.74477)
(-8.71687 0 2.78161)
(-9.09901 0 0.886659)
(-9.34341 0 -0.928198)
(-9.44386 0 -2.65527)
(-9.3966 0 -4.28929)
(-9.20023 0 -5.8259)
(-8.85564 0 -7.26052)
(-8.36601 0 -8.58764)
(-7.737 0 -9.80043)
(-6.97683 0 -10.8907)
(-6.09635 0 -11.8489)
(-5.1091 0 -12.6649)
(-4.0311 0 -13.3284)
(-2.88069 0 -13.8295)
(-1.67807 0 -14.16)
(-0.444859 0 -14.314)
(0.796477 0 -14.2884)
(2.02326 0 -14.0838)
(3.21319 0 -13.7041)
(4.34502 0 -13.156)
(5.399 0 -12.4481)
(6.35745 0 -11.5906)
(7.205 0 -10.5939)
(7.9289 0 -9.46786)
(8.51903 0 -8.22178)
(8.96792 0 -6.86344)
(9.27063 0 -5.39929)
(9.42462 0 -3.83452)
(9.42967 0 -2.17355)
(9.28785 0 -0.420889)
(9.00358 0 1.41768)
(8.58381 0 3.33342)
(8.03793 0 5.31306)
(7.37744 0 7.33768)
(6.61571 0 9.38225)
(5.76805 0 11.4153)
(4.85188 0 13.398)
(3.88748 0 15.2812)
(2.89877 0 16.9931)
(1.89998 0 18.409)
(0.878207 0 19.3379)
(-0.171867 0 19.5919)
(-1.21516 0 19.1098)
(-2.22754 0 18.0045)
(-3.22326 0 16.4781)
(-4.20728 0 14.7031)
(-5.15944 0 12.7838)
(-6.05662 0 10.7822)
(-6.87969 0 8.74363)
(-7.61191 0 6.70431)
(-8.23863 0 4.69362)
(-8.74708 0 2.7346)
(-9.12639 0 0.844248)
(-9.36791 0 -0.965797)
(-9.46549 0 -2.68802)
(-9.41545 0 -4.3173)
(-9.21642 0 -5.84938)
(-8.86934 0 -7.27976)
(-8.37742 0 -8.60297)
(-7.74634 0 -9.81224)
(-6.98431 0 -10.8994)
(-6.10219 0 -11.8549)
(-5.1135 0 -12.6687)
(-4.03426 0 -13.3303)
(-2.88274 0 -13.8301)
(-1.67913 0 -14.1597)
(-0.445006 0 -14.3133)
(0.692448 0 -15.445)
(1.75778 0 -15.2158)
(2.7884 0 -14.7908)
(3.76437 0 -14.1779)
(4.66738 0 -13.3877)
(5.48116 0 -12.4325)
(6.19188 0 -11.325)
(6.78831 0 -10.0781)
(7.26191 0 -8.70345)
(7.60683 0 -7.21151)
(7.81979 0 -5.61118)
(7.89995 0 -3.90996)
(7.84881 0 -2.11451)
(7.67011 0 -0.231485)
(7.36988 0 1.73114)
(6.95637 0 3.7625)
(6.44006 0 5.84736)
(5.83342 0 7.96506)
(5.15092 0 10.0888)
(4.40929 0 12.1848)
(3.62798 0 14.2116)
(2.83011 0 16.1168)
(2.04349 0 17.8282)
(1.29522 0 19.2326)
(0.593293 0 20.1595)
(-0.0809576 0 20.4309)
(-0.759282 0 19.9812)
(-1.47174 0 18.9149)
(-2.23113 0 17.4179)
(-3.02296 0 15.6476)
(-3.81857 0 13.7042)
(-4.59126 0 11.6536)
(-5.31897 0 9.54496)
(-5.98295 0 7.41765)
(-6.5671 0 5.30361)
(-7.05744 0 3.22812)
(-7.44199 0 1.21047)
(-7.71081 0 -0.735231)
(-7.8562 0 -2.59893)
(-7.87273 0 -4.37304)
(-7.75723 0 -6.0509)
(-7.50883 0 -7.62561)
(-7.129 0 -9.08923)
(-6.62173 0 -10.4324)
(-5.99363 0 -11.6442)
(-5.25397 0 -12.7126)
(-4.41476 0 -13.6246)
(-3.49056 0 -14.3676)
(-2.49828 0 -14.9295)
(-1.45679 0 -15.3005)
(-0.386414 0 -15.4734)
(0.691644 0 -15.4447)
(1.75595 0 -15.215)
(2.78547 0 -14.7889)
(3.76025 0 -14.1744)
(4.66193 0 -13.3822)
(5.47424 0 -12.4244)
(6.18331 0 -11.3139)
(6.77791 0 -10.0636)
(7.24953 0 -8.6851)
(7.59231 0 -7.18899)
(7.803 0 -5.58418)
(7.8808 0 -3.87826)
(7.82725 0 -2.07795)
(7.64616 0 -0.19007)
(7.34359 0 1.77727)
(6.9279 0 3.81299)
(6.4096 0 5.90162)
(5.80127 0 8.02227)
(5.11744 0 10.1478)
(4.37492 0 12.2443)
(3.5933 0 14.27)
(2.79585 0 16.1719)
(2.01054 0 17.8769)
(1.26416 0 19.27)
(0.563774 0 20.1789)
(-0.110025 0 20.4276)
(-0.789141 0 19.956)
(-1.50334 0 18.8736)
(-2.26453 0 17.367)
(-3.0574 0 15.5913)
(-3.8532 0 13.6453)
(-4.6254 0 11.594)
(-5.35208 0 9.48619)
(-6.01461 0 7.36104)
(-6.59696 0 5.25018)
(-7.08524 0 3.17864)
(-7.46754 0 1.16546)
(-7.73399 0 -0.775483)
(-7.87695 0 -2.63432)
(-7.89106 0 -4.40362)
(-7.77321 0 -6.07684)
(-7.52255 0 -7.64715)
(-7.1406 0 -9.1067)
(-6.63137 0 -10.4461)
(-6.00147 0 -11.6547)
(-5.2602 0 -12.7201)
(-4.41953 0 -13.6298)
(-3.49403 0 -14.3707)
(-2.50058 0 -14.9312)
(-1.45801 0 -15.3012)
(-0.386613 0 -15.4736)
(0.579167 0 -16.4322)
(1.46918 0 -16.1797)
(2.3273 0 -15.7116)
(3.13534 0 -15.0373)
(3.8767 0 -14.1691)
(4.53688 0 -13.1217)
(5.1038 0 -11.9104)
(5.56795 0 -10.5505)
(5.92251 0 -9.05651)
(6.16332 0 -7.44154)
(6.28877 0 -5.71695)
(6.29971 0 -3.89268)
(6.19929 0 -1.97766)
(5.99287 0 0.0192298)
(5.68799 0 2.08783)
(5.29424 0 4.21514)
(4.8232 0 6.3839)
(4.28835 0 8.57146)
(3.70509 0 10.7488)
(3.09104 0 12.8797)
(2.46645 0 14.9194)
(1.8547 0 16.8116)
(1.28242 0 18.4821)
(0.775058 0 19.8251)
(0.341147 0 20.6953)
(-0.0452687 0 20.9474)
(-0.439032 0 20.5287)
(-0.890203 0 19.5233)
(-1.41537 0 18.0842)
(-1.99976 0 16.3477)
(-2.61664 0 14.4105)
(-3.24008 0 12.341)
(-3.8475 0 10.1924)
(-4.41936 0 8.007)
(-4.93862 0 5.81923)
(-5.39037 0 3.65648)
(-5.76161 0 1.54002)
(-6.04123 0 -0.514013)
(-6.22013 0 -2.49337)
(-6.29136 0 -4.38827)
(-6.2501 0 -6.18981)
(-6.0938 0 -7.88876)
(-5.82228 0 -9.47475)
(-5.43782 0 -10.9358)
(-4.94532 0 -12.2585)
(-4.35235 0 -13.4278)
(-3.66916 0 -14.4284)
(-2.90858 0 -15.2449)
(-2.08573 0 -15.8633)
(-1.21775 0 -16.2719)
(-0.323235 0 -16.4625)
(0.578347 0 -16.4308)
(1.46728 0 -16.1777)
(2.32428 0 -15.7085)
(3.1311 0 -15.0325)
(3.87115 0 -14.1622)
(4.5299 0 -13.112)
(5.09526 0 -11.8976)
(5.55772 0 -10.5341)
(5.91048 0 -9.0362)
(6.14939 0 -7.41694)
(6.27289 0 -5.6878)
(6.28184 0 -3.85879)
(6.17945 0 -1.93893)
(5.97114 0 0.0627486)
(5.6645 0 2.13593)
(5.2692 0 4.26739)
(4.79687 0 6.43965)
(4.26108 0 8.62979)
(3.67729 0 10.8085)
(3.06322 0 12.9394)
(2.43922 0 14.9772)
(1.82881 0 16.8653)
(1.25871 0 18.5286)
(0.754124 0 19.86)
(0.322637 0 20.7132)
(-0.0629975 0 20.9443)
(-0.458114 0 20.5054)
(-0.911941 0 19.4845)
(-1.43977 0 18.0352)
(-2.0261 0 16.2925)
(-2.64409 0 14.3518)
(-3.26793 0 12.2811)
(-3.87517 0 10.1328)
(-4.44637 0 7.94914)
(-4.96457 0 5.76423)
(-5.41494 0 3.60517)
(-5.78455 0 1.49298)
(-6.06235 0 -0.556413)
(-6.23932 0 -2.53097)
(-6.30855 0 -4.42106)
(-6.26529 0 -6.21791)
(-6.10703 0 -7.91238)
(-5.83361 0 -9.49417)
(-5.44736 0 -10.9514)
(-4.95319 0 -12.2706)
(-4.35868 0 -13.4369)
(-3.67408 0 -14.4349)
(-2.9122 0 -15.2493)
(-2.08816 0 -15.8661)
(-1.21906 0 -16.2737)
(-0.323472 0 -16.4638)
(0.45899 0 -17.2377)
(1.16322 0 -16.964)
(1.8391 0 -16.457)
(2.47058 0 -15.7273)
(3.04317 0 -14.7893)
(3.54442 0 -13.6596)
(3.96422 0 -12.3561)
(4.29495 0 -10.8968)
(4.53159 0 -9.29884)
(4.67167 0 -7.57779)
(4.71522 0 -5.74758)
(4.66464 0 -3.82049)
(4.52457 0 -1.80768)
(4.30179 0 0.279803)
(4.00509 0 2.42977)
(3.64518 0 4.62728)
(3.23449 0 6.85324)
(2.78712 0 9.08317)
(2.31884 0 11.2861)
(1.84723 0 13.4235)
(1.39175 0 15.4482)
(0.973735 0 17.3018)
(0.615297 0 18.9099)
(0.334826 0 20.176)
(0.134238 0 20.9798)
(-0.0164781 0 21.2098)
(-0.17488 0 20.8267)
(-0.393901 0 19.8935)
(-0.694782 0 18.5293)
(-1.06985 0 16.8495)
(-1.49894 0 14.9448)
(-1.95992 0 12.8846)
(-2.43188 0 10.7243)
(-2.89582 0 8.50877)
(-3.33462 0 6.27461)
(-3.73295 0 4.0511)
(-4.0771 0 1.86132)
(-4.35504 0 -0.276723)
(-4.55655 0 -2.34881)
(-4.67332 0 -4.34309)
(-4.69914 0 -6.24846)
(-4.62992 0 -8.05344)
(-4.4639 0 -9.74523)
(-4.20172 0 -11.3094)
(-3.84656 0 -12.7297)
(-3.40414 0 -13.9888)
(-2.8828 0 -15.0684)
(-2.29335 0 -15.951)
(-1.64886 0 -16.6204)
(-0.96434 0 -17.063)
(-0.256219 0 -17.2695)
(0.458189 0 -17.2352)
(1.16134 0 -16.9609)
(1.83612 0 -16.4527)
(2.46642 0 -15.7213)
(3.03776 0 -14.781)
(3.53768 0 -13.6485)
(3.95605 0 -12.3418)
(4.28528 0 -10.8788)
(4.52035 0 -9.27679)
(4.65883 0 -7.55141)
(4.70077 0 -5.71664)
(4.64862 0 -3.78483)
(4.50706 0 -1.76727)
(4.28292 0 0.324865)
(3.98507 0 2.47921)
(3.62426 0 4.68061)
(3.21299 0 6.90973)
(2.76542 0 9.14185)
(2.2974 0 11.3457)
(1.82656 0 13.4825)
(1.37246 0 15.5047)
(0.956472 0 17.3533)
(0.600717 0 18.9537)
(0.323291 0 20.2081)
(0.125233 0 20.9959)
(-0.0246793 0 21.207)
(-0.184479 0 20.8056)
(-0.4063 0 19.8576)
(-0.710182 0 18.4829)
(-1.08775 0 16.7962)
(-1.51868 0 14.8873)
(-1.98085 0 12.8251)
(-2.45342 0 10.6646)
(-2.91747 0 8.45044)
(-3.35597 0 6.21875)
(-3.75361 0 3.99862)
(-4.09677 0 1.81287)
(-4.37348 0 -0.320726)
(-4.57358 0 -2.38814)
(-4.68882 0 -4.37767)
(-4.71302 0 -6.27837)
(-4.64218 0 -8.07884)
(-4.47454 0 -9.76638)
(-4.2108 0 -11.3266)
(-3.85413 0 -12.7434)
(-3.4103 0 -13.9993)
(-2.88764 0 -15.0763)
(-2.29695 0 -15.9567)
(-1.6513 0 -16.6244)
(-0.965668 0 -17.0659)
(-0.256477 0 -17.2719)
(0.333218 0 -17.8519)
(0.843208 0 -17.5598)
(1.32908 0 -17.019)
(1.77728 0 -16.2414)
(2.17578 0 -15.243)
(2.51444 0 -14.0428)
(2.78532 0 -12.6609)
(2.98282 0 -11.1179)
(3.10375 0 -9.43325)
(3.14731 0 -7.62518)
(3.11506 0 -5.70993)
(3.01075 0 -3.70204)
(2.8403 0 -1.61481)
(2.6116 0 0.538711)
(2.33439 0 2.74445)
(2.02011 0 4.98575)
(1.68162 0 7.24197)
(1.33314 0 9.48713)
(0.990077 0 11.6888)
(0.668988 0 13.8069)
(0.387289 0 15.7931)
(0.162632 0 17.5887)
(0.0111634 0 19.1221)
(-0.0569751 0 20.3071)
(-0.0472962 0 21.046)
(0.00852999 0 21.2551)
(0.0573251 0 20.9059)
(0.0494909 0 20.0443)
(-0.0396433 0 18.7611)
(-0.210513 0 17.1524)
(-0.450787 0 15.3008)
(-0.743661 0 13.2741)
(-1.07143 0 11.1283)
(-1.41686 0 8.90977)
(-1.76365 0 6.65638)
(-2.09667 0 4.39896)
(-2.40203 0 2.16211)
(-2.6672 0 -0.0345651)
(-2.88114 0 -2.1751)
(-3.03457 0 -4.24569)
(-3.12009 0 -6.23323)
(-3.13235 0 -8.12401)
(-3.06815 0 -9.90295)
(-2.92658 0 -11.5532)
(-2.70908 0 -13.0561)
(-2.4195 0 -14.3916)
(-2.06412 0 -15.5392)
(-1.65152 0 -16.4788)
(-1.1924 0 -17.1923)
(-0.699286 0 -17.6646)
(-0.186088 0 -17.885)
(0.332469 0 -17.8484)
(0.841435 0 -17.5557)
(1.32626 0 -17.0136)
(1.77337 0 -16.2341)