/*--------------------------------*- C++ -*----------------------------------*\
| =========                 |                                                 |
| \\      /  F ield         | OpenFOAM: The Open Source CFD Toolbox           |
|  \\    /   O peration     | Version:  2.3.0                                 |
|   \\  /    A nd           | Web:      www.OpenFOAM.org                      |
|    \\/     M anipulation  |                                                 |
\*---------------------------------------------------------------------------*/
FoamFile
{
    version     2.0;
    format      ascii;
    class       volVectorField;
    location    "24000";
    object      U;
}
// * * * * * * * * * * * * * * * * * * * * * * * * * * * * * * * * * * * * * //

dimensions      [0 1 -1 0 0 0 0];

internalField   nonuniform List<vector> 
3060
(
(6.14617e-06 0 -4.08699e-06)
(1.5641e-05 0 -3.94624e-06)
(2.48998e-05 0 -3.68703e-06)
(3.37886e-05 0 -3.31609e-06)
(4.21846e-05 0 -2.84436e-06)
(4.9979e-05 0 -2.2903e-06)
(5.70784e-05 0 -1.68276e-06)
(6.3406e-05 0 -1.06085e-06)
(6.88984e-05 0 -4.68121e-07)
(7.34968e-05 0 5.78e-08)
(7.71312e-05 0 4.94419e-07)
(7.97019e-05 0 8.36709e-07)
(8.10645e-05 0 1.09252e-06)
(8.10238e-05 0 1.27487e-06)
(7.93653e-05 0 1.41151e-06)
(7.5899e-05 0 1.56634e-06)
(7.05724e-05 0 1.79411e-06)
(6.35332e-05 0 2.04904e-06)
(5.51441e-05 0 2.20272e-06)
(4.59799e-05 0 2.17761e-06)
(3.66702e-05 0 2.00051e-06)
(2.77591e-05 0 1.72745e-06)
(1.96018e-05 0 1.43499e-06)
(1.22693e-05 0 1.19209e-06)
(5.58816e-06 0 1.04068e-06)
(-7.61096e-07 0 9.97946e-07)
(-7.1563e-06 0 1.06752e-06)
(-1.3968e-05 0 1.24332e-06)
(-2.14896e-05 0 1.50315e-06)
(-2.98436e-05 0 1.79796e-06)
(-3.88904e-05 0 2.05473e-06)
(-4.82155e-05 0 2.1989e-06)
(-5.72447e-05 0 2.18062e-06)
(-6.53467e-05 0 1.99104e-06)
(-7.19863e-05 0 1.73211e-06)
(-7.68571e-05 0 1.5226e-06)
(-7.98588e-05 0 1.37885e-06)
(-8.10894e-05 0 1.23387e-06)
(-8.07498e-05 0 1.03356e-06)
(-7.90565e-05 0 7.55907e-07)
(-7.61924e-05 0 3.88679e-07)
(-7.22905e-05 0 -7.31625e-08)
(-6.74421e-05 0 -6.20167e-07)
(-6.17135e-05 0 -1.22523e-06)
(-5.51641e-05 0 -1.84801e-06)
(-4.78611e-05 0 -2.44511e-06)
(-3.98861e-05 0 -2.97971e-06)
(-3.13374e-05 0 -3.42578e-06)
(-2.23282e-05 0 -3.76715e-06)
(-1.29851e-05 0 -3.99426e-06)
(-3.44499e-06 0 -4.101e-06)
(6.14786e-06 0 -4.08328e-06)
(1.56467e-05 0 -3.94206e-06)
(2.4909e-05 0 -3.68198e-06)
(3.38005e-05 0 -3.30986e-06)
(4.21981e-05 0 -2.83678e-06)
(4.99927e-05 0 -2.28141e-06)
(5.70906e-05 0 -1.67291e-06)
(6.34147e-05 0 -1.05068e-06)
(6.89009e-05 0 -4.58357e-07)
(7.34895e-05 0 6.65561e-08)
(7.71093e-05 0 5.01867e-07)
(7.96584e-05 0 8.42833e-07)
(8.09905e-05 0 1.09747e-06)
(8.09082e-05 0 1.2789e-06)
(7.91972e-05 0 1.41581e-06)
(7.56696e-05 0 1.57344e-06)
(7.02807e-05 0 1.80415e-06)
(6.31869e-05 0 2.0576e-06)
(5.4761e-05 0 2.2048e-06)
(4.55841e-05 0 2.17277e-06)
(3.62851e-05 0 1.99049e-06)
(2.74028e-05 0 1.71518e-06)
(1.92822e-05 0 1.42359e-06)
(1.19827e-05 0 1.18385e-06)
(5.32294e-06 0 1.03672e-06)
(-1.02045e-06 0 9.98616e-07)
(-7.42619e-06 0 1.07276e-06)
(-1.42631e-05 0 1.25263e-06)
(-2.18199e-05 0 1.51509e-06)
(-3.02095e-05 0 1.8099e-06)
(-3.92809e-05 0 2.06353e-06)
(-4.86105e-05 0 2.20201e-06)
(-5.762e-05 0 2.17639e-06)
(-6.56792e-05 0 1.98146e-06)
(-7.22611e-05 0 1.7226e-06)
(-7.70689e-05 0 1.51646e-06)
(-8.00108e-05 0 1.3749e-06)
(-8.1192e-05 0 1.22968e-06)
(-8.08139e-05 0 1.02828e-06)
(-7.90926e-05 0 7.49371e-07)
(-7.6209e-05 0 3.80777e-07)
(-7.22938e-05 0 -8.23428e-08)
(-6.74366e-05 0 -6.30231e-07)
(-6.17024e-05 0 -1.23551e-06)
(-5.51499e-05 0 -1.85776e-06)
(-4.78457e-05 0 -2.45377e-06)
(-3.98712e-05 0 -2.98701e-06)
(-3.13243e-05 0 -3.43174e-06)
(-2.2318e-05 0 -3.77198e-06)
(-1.29785e-05 0 -3.9983e-06)
(-3.44247e-06 0 -4.10466e-06)
(9.26961e-06 0 -1.6637e-05)
(2.36644e-05 0 -1.64243e-05)
(3.78936e-05 0 -1.60352e-05)
(5.18635e-05 0 -1.54855e-05)
(6.54898e-05 0 -1.47933e-05)
(7.8693e-05 0 -1.39732e-05)
(9.13891e-05 0 -1.30304e-05)
(0.000103473 0 -1.19551e-05)
(0.000114802 0 -1.07198e-05)
(0.000125183 0 -9.27845e-06)
(0.000134369 0 -7.56531e-06)
(0.000142061 0 -5.49378e-06)
(0.000147901 0 -2.96103e-06)
(0.00015147 0 1.26564e-07)
(0.000152274 0 3.75042e-06)
(0.000149769 0 7.60978e-06)
(0.000143526 0 1.11711e-05)
(0.000133415 0 1.40188e-05)
(0.000119655 0 1.5941e-05)
(0.000103046 0 1.68755e-05)
(8.47781e-05 0 1.68264e-05)
(6.60445e-05 0 1.59311e-05)
(4.77965e-05 0 1.46081e-05)
(3.04835e-05 0 1.33395e-05)
(1.40469e-05 0 1.24853e-05)
(-1.91124e-06 0 1.22356e-05)
(-1.7936e-05 0 1.26388e-05)
(-3.45531e-05 0 1.36154e-05)
(-5.20976e-05 0 1.49351e-05)
(-7.05163e-05 0 1.61993e-05)
(-8.92297e-05 0 1.69203e-05)
(-0.000107197 0 1.67294e-05)
(-0.000123201 0 1.55532e-05)
(-0.000136109 0 1.33928e-05)
(-0.000145263 0 1.03412e-05)
(-0.000150551 0 6.6547e-06)
(-0.000152176 0 2.80168e-06)
(-0.000150621 0 -7.1121e-07)
(-0.000146427 0 -3.66215e-06)
(-0.000140069 0 -6.07572e-06)
(-0.00013195 0 -8.05292e-06)
(-0.000122415 0 -9.69386e-06)
(-0.000111752 0 -1.10801e-05)
(-0.000100193 0 -1.22725e-05)
(-8.79201e-05 0 -1.33125e-05)
(-7.50648e-05 0 -1.4223e-05)
(-6.17259e-05 0 -1.50097e-05)
(-4.79856e-05 0 -1.56646e-05)
(-3.39241e-05 0 -1.61715e-05)
(-1.96288e-05 0 -1.65126e-05)
(-5.1956e-06 0 -1.66736e-05)
(9.27428e-06 0 -1.6647e-05)
(2.36788e-05 0 -1.64341e-05)
(3.79175e-05 0 -1.60445e-05)
(5.18969e-05 0 -1.5494e-05)
(6.5532e-05 0 -1.48006e-05)
(7.87432e-05 0 -1.39786e-05)
(9.14454e-05 0 -1.30329e-05)
(0.000103532 0 -1.19529e-05)
(0.000114859 0 -1.07108e-05)
(0.00012523 0 -9.25958e-06)
(0.000134396 0 -7.53279e-06)
(0.000142055 0 -5.4431e-06)
(0.000147845 0 -2.88734e-06)
(0.000151346 0 2.26606e-07)
(0.00015206 0 3.87265e-06)
(0.00014944 0 7.73684e-06)
(0.000143068 0 1.1282e-05)
(0.000132825 0 1.40999e-05)
(0.00011895 0 1.59861e-05)
(0.000102265 0 1.68835e-05)
(8.39685e-05 0 1.67967e-05)
(6.52494e-05 0 1.58763e-05)
(4.70424e-05 0 1.45481e-05)
(2.97748e-05 0 1.3292e-05)
(1.33703e-05 0 1.24613e-05)
(-2.57886e-06 0 1.22397e-05)
(-1.86198e-05 0 1.26702e-05)
(-3.52742e-05 0 1.36679e-05)
(-5.28651e-05 0 1.49958e-05)
(-7.13194e-05 0 1.62488e-05)
(-9.0036e-05 0 1.694e-05)
(-0.000107961 0 1.67111e-05)
(-0.000123877 0 1.54976e-05)
(-0.000136662 0 1.33023e-05)
(-0.000145683 0 1.02239e-05)
(-0.000150845 0 6.52637e-06)
(-0.000152361 0 2.68414e-06)
(-0.000150722 0 -8.04183e-07)
(-0.000146465 0 -3.72922e-06)
(-0.000140062 0 -6.12109e-06)
(-0.000131915 0 -8.08145e-06)
(-0.000122363 0 -9.70988e-06)
(-0.000111691 0 -1.10872e-05)
(-0.000100132 0 -1.22734e-05)
(-8.78626e-05 0 -1.33093e-05)
(-7.5014e-05 0 -1.42172e-05)
(-6.16833e-05 0 -1.50022e-05)
(-4.79519e-05 0 -1.5656e-05)
(-3.38999e-05 0 -1.61621e-05)
(-1.96141e-05 0 -1.65028e-05)
(-5.19057e-06 0 -1.66636e-05)
(1.03892e-05 0 -3.1646e-05)
(2.65113e-05 0 -3.13071e-05)
(4.24157e-05 0 -3.06825e-05)
(5.79706e-05 0 -2.97901e-05)
(7.30443e-05 0 -2.86487e-05)
(8.75023e-05 0 -2.72697e-05)
(0.000101205 0 -2.56491e-05)
(0.000114003 0 -2.37614e-05)
(0.000125741 0 -2.15593e-05)
(0.000136256 0 -1.89764e-05)
(0.000145387 0 -1.59317e-05)
(0.000152982 0 -1.2334e-05)
(0.000158911 0 -8.08935e-06)
(0.00016308 0 -3.11303e-06)
(0.000165408 0 2.66991e-06)
(0.000165708 0 9.34197e-06)
(0.000163392 0 1.68982e-05)
(0.000157463 0 2.48359e-05)
(0.000146969 0 3.17916e-05)
(0.000131458 0 3.6312e-05)
(0.00011168 0 3.82023e-05)
(8.92458e-05 0 3.79253e-05)
(6.58555e-05 0 3.62602e-05)
(4.25848e-05 0 3.42546e-05)
(1.97868e-05 0 3.27831e-05)
(-2.68908e-06 0 3.23385e-05)
(-2.52103e-05 0 3.30508e-05)
(-4.81164e-05 0 3.47071e-05)
(-7.14639e-05 0 3.67188e-05)
(-9.47366e-05 0 3.81372e-05)
(-0.000116683 0 3.79447e-05)
(-0.000135537 0 3.54404e-05)
(-0.000149835 0 3.02572e-05)
(-0.000159125 0 2.2896e-05)
(-0.000164061 0 1.49514e-05)
(-0.000165635 0 7.58563e-06)
(-0.000164783 0 1.12989e-06)
(-0.000161971 0 -4.45644e-06)
(-0.000157338 0 -9.25291e-06)
(-0.000150962 0 -1.33358e-05)
(-0.000142948 0 -1.6793e-05)
(-0.000133432 0 -1.97185e-05)
(-0.00012257 0 -2.22018e-05)
(-0.000110526 0 -2.43206e-05)
(-9.74613e-05 0 -2.61371e-05)
(-8.3531e-05 0 -2.76935e-05)
(-6.88821e-05 0 -2.90096e-05)
(-5.36535e-05 0 -3.00848e-05)
(-3.79793e-05 0 -3.09052e-05)
(-2.19917e-05 0 -3.14517e-05)
(-5.82311e-06 0 -3.1708e-05)
(1.03933e-05 0 -3.16658e-05)
(2.65243e-05 0 -3.13263e-05)
(4.24369e-05 0 -3.07006e-05)
(5.79988e-05 0 -2.98065e-05)
(7.30776e-05 0 -2.86624e-05)
(8.75381e-05 0 -2.72792e-05)
(0.000101239 0 -2.56523e-05)
(0.000114032 0 -2.37556e-05)
(0.000125759 0 -2.15409e-05)
(0.000136257 0 -1.89411e-05)
(0.000145364 0 -1.58748e-05)
(0.000152928 0 -1.22503e-05)
(0.000158821 0 -7.97403e-06)
(0.000162947 0 -2.96197e-06)
(0.000165227 0 2.86049e-06)
(0.000165463 0 9.57557e-06)
(0.000163047 0 1.71683e-05)
(0.000156977 0 2.51053e-05)
(0.000146305 0 3.19924e-05)
(0.00013062 0 3.64094e-05)
(0.000110717 0 3.8206e-05)
(8.82298e-05 0 3.78597e-05)
(6.48408e-05 0 3.61647e-05)
(4.15957e-05 0 3.41709e-05)
(1.88214e-05 0 3.27391e-05)
(-3.64733e-06 0 3.23462e-05)
(-2.61812e-05 0 3.31081e-05)
(-4.91136e-05 0 3.47979e-05)
(-7.24832e-05 0 3.68104e-05)
(-9.57445e-05 0 3.81863e-05)
(-0.000117618 0 3.79167e-05)
(-0.000136329 0 3.53141e-05)
(-0.000150445 0 3.00301e-05)
(-0.000159566 0 2.26199e-05)
(-0.000164371 0 1.4689e-05)
(-0.000165858 0 7.36374e-06)
(-0.000164949 0 9.50343e-07)
(-0.00016209 0 -4.59757e-06)
(-0.000157415 0 -9.35937e-06)
(-0.000151004 0 -1.3412e-05)
(-0.000142961 0 -1.68438e-05)
(-0.000133423 0 -1.97491e-05)
(-0.000122546 0 -2.22167e-05)
(-0.000110492 0 -2.43239e-05)
(-9.74229e-05 0 -2.61322e-05)
(-8.34925e-05 0 -2.76831e-05)
(-6.88467e-05 0 -2.89953e-05)
(-5.36237e-05 0 -3.00681e-05)
(-3.79569e-05 0 -3.08868e-05)
(-2.19777e-05 0 -3.14324e-05)
(-5.81807e-06 0 -3.16882e-05)
(1.08701e-05 0 -4.83673e-05)
(2.77188e-05 0 -4.78431e-05)
(4.42879e-05 0 -4.6872e-05)
(6.04082e-05 0 -4.54723e-05)
(7.5912e-05 0 -4.36624e-05)
(9.06327e-05 0 -4.14537e-05)
(0.000104406 0 -3.88438e-05)
(0.000117074 0 -3.58129e-05)
(0.000128485 0 -3.23245e-05)
(0.0001385 0 -2.83287e-05)
(0.000146993 0 -2.37663e-05)
(0.000153859 0 -1.85712e-05)
(0.00015901 0 -1.26715e-05)
(0.000162375 0 -5.98068e-06)
(0.000163885 0 1.62854e-06)
(0.000163462 0 1.03401e-05)
(0.000161017 0 2.02503e-05)
(0.000156431 0 3.10858e-05)
(0.000149271 0 4.21736e-05)
(0.000138294 0 5.23237e-05)
(0.000121987 0 5.93323e-05)
(0.00010056 0 6.19425e-05)
(7.58155e-05 0 6.13899e-05)
(4.9705e-05 0 5.95128e-05)
(2.32774e-05 0 5.78614e-05)
(-3.16002e-06 0 5.73341e-05)
(-2.95977e-05 0 5.81686e-05)
(-5.59897e-05 0 5.99754e-05)
(-8.18925e-05 0 6.16855e-05)
(-0.00010602 0 6.16351e-05)
(-0.000126324 0 5.80078e-05)
(-0.000141254 0 5.00081e-05)
(-0.000151132 0 3.94595e-05)
(-0.00015757 0 2.83439e-05)
(-0.000161598 0 1.76751e-05)
(-0.000163521 0 8.03958e-06)
(-0.000163442 0 -3.95834e-07)
(-0.000161447 0 -7.77495e-06)
(-0.000157612 0 -1.42712e-05)
(-0.000152005 0 -1.99985e-05)
(-0.000144701 0 -2.50376e-05)
(-0.000135793 0 -2.94588e-05)
(-0.000125391 0 -3.33264e-05)
(-0.000113625 0 -3.66977e-05)
(-0.000100639 0 -3.96196e-05)
(-8.65873e-05 0 -4.21247e-05)
(-7.16304e-05 0 -4.42284e-05)
(-5.59341e-05 0 -4.59291e-05)
(-3.96662e-05 0 -4.72134e-05)
(-2.29957e-05 0 -4.80622e-05)
(-6.09241e-06 0 -4.84585e-05)
(1.08724e-05 0 -4.83932e-05)
(2.77273e-05 0 -4.78679e-05)
(4.43014e-05 0 -4.68943e-05)
(6.04251e-05 0 -4.54907e-05)
(7.59296e-05 0 -4.36753e-05)
(9.06479e-05 0 -4.14588e-05)
(0.000104415 0 -3.88384e-05)
(0.000117072 0 -3.57935e-05)
(0.000128466 0 -3.22873e-05)
(0.000138459 0 -2.82694e-05)
(0.000146925 0 -2.36803e-05)
(0.000153758 0 -1.8454e-05)
(0.000158872 0 -1.25184e-05)
(0.000162194 0 -5.78664e-06)
(0.000163656 0 1.87038e-06)
(0.000163179 0 1.06372e-05)
(0.000160674 0 2.06008e-05)
(0.000156018 0 3.14701e-05)
(0.000148753 0 4.25575e-05)
(0.000137604 0 5.26381e-05)
(0.000121086 0 5.94795e-05)
(9.94988e-05 0 6.19354e-05)
(7.46792e-05 0 6.13014e-05)
(4.85526e-05 0 5.94158e-05)
(2.21284e-05 0 5.78067e-05)
(-4.30688e-06 0 5.73438e-05)
(-3.07482e-05 0 5.8239e-05)
(-5.71412e-05 0 6.00767e-05)
(-8.30157e-05 0 6.17588e-05)
(-0.000107044 0 6.16049e-05)
(-0.000127167 0 5.78084e-05)
(-0.000141888 0 4.96635e-05)
(-0.000151613 0 3.90702e-05)
(-0.00015796 0 2.79656e-05)
(-0.000161922 0 1.73377e-05)
(-0.000163787 0 7.75785e-06)
(-0.000163656 0 -6.24008e-07)
(-0.000161614 0 -7.95749e-06)
(-0.000157737 0 -1.44144e-05)
(-0.000152094 0 -2.01071e-05)
(-0.000144759 0 -2.51163e-05)
(-0.000135824 0 -2.95122e-05)
(-0.000125402 0 -3.33588e-05)
(-0.000113621 0 -3.67134e-05)
(-0.000100625 0 -3.96223e-05)
(-8.65678e-05 0 -4.21176e-05)
(-7.16092e-05 0 -4.42141e-05)
(-5.59144e-05 0 -4.59098e-05)
(-3.96503e-05 0 -4.71905e-05)
(-2.29852e-05 0 -4.80371e-05)
(-6.08819e-06 0 -4.84325e-05)
(1.09668e-05 0 -6.56135e-05)
(2.79491e-05 0 -6.48808e-05)
(4.46058e-05 0 -6.35197e-05)
(6.07423e-05 0 -6.15504e-05)
(7.6168e-05 0 -5.89939e-05)
(9.06991e-05 0 -5.58655e-05)
(0.000104161 0 -5.21687e-05)
(0.000116391 0 -4.78921e-05)
(0.000127242 0 -4.30099e-05)
(0.000136585 0 -3.74849e-05)
(0.000144307 0 -3.12725e-05)
(0.000150312 0 -2.43232e-05)
(0.00015452 0 -1.65833e-05)
(0.000156861 0 -7.9882e-06)
(0.000157284 0 1.55013e-06)
(0.000155781 0 1.21417e-05)
(0.000152418 0 2.38467e-05)
(0.000147272 0 3.65844e-05)
(0.000140288 0 5.01201e-05)
(0.000131185 0 6.37685e-05)
(0.000118985 0 7.59455e-05)
(0.000101799 0 8.42232e-05)
(7.9036e-05 0 8.71952e-05)
(5.27617e-05 0 8.68137e-05)
(2.49451e-05 0 8.565e-05)
(-3.38518e-06 0 8.52108e-05)
(-3.16484e-05 0 8.58849e-05)
(-5.92113e-05 0 8.70322e-05)
(-8.4841e-05 0 8.68514e-05)
(-0.000106385 0 8.26702e-05)
(-0.000122176 0 7.31981e-05)
(-0.000133466 0 6.04623e-05)
(-0.00014199 0 4.67201e-05)
(-0.000148496 0 3.33318e-05)
(-0.000153191 0 2.08181e-05)
(-0.000156089 0 9.36998e-06)
(-0.000157103 0 -9.68226e-07)
(-0.000156183 0 -1.02789e-05)
(-0.000153352 0 -1.8669e-05)
(-0.000148669 0 -2.62195e-05)
(-0.000142204 0 -3.29908e-05)
(-0.000134043 0 -3.90351e-05)
(-0.000124286 0 -4.44007e-05)
(-0.000113051 0 -4.91304e-05)
(-0.000100471 0 -5.3259e-05)
(-8.67002e-05 0 -5.68088e-05)
(-7.19041e-05 0 -5.97874e-05)
(-5.62612e-05 0 -6.2188e-05)
(-3.99582e-05 0 -6.39934e-05)
(-2.31877e-05 0 -6.51824e-05)
(-6.14625e-06 0 -6.57365e-05)
(1.0967e-05 0 -6.56453e-05)
(2.7952e-05 0 -6.49106e-05)
(4.46104e-05 0 -6.35455e-05)
(6.07464e-05 0 -6.157e-05)
(7.6169e-05 0 -5.9005e-05)
(9.06934e-05 0 -5.5865e-05)
(0.000104144 0 -5.21532e-05)
(0.000116359 0 -4.78577e-05)
(0.00012719 0 -4.29523e-05)
(0.000136508 0 -3.73995e-05)
(0.0001442 0 -3.11546e-05)
(0.000150169 0 -2.41686e-05)
(0.000154337 0 -1.63875e-05)
(0.000156633 0 -7.74687e-06)
(0.000157006 0 1.84195e-06)
(0.000155453 0 1.24886e-05)
(0.00015204 0 2.42486e-05)
(0.000146842 0 3.70351e-05)
(0.000139798 0 5.06045e-05)
(0.000130611 0 6.42402e-05)
(0.000118264 0 7.63207e-05)
(0.00010085 0 8.43956e-05)
(7.7908e-05 0 8.71876e-05)
(5.15485e-05 0 8.67413e-05)
(2.37026e-05 0 8.56e-05)
(-4.6335e-06 0 8.522e-05)
(-3.28857e-05 0 8.59474e-05)
(-6.04081e-05 0 8.70976e-05)
(-8.59283e-05 0 8.68189e-05)
(-0.000107267 0 8.24335e-05)
(-0.000122846 0 7.27844e-05)
(-0.00013401 0 5.99795e-05)
(-0.000142461 0 4.62417e-05)
(-0.00014891 0 3.28932e-05)
(-0.000153554 0 2.04306e-05)
(-0.000156402 0 9.03817e-06)
(-0.000157365 0 -1.24602e-06)
(-0.000156396 0 -1.05077e-05)
(-0.000153522 0 -1.88536e-05)
(-0.000148799 0 -2.63642e-05)
(-0.0001423 0 -3.30999e-05)
(-0.00013411 0 -3.91132e-05)
(-0.000124329 0 -4.44522e-05)
(-0.000113074 0 -4.91599e-05)
(-0.000100481 0 -5.32706e-05)
(-8.67004e-05 0 -5.68064e-05)
(-7.18985e-05 0 -5.97742e-05)
(-5.62531e-05 0 -6.21668e-05)
(-3.99502e-05 0 -6.39666e-05)
(-2.31816e-05 0 -6.51522e-05)
(-6.14315e-06 0 -6.57046e-05)
(1.0762e-05 0 -8.25711e-05)
(2.74131e-05 0 -8.15974e-05)
(4.37073e-05 0 -7.9787e-05)
(5.94331e-05 0 -7.71653e-05)
(7.43863e-05 0 -7.37612e-05)
(8.8374e-05 0 -6.96007e-05)
(0.000101217 0 -6.47014e-05)
(0.000112754 0 -5.90693e-05)
(0.000122841 0 -5.26981e-05)
(0.000131359 0 -4.55702e-05)
(0.000138203 0 -3.76592e-05)
(0.000143291 0 -2.89312e-05)
(0.000146553 0 -1.93452e-05)
(0.000147939 0 -8.85053e-06)
(0.000147419 0 2.61313e-06)
(0.000145009 0 1.51016e-05)
(0.000140785 0 2.86102e-05)
(0.000134855 0 4.30194e-05)
(0.000127321 0 5.81179e-05)
(0.000118225 0 7.35958e-05)
(0.00010736 0 8.87652e-05)
(9.37138e-05 0 0.000101902)
(7.53585e-05 0 0.000110449)
(5.16683e-05 0 0.000113657)
(2.47792e-05 0 0.000114058)
(-3.36656e-06 0 0.000113975)
(-3.13456e-05 0 0.000114045)
(-5.767e-05 0 0.00011322)
(-8.02047e-05 0 0.00010887)
(-9.72414e-05 0 9.89921e-05)
(-0.000110045 0 8.51263e-05)
(-0.000120422 0 6.97647e-05)
(-0.00012912 0 5.4324e-05)
(-0.000136257 0 3.93558e-05)
(-0.000141763 0 2.51336e-05)
(-0.000145534 0 1.18515e-05)
(-0.000147465 0 -3.99384e-07)
(-0.000147494 0 -1.16354e-05)
(-0.000145619 0 -2.19161e-05)
(-0.000141875 0 -3.12996e-05)
(-0.00013632 0 -3.98331e-05)
(-0.000129025 0 -4.75555e-05)
(-0.00012008 0 -5.44985e-05)
(-0.000109591 0 -6.06862e-05)
(-9.7688e-05 0 -6.61335e-05)
(-8.45177e-05 0 -7.08434e-05)
(-7.02479e-05 0 -7.4807e-05)
(-5.50624e-05 0 -7.8004e-05)
(-3.91586e-05 0 -8.04073e-05)
(-2.27434e-05 0 -8.19888e-05)
(-6.03112e-06 0 -8.27252e-05)
(1.076e-05 0 -8.26039e-05)
(2.74104e-05 0 -8.16273e-05)
(4.37027e-05 0 -7.98113e-05)
(5.94245e-05 0 -7.71811e-05)
(7.4371e-05 0 -7.37652e-05)
(8.83485e-05 0 -6.95894e-05)
(0.000101177 0 -6.46709e-05)
(0.000112696 0 -5.90153e-05)
(0.000122761 0 -5.26161e-05)
(0.00013125 0 -4.54556e-05)
(0.000138062 0 -3.75074e-05)
(0.000143113 0 -2.87379e-05)
(0.000146334 0 -1.91061e-05)
(0.000147674 0 -8.56188e-06)
(0.000147106 0 2.95496e-06)
(0.000144647 0 1.54986e-05)
(0.000140374 0 2.90603e-05)
(0.000134398 0 4.35156e-05)
(0.000126818 0 5.86501e-05)
(0.000117671 0 7.4146e-05)
(0.000106734 0 8.92881e-05)
(9.29463e-05 0 0.0001023)
(7.43698e-05 0 0.000110627)
(5.05061e-05 0 0.000113675)
(2.35386e-05 0 0.000114038)
(-4.62548e-06 0 0.000113979)
(-3.25708e-05 0 0.000114064)
(-5.87941e-05 0 0.00011317)
(-8.11273e-05 0 0.000108627)
(-9.79594e-05 0 9.85473e-05)
(-0.000110645 0 8.45871e-05)
(-0.000120959 0 6.92159e-05)
(-0.000129609 0 5.37999e-05)
(-0.0001367 0 3.88708e-05)
(-0.000142159 0 2.4697e-05)
(-0.000145881 0 1.14692e-05)
(-0.000147763 0 -7.26788e-07)
(-0.000147744 0 -1.19107e-05)
(-0.000145824 0 -2.21429e-05)
(-0.00014204 0 -3.14818e-05)
(-0.000136449 0 -3.99751e-05)
(-0.000129123 0 -4.76616e-05)
(-0.000120151 0 -5.45732e-05)
(-0.000109641 0 -6.07342e-05)
(-9.77201e-05 0 -6.61592e-05)
(-8.45366e-05 0 -7.0851e-05)
(-7.02575e-05 0 -7.48001e-05)
(-5.5066e-05 0 -7.79861e-05)
(-3.91587e-05 0 -8.03816e-05)
(-2.2742e-05 0 -8.19581e-05)
(-6.02924e-06 0 -8.26921e-05)
(1.03103e-05 0 -9.90323e-05)
(2.625e-05 0 -9.78018e-05)
(4.18147e-05 0 -9.5514e-05)
(5.67838e-05 0 -9.22017e-05)
(7.0947e-05 0 -8.79048e-05)
(8.41085e-05 0 -8.26636e-05)
(9.609e-05 0 -7.65133e-05)
(0.000106734 0 -6.94801e-05)
(0.000115904 0 -6.15786e-05)
(0.000123489 0 -5.28123e-05)
(0.000129396 0 -4.31745e-05)
(0.000133554 0 -3.26496e-05)
(0.00013591 0 -2.12147e-05)
(0.000136431 0 -8.84233e-06)
(0.000135111 0 4.49374e-06)
(0.000131983 0 1.88022e-05)
(0.000127124 0 3.40386e-05)
(0.000120642 0 5.00762e-05)
(0.000112651 0 6.67069e-05)
(0.000103264 0 8.36291e-05)
(9.25422e-05 0 0.000100399)
(8.02889e-05 0 0.0001162)
(6.53848e-05 0 0.000129245)
(4.61145e-05 0 0.000137361)
(2.25396e-05 0 0.000140721)
(-3.06917e-06 0 0.000141397)
(-2.84064e-05 0 0.000140206)
(-5.11145e-05 0 0.000135861)
(-6.92135e-05 0 0.000126427)
(-8.33074e-05 0 0.000112477)
(-9.51257e-05 0 9.63111e-05)
(-0.000105512 0 7.94378e-05)
(-0.000114555 0 6.25352e-05)
(-0.000122175 0 4.60082e-05)
(-0.000128254 0 3.01314e-05)
(-0.000132681 0 1.50944e-05)
(-0.000135352 0 1.00342e-06)
(-0.000136199 0 -1.21128e-05)
(-0.000135201 0 -2.42692e-05)
(-0.000132372 0 -3.54928e-05)
(-0.000127751 0 -4.58096e-05)
(-0.000121394 0 -5.52401e-05)
(-0.00011338 0 -6.37975e-05)
(-0.000103805 0 -7.14857e-05)
(-9.27883e-05 0 -7.82981e-05)
(-8.04725e-05 0 -8.42168e-05)
(-6.70216e-05 0 -8.92131e-05)
(-5.26194e-05 0 -9.325e-05)
(-3.7467e-05 0 -9.6287e-05)
(-2.17785e-05 0 -9.82857e-05)
(-5.77763e-06 0 -9.92163e-05)
(1.03062e-05 0 -9.90631e-05)
(2.6242e-05 0 -9.78288e-05)
(4.18015e-05 0 -9.55337e-05)
(5.67634e-05 0 -9.22105e-05)
(7.09169e-05 0 -8.78988e-05)
(8.40653e-05 0 -8.26387e-05)
(9.60302e-05 0 -7.64652e-05)
(0.000106653 0 -6.94042e-05)
(0.000115799 0 -6.14703e-05)
(0.000123355 0 -5.26669e-05)
(0.000129229 0 -4.29875e-05)
(0.000133349 0 -3.24168e-05)
(0.000135664 0 -2.09323e-05)
(0.000136141 0 -8.50729e-06)
(0.000134775 0 4.88355e-06)
(0.0001316 0 1.92469e-05)
(0.000126696 0 3.45353e-05)
(0.000120169 0 5.06177e-05)
(0.000112137 0 6.7283e-05)
(0.000102709 0 8.42243e-05)
(9.19444e-05 0 0.00010099)
(7.96228e-05 0 0.000116737)
(6.4578e-05 0 0.000129631)
(4.51114e-05 0 0.000137541)
(2.14069e-05 0 0.000140771)
(-4.23365e-06 0 0.00014139)
(-2.95129e-05 0 0.00014013)
(-5.20628e-05 0 0.000135625)
(-6.99719e-05 0 0.000125988)
(-8.3948e-05 0 0.000111916)
(-9.57098e-05 0 9.57144e-05)
(-0.000106054 0 7.88452e-05)
(-0.000115057 0 6.19667e-05)
(-0.000122634 0 4.54775e-05)
(-0.000128669 0 2.96479e-05)
(-0.000133049 0 1.46639e-05)
(-0.000135673 0 6.28134e-07)
(-0.000136474 0 -1.24339e-05)
(-0.000135433 0 -2.45385e-05)
(-0.000132564 0 -3.57136e-05)
(-0.000127906 0 -4.59858e-05)
(-0.000121518 0 -5.5376e-05)
(-0.000113475 0 -6.38976e-05)
(-0.000103876 0 -7.15546e-05)
(-9.28399e-05 0 -7.83405e-05)
(-8.05084e-05 0 -8.4237e-05)
(-6.70452e-05 0 -8.92155e-05)
(-5.26339e-05 0 -9.32385e-05)
(-3.74749e-05 0 -9.62654e-05)
(-2.17816e-05 0 -9.82576e-05)
(-5.77695e-06 0 -9.91852e-05)
(9.65871e-06 0 -0.000114605)
(2.45797e-05 0 -0.000113109)
(3.9119e-05 0 -0.000110328)
(5.30535e-05 0 -0.000106305)
(6.61728e-05 0 -0.000101094)
(7.82833e-05 0 -9.47521e-05)
(8.92119e-05 0 -8.73354e-05)
(9.88082e-05 0 -7.88927e-05)
(0.000106946 0 -6.94622e-05)
(0.000113524 0 -5.90704e-05)
(0.000118462 0 -4.77321e-05)
(0.000121705 0 -3.54522e-05)
(0.000123216 0 -2.22283e-05)
(0.000122981 0 -8.05707e-06)
(0.000121013 0 7.05717e-06)
(0.000117355 0 2.30852e-05)
(0.000112088 0 3.99479e-05)
(0.000105316 0 5.74985e-05)
(9.71594e-05 0 7.55222e-05)
(8.77436e-05 0 9.3734e-05)
(7.71814e-05 0 0.00011176)
(6.55465e-05 0 0.000129045)
(5.25765e-05 0 0.000144557)
(3.71757e-05 0 0.000156455)
(1.84327e-05 0 0.00016319)
(-2.51332e-06 0 0.000164919)
(-2.31425e-05 0 0.000162028)
(-4.1087e-05 0 0.00015398)
(-5.57716e-05 0 0.000141)
(-6.83427e-05 0 0.000124904)
(-7.97098e-05 0 0.000107353)
(-8.99921e-05 0 8.92243e-05)
(-9.91006e-05 0 7.10088e-05)
(-0.000106917 0 5.30573e-05)
(-0.000113317 0 3.56362e-05)
(-0.000118182 0 1.8945e-05)
(-0.000121413 0 3.114e-06)
(-0.000122938 0 -1.17911e-05)
(-0.000122721 0 -2.57489e-05)
(-0.000120757 0 -3.87572e-05)
(-0.000117067 0 -5.08192e-05)
(-0.000111691 0 -6.19351e-05)
(-0.000104692 0 -7.2097e-05)
(-9.61563e-05 0 -8.12868e-05)
(-8.61913e-05 0 -8.94744e-05)
(-7.49305e-05 0 -9.66185e-05)
(-6.25312e-05 0 -0.000102668)
(-4.9173e-05 0 -0.000107566)
(-3.50551e-05 0 -0.000111255)
(-2.03927e-05 0 -0.000113685)
(-5.41222e-06 0 -0.000114816)
(9.65277e-06 0 -0.00011463)
(2.4567e-05 0 -0.00011313)
(3.90983e-05 0 -0.00011034)
(5.3023e-05 0 -0.000106304)
(6.613e-05 0 -0.000101075)
(7.82254e-05 0 -9.47111e-05)
(8.91355e-05 0 -8.72677e-05)
(9.87097e-05 0 -7.87933e-05)
(0.000106822 0 -6.93265e-05)
(0.00011337 0 -5.88936e-05)
(0.000118276 0 -4.75099e-05)
(0.000121482 0 -3.51806e-05)
(0.000122954 0 -2.19042e-05)
(0.000122678 0 -7.67804e-06)
(0.000120666 0 7.49202e-06)
(0.000116965 0 2.35746e-05)
(0.000111656 0 4.04877e-05)
(0.000104844 0 5.80812e-05)
(9.66501e-05 0 7.61372e-05)
(8.71991e-05 0 9.43675e-05)
(7.66032e-05 0 0.000112394)
(6.49326e-05 0 0.00012965)
(5.18958e-05 0 0.000145072)
(3.63702e-05 0 0.000156797)
(1.74987e-05 0 0.000163334)
(-3.48564e-06 0 0.000164896)
(-2.40463e-05 0 0.00016183)
(-4.18521e-05 0 0.000153583)
(-5.64273e-05 0 0.000140451)
(-6.89447e-05 0 0.000124287)
(-8.0278e-05 0 0.000106716)
(-9.05263e-05 0 8.85935e-05)
(-9.95988e-05 0 7.04008e-05)
(-0.000107377 0 5.24848e-05)
(-0.000113736 0 3.51089e-05)
(-0.000118558 0 1.84696e-05)
(-0.000121746 0 2.69364e-06)
(-0.000123228 0 -1.21559e-05)
(-0.00012297 0 -2.60593e-05)
(-0.000120968 0 -3.9016e-05)
(-0.000117242 0 -5.10298e-05)
(-0.000111833 0 -6.21015e-05)
(-0.000104806 0 -7.22237e-05)
(-9.62455e-05 0 -8.13783e-05)
(-8.62592e-05 0 -8.95356e-05)
(-7.49807e-05 0 -9.6654e-05)
(-6.25669e-05 0 -0.000102682)
(-4.91971e-05 0 -0.000107564)
(-3.50699e-05 0 -0.000111241)
(-2.03998e-05 0 -0.000113663)
(-5.41264e-06 0 -0.000114791)
(8.84547e-06 0 -0.000129024)
(2.24995e-05 0 -0.000127261)
(3.57752e-05 0 -0.000123987)
(4.84529e-05 0 -0.000119254)
(6.0327e-05 0 -0.000113133)
(7.12109e-05 0 -0.000105701)
(8.094e-05 0 -9.70365e-05)
(8.93744e-05 0 -8.72124e-05)
(9.63999e-05 0 -7.62921e-05)
(0.000101928 0 -6.43268e-05)
(0.000105894 0 -5.13544e-05)
(0.000108258 0 -3.74021e-05)
(0.000109 0 -2.249e-05)
(0.000108126 0 -6.63831e-06)
(0.000105663 0 1.0121e-05)
(0.000101669 0 2.77282e-05)
(9.6228e-05 0 4.6077e-05)
(8.94472e-05 0 6.50015e-05)
(8.14495e-05 0 8.42734e-05)
(7.2371e-05 0 0.000103601)
(6.23548e-05 0 0.000122624)
(5.15489e-05 0 0.000140876)
(4.00604e-05 0 0.000157596)
(2.75962e-05 0 0.000171388)
(1.35448e-05 0 0.000180286)
(-1.8358e-06 0 0.000182835)
(-1.70036e-05 0 0.000178659)
(-3.06382e-05 0 0.000168385)
(-4.28045e-05 0 0.000153695)
(-5.41182e-05 0 0.000136486)
(-6.47396e-05 0 0.000117975)
(-7.45317e-05 0 9.88213e-05)
(-8.33489e-05 0 7.94556e-05)
(-9.10493e-05 0 6.02218e-05)
(-9.74992e-05 0 4.13958e-05)
(-0.000102579 0 2.31914e-05)
(-0.000106187 0 5.75988e-06)
(-0.000108244 0 -1.0804e-05)
(-0.000108702 0 -2.64487e-05)
(-0.000107537 0 -4.11455e-05)
(-0.000104752 0 -5.48742e-05)
(-0.000100371 0 -6.76125e-05)
(-9.44414e-05 0 -7.93301e-05)
(-8.70332e-05 0 -8.9985e-05)
(-7.82425e-05 0 -9.95223e-05)
(-6.8191e-05 0 -0.000107876)
(-5.7026e-05 0 -0.000114969)
(-4.49188e-05 0 -0.000120725)
(-3.20622e-05 0 -0.000125066)
(-1.86669e-05 0 -0.000127928)
(-4.95633e-06 0 -0.000129261)
(8.83807e-06 0 -0.000129042)
(2.24829e-05 0 -0.000127274)
(3.57484e-05 0 -0.000123989)
(4.84142e-05 0 -0.000119241)
(6.02742e-05 0 -0.0001131)
(7.11415e-05 0 -0.000105643)
(8.0851e-05 0 -9.69479e-05)
(8.92629e-05 0 -8.70887e-05)
(9.62626e-05 0 -7.61287e-05)
(0.000101762 0 -6.4119e-05)
(0.000105696 0 -5.10982e-05)
(0.000108025 0 -3.70938e-05)
(0.000108731 0 -2.21268e-05)
(0.000107819 0 -6.21875e-06)
(0.000105318 0 1.05968e-05)
(0.000101286 0 2.8258e-05)
(9.58079e-05 0 4.66556e-05)
(8.89923e-05 0 6.56207e-05)
(8.09627e-05 0 8.49222e-05)
(7.18557e-05 0 0.000104266)
(6.18143e-05 0 0.000123288)
(5.09874e-05 0 0.000141515)
(3.94748e-05 0 0.000158168)
(2.69598e-05 0 0.00017182)
(1.28393e-05 0 0.000180502)
(-2.56775e-06 0 0.000182799)
(-1.76906e-05 0 0.000178376)
(-3.12566e-05 0 0.000167904)
(-4.33811e-05 0 0.000153097)
(-5.46737e-05 0 0.000135836)
(-6.52729e-05 0 0.000117309)
(-7.50389e-05 0 9.81587e-05)
(-8.38265e-05 0 7.88129e-05)
(-9.1494e-05 0 5.9612e-05)
(-9.79084e-05 0 4.08292e-05)
(-0.000102951 0 2.26751e-05)
(-0.00010652 0 5.29835e-06)
(-0.000108539 0 -1.12091e-05)
(-0.000108959 0 -2.67978e-05)
(-0.000107758 0 -4.14406e-05)
(-0.000104939 0 -5.51182e-05)
(-0.000100527 0 -6.78092e-05)
(-9.45688e-05 0 -7.94837e-05)
(-8.71355e-05 0 -9.01e-05)
(-7.83229e-05 0 -9.96036e-05)
(-6.82525e-05 0 -0.000107928)
(-5.70714e-05 0 -0.000114998)
(-4.49506e-05 0 -0.000120735)
(-3.20826e-05 0 -0.000125062)
(-1.86773e-05 0 -0.000127914)
(-4.95772e-06 0 -0.000129243)
(7.90194e-06 0 -0.000142063)
(2.00892e-05 0 -0.00014004)
(3.19107e-05 0 -0.000136283)
(4.3155e-05 0 -0.000130858)
(5.36262e-05 0 -0.000123853)
(6.31484e-05 0 -0.000115366)
(7.15691e-05 0 -0.0001055)
(7.87615e-05 0 -9.43537e-05)
(8.46253e-05 0 -8.20166e-05)
(8.90869e-05 0 -6.85655e-05)
(9.20979e-05 0 -5.40628e-05)
(9.36344e-05 0 -3.85591e-05)
(9.36955e-05 0 -2.20973e-05)
(9.23029e-05 0 -4.72101e-06)
(8.95019e-05 0 1.35131e-05)
(8.53618e-05 0 3.25196e-05)
(7.99762e-05 0 5.21687e-05)
(7.34591e-05 0 7.22754e-05)
(6.59424e-05 0 9.25952e-05)
(5.75762e-05 0 0.000112821)
(4.85306e-05 0 0.000132576)
(3.90028e-05 0 0.000151388)
(2.92266e-05 0 0.000168571)
(1.93407e-05 0 0.000182915)
(9.20869e-06 0 0.0001925)
(-1.22656e-06 0 0.00019534)
(-1.16077e-05 0 0.000190714)
(-2.16594e-05 0 0.000179757)
(-3.15119e-05 0 0.000164553)
(-4.12436e-05 0 0.00014687)
(-5.0668e-05 0 0.000127757)
(-5.95568e-05 0 0.000107827)
(-6.77209e-05 0 8.75239e-05)
(-7.49952e-05 0 6.72059e-05)
(-8.12342e-05 0 4.71651e-05)
(-8.63101e-05 0 2.76321e-05)
(-9.01136e-05 0 8.77846e-06)
(-9.25568e-05 0 -9.27696e-06)
(-9.3576e-05 0 -2.64567e-05)
(-9.31323e-05 0 -4.27076e-05)
(-9.12095e-05 0 -5.79862e-05)
(-8.78147e-05 0 -7.22471e-05)
(-8.29782e-05 0 -8.54363e-05)
(-7.67552e-05 0 -9.74868e-05)
(-6.92267e-05 0 -0.000108318)
(-6.05004e-05 0 -0.000117836)
(-5.07107e-05 0 -0.000125941)
(-4.00173e-05 0 -0.000132531)
(-2.86024e-05 0 -0.000137508)
(-1.66674e-05 0 -0.000140792)
(-4.42756e-06 0 -0.000142323)
(7.89346e-06 0 -0.000142071)
(2.00697e-05 0 -0.000140041)
(3.18793e-05 0 -0.000136272)
(4.31103e-05 0 -0.000130831)
(5.35663e-05 0 -0.000123804)
(6.30711e-05 0 -0.000115289)
(7.14719e-05 0 -0.00010539)
(7.86419e-05 0 -9.4206e-05)
(8.44808e-05 0 -8.18263e-05)
(8.8915e-05 0 -6.83282e-05)
(9.18965e-05 0 -5.37746e-05)
(9.34017e-05 0 -3.82169e-05)
(9.34301e-05 0 -2.16988e-05)
(9.20042e-05 0 -4.26545e-06)
(8.91699e-05 0 1.40247e-05)
(8.49975e-05 0 3.30841e-05)
(7.95815e-05 0 5.278e-05)
(7.30367e-05 0 7.29247e-05)
(6.54956e-05 0 9.32706e-05)
(5.71094e-05 0 0.000113508)
(4.8049e-05 0 0.000133257)
(3.85134e-05 0 0.00015204)
(2.87369e-05 0 0.000169158)
(1.88484e-05 0 0.000183372)
(8.70378e-06 0 0.000192739)
(-1.73798e-06 0 0.000195299)
(-1.21085e-05 0 0.000190404)
(-2.21497e-05 0 0.000179254)
(-3.20017e-05 0 0.000163942)
(-4.17313e-05 0 0.000146206)
(-5.11456e-05 0 0.000127072)
(-6.0018e-05 0 0.000107141)
(-6.81607e-05 0 8.68535e-05)
(-7.54097e-05 0 6.65651e-05)
(-8.162e-05 0 4.65649e-05)
(-8.66647e-05 0 2.70805e-05)
(-9.04354e-05 0 8.28077e-06)
(-9.2845e-05 0 -9.71818e-06)
(-9.38308e-05 0 -2.6841e-05)
(-9.33545e-05 0 -4.30364e-05)
(-9.14007e-05 0 -5.82617e-05)
(-8.79767e-05 0 -7.24729e-05)
(-8.31133e-05 0 -8.56162e-05)