/*--------------------------------*- C++ -*----------------------------------*\
| =========                 |                                                 |
| \\      /  F ield         | OpenFOAM: The Open Source CFD Toolbox           |
|  \\    /   O peration     | Version:  2.3.0                                 |
|   \\  /    A nd           | Web:      www.OpenFOAM.org                      |
|    \\/     M anipulation  |                                                 |
\*---------------------------------------------------------------------------*/
FoamFile
{
    version     2.0;
    format      ascii;
    class       volScalarField;
    location    "22000";
    object      NUEff;
}
// * * * * * * * * * * * * * * * * * * * * * * * * * * * * * * * * * * * * * //

dimensions      [0 2 -1 0 0 0 0];

internalField   nonuniform List<scalar> 
3060
(
0.174898
0.174709
0.174363
0.173873
0.173253
0.172516
0.171675
0.170741
0.169722
0.168628
0.167465
0.166239
0.164964
0.163677
0.162407
0.161157
0.159928
0.158732
0.157587
0.156513
0.155537
0.154682
0.153977
0.153449
0.153127
0.153033
0.153179
0.153549
0.154118
0.154859
0.155743
0.156743
0.157835
0.158994
0.1602
0.161435
0.162691
0.163967
0.165259
0.166526
0.16774
0.168889
0.169966
0.170965
0.171877
0.172693
0.173401
0.173987
0.174439
0.174743
0.174888
0.174865
0.174674
0.174328
0.173837
0.173215
0.172476
0.171633
0.170695
0.169674
0.168576
0.167408
0.166178
0.1649
0.163611
0.162341
0.16109
0.159862
0.158667
0.157524
0.156455
0.155484
0.154637
0.153941
0.153425
0.153115
0.153035
0.153194
0.153577
0.154156
0.154906
0.155797
0.156803
0.157899
0.15906
0.160267
0.161501
0.162757
0.164032
0.165322
0.166586
0.167795
0.16894
0.170014
0.17101
0.171919
0.172733
0.173438
0.174023
0.174474
0.174778
0.174922
0.625691
0.617977
0.603611
0.582635
0.555242
0.522056
0.484368
0.444165
0.403803
0.365446
0.330605
0.300005
0.273751
0.251579
0.233435
0.21864
0.206414
0.196269
0.187869
0.180962
0.17535
0.170888
0.167478
0.165067
0.163646
0.163238
0.163873
0.165512
0.168141
0.171778
0.176485
0.182372
0.189594
0.198362
0.208944
0.221703
0.237178
0.256274
0.279372
0.306641
0.338274
0.374036
0.413016
0.453515
0.493266
0.52995
0.561731
0.587491
0.606734
0.619322
0.625207
0.624243
0.616485
0.602042
0.580962
0.553454
0.520165
0.482415
0.442215
0.401928
0.363708
0.329039
0.298625
0.272554
0.250553
0.232586
0.217925
0.205809
0.195759
0.187443
0.180609
0.175064
0.170663
0.167311
0.164957
0.163594
0.163247
0.163941
0.165638
0.168324
0.17202
0.17679
0.182745
0.190045
0.1989
0.209582
0.222457
0.238072
0.257352
0.280625
0.308079
0.339897
0.375825
0.414927
0.455483
0.495216
0.531824
0.563494
0.589139
0.608283
0.6208
0.62665
0.93967
0.93891
0.937477
0.935322
0.932357
0.928434
0.923324
0.916673
0.907922
0.896173
0.87991
0.856451
0.820812
0.763651
0.670522
0.540791
0.413321
0.32428
0.269376
0.235155
0.21294
0.198073
0.18807
0.181601
0.177989
0.176974
0.178555
0.182761
0.189933
0.200866
0.217091
0.241463
0.27935
0.340612
0.438916
0.57157
0.694941
0.779129
0.830384
0.862659
0.884156
0.899205
0.910157
0.918354
0.9246
0.929399
0.93307
0.935821
0.937784
0.939036
0.939616
0.939521
0.938756
0.937311
0.935139
0.932148
0.928188
0.923024
0.916295
0.90743
0.895504
0.878959
0.855026
0.818548
0.759881
0.664496
0.533383
0.407348
0.32046
0.267
0.233624
0.211917
0.197378
0.187606
0.181316
0.177859
0.176996
0.178727
0.183093
0.190455
0.201641
0.218235
0.24319
0.282063
0.344993
0.445527
0.578931
0.700368
0.782419
0.832373
0.863931
0.885017
0.899819
0.910615
0.918708
0.924885
0.929635
0.933272
0.935999
0.937946
0.939189
0.939764
0.971472
0.971164
0.970587
0.969729
0.96857
0.96707
0.965173
0.962794
0.959809
0.956031
0.951178
0.944805
0.936184
0.924048
0.906029
0.877567
0.828144
0.733941
0.568016
0.397979
0.2997
0.24916
0.22154
0.205989
0.197989
0.195818
0.199212
0.208656
0.226335
0.257735
0.316035
0.429716
0.609803
0.760614
0.841914
0.88525
0.91078
0.927193
0.938392
0.946423
0.952401
0.956977
0.960552
0.963383
0.965638
0.967432
0.968844
0.969924
0.970707
0.971213
0.971448
0.97141
0.971099
0.970518
0.969654
0.968486
0.966974
0.96506
0.962658
0.959641
0.955818
0.9509
0.944431
0.935661
0.923282
0.904839
0.875565
0.824424
0.726609
0.55722
0.390427
0.295815
0.247082
0.220365
0.205339
0.197709
0.195863
0.199587
0.20943
0.22771
0.260193
0.320724
0.438581
0.620215
0.766735
0.845032
0.886985
0.911849
0.927884
0.938869
0.946767
0.952659
0.957177
0.960711
0.963512
0.965746
0.967525
0.968925
0.969998
0.970775
0.971277
0.971511
0.982371
0.982177
0.981815
0.981279
0.98056
0.979639
0.978488
0.977067
0.975317
0.973153
0.970451
0.967027
0.962597
0.956708
0.948604
0.936934
0.919075
0.88939
0.834184
0.719693
0.521201
0.359082
0.280682
0.243817
0.22689
0.222517
0.229391
0.249755
0.293132
0.386166
0.567826
0.752723
0.84989
0.897502
0.923806
0.939957
0.95067
0.958195
0.963708
0.967881
0.971121
0.973687
0.975747
0.977414
0.978767
0.979859
0.980728
0.981399
0.981889
0.982207
0.982355
0.982331
0.982135
0.98177
0.981231
0.980507
0.979579
0.978418
0.976984
0.975217
0.97303
0.970296
0.966827
0.962331
0.956342
0.948082
0.936149
0.917812
0.887156
0.829721
0.710274
0.509312
0.352654
0.2777
0.242389
0.22632
0.222608
0.230167
0.251515
0.29681
0.394113
0.580193
0.760482
0.85353
0.89939
0.924905
0.940655
0.951141
0.958529
0.963954
0.968068
0.971267
0.973803
0.975842
0.977493
0.978834
0.979917
0.98078
0.981446
0.981933
0.982248
0.982396
0.987634
0.987486
0.98721
0.986805
0.986263
0.985574
0.984719
0.983674
0.982402
0.980851
0.978945
0.976574
0.973574
0.969693
0.964534
0.957401
0.947108
0.93138
0.905381
0.857463
0.757695
0.568145
0.391044
0.305623
0.270456
0.261888
0.27545
0.31866
0.421255
0.615468
0.786711
0.871016
0.912442
0.935525
0.949764
0.959214
0.96583
0.970661
0.974317
0.977159
0.979413
0.98123
0.982712
0.983927
0.984925
0.985737
0.986389
0.986895
0.987266
0.987508
0.987621
0.987602
0.987453
0.987176
0.986768
0.986222
0.985528
0.984667
0.983613
0.982329
0.980762
0.978834
0.976434
0.973393
0.969452
0.964203
0.956929
0.9464
0.930248
0.9034
0.85355
0.749222
0.555622
0.383821
0.302529
0.269323
0.262066
0.277018
0.3226
0.430204
0.627835
0.79357
0.874213
0.91412
0.936511
0.950392
0.959638
0.966128
0.970882
0.974485
0.977289
0.979517
0.981315
0.982782
0.983986
0.984975
0.985782
0.986428
0.986931
0.9873
0.98754
0.987652
0.990591
0.990465
0.990231
0.989889
0.989433
0.988855
0.988145
0.987283
0.986244
0.984989
0.983466
0.981595
0.979261
0.97629
0.972413
0.967174
0.959849
0.949146
0.932562
0.904737
0.85285
0.74621
0.561583
0.407118
0.338317
0.322091
0.347913
0.432719
0.605172
0.776682
0.867516
0.912311
0.936941
0.951912
0.961714
0.968494
0.973384
0.977026
0.979836
0.982053
0.983838
0.985295
0.986496
0.987491
0.988315
0.988992
0.989538
0.989965
0.990279
0.990484
0.99058
0.990564
0.990438
0.990203
0.989858
0.989398
0.988817
0.988101
0.987232
0.986184
0.984917
0.983377
0.981484
0.97912
0.976105
0.972165
0.966829
0.959352
0.948393
0.931342
0.902576
0.848562
0.737317
0.550171
0.400999
0.336148
0.322423
0.350952
0.440408
0.616914
0.784038
0.871021
0.914135
0.938
0.952579
0.96216
0.968807
0.973611
0.977197
0.979967
0.982158
0.983922
0.985364
0.986553
0.98754
0.988357
0.989029
0.989571
0.989995
0.990307
0.990511
0.990606
0.992396
0.992281
0.992067
0.991755
0.991341
0.99082
0.990183
0.989416
0.9885
0.987404
0.986086
0.984485
0.982509
0.980022
0.976815
0.972547
0.966699
0.958388
0.946008
0.926401
0.892796
0.829801
0.709734
0.547104
0.440897
0.413576
0.456788
0.581053
0.742058
0.847458
0.901976
0.931605
0.94922
0.960509
0.968174
0.973614
0.977613
0.980635
0.982993
0.984876
0.986407
0.98767
0.988722
0.989601
0.990336
0.990944
0.991438
0.991825
0.992112
0.992299
0.992387
0.992372
0.992257
0.992042
0.991728
0.991311
0.990786
0.990145
0.989372
0.988447
0.987341
0.98601
0.98439
0.982389
0.979867
0.976609
0.972266
0.966305
0.95781
0.945116
0.924927
0.890141
0.824622
0.700555
0.538494
0.437265
0.414141
0.461774
0.590643
0.750181
0.851743
0.90421
0.932877
0.950006
0.961026
0.968531
0.97387
0.977803
0.980779
0.983105
0.984965
0.986479
0.98773
0.988772
0.989644
0.990373
0.990977
0.991467
0.991852
0.992137
0.992323
0.99241
0.993557
0.993446
0.99324
0.99294
0.992543
0.992046
0.991442
0.990721
0.989866
0.988854
0.987648
0.986197
0.984424
0.982213
0.979388
0.975674
0.970662
0.963677
0.953552
0.938137
0.913227
0.870257
0.793736
0.676085
0.568659
0.534772
0.587118
0.703911
0.814301
0.881924
0.91986
0.942157
0.956146
0.965443
0.971917
0.976598
0.980088
0.982756
0.984857
0.98655
0.987941
0.989099
0.990073
0.990895
0.991587
0.992165
0.992636
0.993008
0.993284
0.993465
0.993549
0.993536
0.993424
0.993217
0.992915
0.992515
0.992015
0.991407
0.99068
0.989818
0.988797
0.987579
0.986112
0.984317
0.982076
0.979208
0.975431
0.970325
0.963195
0.952832
0.937004
0.911325
0.86687
0.787817
0.668607
0.564307
0.535501
0.592724
0.711364
0.819441
0.884798
0.921497
0.94315
0.956787
0.965878
0.972223
0.976821
0.980255
0.982884
0.984957
0.986631
0.988006
0.989154
0.990119
0.990934
0.991621
0.992195
0.992663
0.993033
0.993307
0.993487
0.993571
0.994336
0.994224
0.994017
0.993716
0.993319
0.992825
0.992228
0.99152
0.990688
0.989711
0.98856
0.987187
0.985526
0.983473
0.980872
0.97749
0.972984
0.966803
0.958033
0.945079
0.925063
0.89274
0.839768
0.761341
0.681888
0.653209
0.696637
0.780175
0.853614
0.901277
0.93029
0.948412
0.960259
0.968355
0.974106
0.978327
0.981513
0.983976
0.985931
0.987521
0.988839
0.989948
0.99089
0.991692
0.992373
0.992945
0.993415
0.993787
0.994063
0.994245
0.99433
0.994316
0.994204
0.993996
0.993693
0.993294
0.992796
0.992195
0.991481
0.990643
0.989658
0.988495
0.987108
0.985427
0.983347
0.980707
0.97727
0.972683
0.96638
0.957416
0.944143
0.923575
0.890289
0.835815
0.756199
0.678324
0.653851
0.701007
0.785158
0.857111
0.903407
0.931592
0.949242
0.960812
0.968739
0.974381
0.97853
0.981666
0.984094
0.986024
0.987596
0.988901
0.99
0.990933
0.991729
0.992405
0.992973
0.99344
0.99381
0.994085
0.994265
0.994349
0.99488
0.994765
0.994551
0.99424
0.993831
0.993323
0.992713
0.991995
0.991157
0.990183
0.989044
0.987702
0.986092
0.984122
0.981647
0.978465
0.974275
0.968611
0.960719
0.949361
0.932453
0.906605
0.867298
0.813286
0.759736
0.739913
0.769786
0.826
0.877275
0.913275
0.936797
0.952251
0.962707
0.970025
0.975314
0.979249
0.982254
0.984603
0.986484
0.988028
0.989322
0.99042
0.991362
0.992171
0.992864
0.993448
0.993931
0.994315
0.994601
0.994788
0.994876
0.994861
0.994746
0.994531
0.994218
0.993807
0.993296
0.992682
0.991958
0.991114
0.990131
0.988983
0.987626
0.985998
0.984002
0.981492
0.97826
0.973999
0.968227
0.960171
0.948553
0.931226
0.904711
0.864484
0.809833
0.757298
0.740362
0.772743
0.829378
0.879823
0.914954
0.937886
0.952973
0.963202
0.970375
0.975568
0.979439
0.982399
0.984715
0.986573
0.9881
0.98938
0.990469
0.991404
0.992207
0.992894
0.993475
0.993955
0.994336
0.99462
0.994807
0.994894
0.995279
0.995158
0.994933
0.994605
0.994175
0.993643
0.993005
0.992258
0.991392
0.990394
0.989238
0.987888
0.986285
0.984344
0.981931
0.978863
0.974873
0.969551
0.962266
0.952025
0.937285
0.91581
0.885232
0.846266
0.809774
0.796556
0.816529
0.855197
0.89279
0.92124
0.941019
0.954606
0.964088
0.970873
0.975859
0.979618
0.982522
0.984819
0.986676
0.988217
0.989521
0.990639
0.991606
0.992444
0.993164
0.993776
0.994283
0.994687
0.994987
0.995185
0.995277
0.995262
0.99514
0.994914
0.994585
0.994152
0.993616
0.992975
0.992223
0.991351
0.990344
0.989178
0.987814
0.986194
0.984229
0.981782
0.978668
0.974612
0.969194
0.961767
0.95131
0.93624
0.914286
0.88313
0.843869
0.808145
0.796854
0.818518
0.857586
0.894736
0.922617
0.941959
0.955252
0.964542
0.9712
0.976099
0.979798
0.982661
0.984927
0.986762
0.988287
0.989578
0.990687
0.991646
0.992478
0.993194
0.993802
0.994306
0.994707
0.995006
0.995202
0.995294
0.99559
0.995462
0.995222
0.994874
0.994416
0.99385
0.993173
0.992383
0.991472
0.990428
0.98923
0.987843
0.986214
0.984261
0.981862
0.978851
0.974983
0.969896
0.963053
0.953655
0.940551
0.922283
0.89776
0.868588
0.842873
0.83386
0.847544
0.875105
0.903679
0.92682
0.943829
0.956003
0.964755
0.971155
0.975936
0.979591
0.98245
0.98474
0.986613
0.988183
0.989525
0.990687
0.9917
0.992582
0.993345
0.993994
0.994533
0.994962
0.995282
0.995492
0.99559
0.995574
0.995445
0.995204
0.994854
0.994394
0.993824
0.993144
0.992349
0.991432
0.99038
0.989171
0.987771
0.986125
0.984149
0.981718
0.978664
0.974734
0.96956
0.962592
0.953011
0.939644
0.921027
0.896137
0.866863
0.841758
0.834061
0.84892
0.876857
0.905211
0.927973
0.944654
0.95659
0.965177
0.971463
0.976166
0.979765
0.982585
0.984845
0.986697
0.988252
0.989581
0.990734
0.991739
0.992615
0.993373
0.994019
0.994554
0.994982
0.9953
0.995509
0.995606
0.995849
0.995712
0.995457
0.995084
0.994595
0.993989
0.993266
0.992423
0.991454
0.990348
0.989087
0.987639
0.985956
0.983961
0.981543
0.978547
0.974749
0.969828
0.963332
0.954617
0.942841
0.927097
0.907062
0.884662
0.865979
0.859631
0.869315
0.889554
0.911798
0.930943
0.945752
0.956777
0.964939
0.971042
0.975683
0.979283
0.982136
0.984451
0.98637
0.987997
0.9894
0.990625
0.991699
0.992638
0.993452
0.994146
0.994722
0.995181
0.995523
0.995746
0.99585
0.995833
0.995696
0.99544
0.995065
0.994574
0.993965
0.993238
0.992389
0.991414
0.9903
0.989029
0.987568
0.985868
0.983851
0.981402
0.978365
0.97451
0.96951
0.962902
0.954033
0.942046
0.926047
0.905784
0.883388
0.865193
0.859771
0.870296
0.89087
0.913026
0.931921
0.946483
0.957314
0.965334
0.971336
0.975905
0.979452
0.982268
0.984556
0.986454
0.988064
0.989456
0.990671
0.991737
0.992671
0.99348
0.99417
0.994743
0.9952
0.99554
0.995762
0.995865
0.996078
0.995933
0.995662
0.995264
0.994742
0.994094
0.993321
0.992418
0.991382
0.990202
0.988864
0.987338
0.98558
0.983519
0.981057
0.978049
0.974289
0.969494
0.963293
0.955182
0.944565
0.930938
0.914443
0.896962
0.883044
0.878435
0.885495
0.900709
0.918272
0.934219
0.947161
0.957176
0.964819
0.970673
0.975214
0.978788
0.981662
0.984027
0.986014
0.987717
0.989199
0.990501
0.991647
0.992651
0.993522
0.994265
0.99488
0.99537
0.995734
0.995972
0.996082
0.996064
0.995918
0.995646
0.995246
0.994722
0.994071
0.993293
0.992385
0.991342
0.990155
0.988806
0.987267
0.985492
0.98341
0.980919
0.977872
0.974059
0.969191
0.962893
0.954652
0.943869
0.930059
0.913429
0.896002
0.882475
0.878536
0.886212
0.901715
0.919262
0.935049
0.947808
0.957667
0.96519
0.970954
0.975428
0.978953
0.981792
0.98413
0.986097
0.987784
0.989254
0.990547
0.991685
0.992683
0.993549
0.994288
0.9949
0.995388
0.99575
0.995986
0.996096
0.996294
0.996141
0.995853
0.995432
0.994878
0.994189
0.993365
0.992402
0.991296
0.990037
0.988611
0.986996
0.985149
0.98301
0.980489
0.977455
0.973726
0.969061
0.963151
0.955615
0.94606
0.934268
0.920631
0.906851
0.896311
0.892895
0.898147
0.90976
0.923748
0.93707
0.948374
0.957456
0.9646
0.970206
0.974643
0.978202
0.981111
0.983539
0.985609
0.987401
0.988972
0.990359
0.991582
0.992653
0.993582
0.994373
0.995027
0.995547
0.995932
0.996183
0.9963
0.996281
0.996127
0.995838
0.995415
0.994858
0.994166
0.993338
0.99237
0.991257
0.989989
0.988554
0.986926
0.985063
0.982903
0.980354
0.977283
0.973506
0.968776
0.962781
0.955137
0.945454
0.933533
0.919823
0.90612
0.895892
0.892969
0.89868
0.910535
0.924548
0.937773
0.948944
0.957902
0.964944
0.970472
0.974849
0.978362
0.981238
0.98364
0.98569
0.987467
0.989027
0.990404
0.991619
0.992685
0.993608
0.994395
0.995046
0.995563
0.995947
0.996197
0.996313
0.996506
0.996345
0.996043
0.995601
0.995018
0.994292
0.993422
0.992404
0.991232
0.989898
0.98839
0.986686
0.984751
0.982533
0.979954
0.976896
0.973204
0.968676
0.963068
0.956106
0.947559
0.937402
0.926145
0.915244
0.907194
0.904633
0.908585
0.917517
0.928684
0.939787
0.94961
0.957797
0.964438
0.969787
0.974112
0.97765
0.980592
0.983084
0.985236
0.987117
0.988776
0.990243
0.991538
0.992673
0.993654
0.994488
0.995177
0.995723
0.996127
0.996391
0.996513
0.996493
0.996332
0.996029
0.995585
0.994999
0.994271
0.993396
0.992372
0.991194
0.989852
0.988334
0.986617
0.984666
0.982428
0.979823
0.976731
0.972995
0.96841
0.96273
0.95568
0.947036
0.936792
0.925502
0.914687
0.906883
0.904688
0.908983
0.918115
0.929327
0.940377
0.950107
0.958198
0.964756
0.970036
0.974308
0.977805
0.980715
0.983183
0.985316
0.987183
0.98883
0.990287
0.991575
0.992703
0.993679
0.994509
0.995195
0.995738
0.996141
0.996404
0.996525
0.996719
0.996552
0.99624
0.995782
0.995177
0.994424
0.993518
0.992456
0.991231
0.989835
0.988257
0.986476
0.984465
0.982182
0.979559
0.976496
0.972864
0.968503
0.963228
0.956862
0.949295
0.940631
0.931405
0.922811
0.916656
0.91473
0.917714
0.924585
0.933464
0.942647
0.951098
0.9584
0.964514
0.969572
0.973759
0.977254
0.980211
0.982753
0.984973
0.986931
0.988664
0.9902
0.991554
0.992739
0.993762
0.994629
0.995343
0.995909
0.996328
0.996601
0.996728
0.996708
0.99654
0.996226
0.995767
0.995159
0.994403
0.993493
0.992425
0.991194
0.98979
0.988202
0.986409
0.984382
0.98208
0.979433
0.97634
0.972669
0.968258
0.962924
0.956489
0.948851
0.940132
0.9309
0.922387
0.916425
0.91477
0.918011
0.925044
0.933976
0.943135
0.951524
0.958754
0.964801
0.969802
0.973943
0.977401
0.98033
0.982849
0.985051
0.986995
0.988716
0.990243
0.991589
0.992768
0.993786
0.994649
0.99536
0.995924
0.996341
0.996613
0.99674
0.996939
0.996769
0.99645
0.995983
0.995367
0.994598
0.993672
0.992584
0.991327
0.989892
0.988267
0.986437
0.984378
0.98206
0.979427
0.976398
0.972871
0.968725
0.963837
0.958106
0.951516
0.944238
0.936777
0.930069
0.925397
0.923954
0.926197
0.931444
0.938428
0.945918
0.953076
0.959485
0.965026
0.969742
0.973741
0.977151
0.980086
0.982645
0.984902
0.986908
0.98869
0.990269
0.991661
0.992876
0.993923
0.994809
0.995538
0.996114
0.996542
0.99682
0.99695
0.996929
0.996758
0.996438
0.995969
0.99535
0.994578
0.993648
0.992555
0.991292
0.989849
0.988214
0.986372
0.984299
0.981964
0.979309
0.976253
0.972691
0.968505
0.963569
0.957786
0.951147
0.943839
0.936386
0.929752
0.925227
0.923984
0.926416
0.931791
0.938828
0.946313
0.953433
0.959791
0.965281
0.96995
0.973911
0.977289
0.980198
0.982736
0.984977
0.986969
0.98874
0.990311
0.991695
0.992904
0.993946
0.994827
0.995553
0.996128
0.996553
0.996831
0.99696
0.997168
0.996997
0.996678
0.996211
0.995595
0.994826
0.9939
0.99281
0.991549
0.990107
0.988474
0.986636
0.984576
0.982275
0.979687
0.976752
0.973396
0.969538
0.965106
0.960063
0.954452
0.948475
0.942563
0.937419
0.933924
0.93286
0.934523
0.938469
0.943862
0.949846
0.955774
0.961273
0.966183
0.970485
0.974226
0.977485
0.980339
0.982859
0.985105
0.987113
0.988902
0.990489
0.991887
0.993105
0.994153
0.995038
0.995767
0.996343
0.996771
0.99705
0.99718
0.997159
0.996987
0.996667
0.996198
0.99558
0.994808
0.993878
0.992783
0.991516
0.990067
0.988424
0.986575
0.984503
0.982186
0.979579
0.97662
0.973236
0.969345
0.964877
0.959797
0.954156
0.948163
0.942268
0.937187
0.933802
0.932881
0.934681
0.938725
0.944167
0.950157
0.956065
0.961529
0.966402
0.970668
0.974378
0.97761
0.980442
0.982944
0.985175
0.987171
0.98895
0.990528
0.991918
0.993131
0.994174
0.995056
0.995781
0.996356
0.996781
0.99706
0.997189
0.997407
0.997239
0.996926
0.996469
0.995867
0.995116
0.994212
0.993149
0.991918
0.990511
0.988919
0.987129
0.985131
0.982916
0.980449
0.977688
0.974589
0.971106
0.967209
0.962906
0.958276
0.953511
0.948956
0.945113
0.942559
0.94179
0.942997
0.945895
0.949953
0.954599
0.959363
0.963936
0.968155
0.971962
0.975358
0.97838
0.981073
0.983482
0.985648
0.987596
0.989339
0.990886
0.99225
0.993438
0.99446
0.995324
0.996036
0.996599
0.997018
0.997292
0.99742
0.997399
0.99723
0.996916
0.996457
0.995853
0.9951
0.994192
0.993124
0.991888
0.990474
0.988873
0.987074
0.985065
0.982836
0.980352
0.977573
0.974451
0.970944
0.967021
0.962694
0.958045
0.953277
0.948741
0.944947
0.942473
0.941805
0.943108
0.946078
0.950177
0.954835
0.95959
0.964143
0.968337
0.972118
0.97549
0.978491
0.981165
0.983559
0.985712
0.987649
0.989382
0.990922
0.992279
0.993462
0.99448
0.99534
0.996049
0.996611
0.997027
0.9973
0.997428
0.997657
0.997495
0.997195
0.996758
0.996184
0.995471
0.994614
0.993608
0.992446
0.99112
0.989622
0.987945
0.986083
0.984033
0.981773
0.979279
0.97653
0.973509
0.970218
0.966692
0.963017
0.95936
0.955976
0.953198
0.951389
0.950851
0.9517
0.953763
0.956715
0.960193
0.963878
0.967534
0.971017
0.974252
0.977214
0.979906
0.982347
0.984559
0.986566
0.988385
0.990019
0.991475
0.99276
0.993883
0.99485
0.99567
0.996346
0.996883
0.997283
0.997546
0.997669
0.997649
0.997487
0.997186
0.996748
0.996172
0.995456
0.994596
0.993586
0.992419
0.991087
0.989582
0.987897
0.986025
0.983963
0.98169
0.979182
0.976417
0.973378
0.97007
0.966529
0.962846
0.959192
0.955826
0.953085
0.951332
0.950861
0.951776
0.953889
0.956873
0.960364
0.964048
0.967694
0.971162
0.974379
0.977324
0.98
0.982426
0.984626
0.986623
0.988432
0.990058
0.991507
0.992786
0.993904
0.994868
0.995684
0.996358
0.996893
0.997292
0.997554
0.997677
0.997915
0.997764
0.997484
0.997078
0.996547
0.99589
0.995104
0.994185
0.993128
0.991928
0.990579
0.989077
0.987421
0.985613
0.983642
0.981499
0.979179
0.976687
0.974042
0.971289
0.968508
0.965826
0.963416
0.961487
0.960254
0.95989
0.960467
0.96188
0.963942
0.966436
0.969158
0.971946
0.974684
0.9773
0.979756
0.982038
0.984144
0.986078
0.987852
0.989472
0.990937
0.99225
0.993414
0.994436
0.995321
0.996074
0.996698
0.997195
0.997567
0.997812
0.997928
0.997909
0.997757
0.997476
0.997069
0.996537
0.995877
0.995088
0.994166
0.993105
0.9919
0.990545
0.989036
0.987372
0.985555
0.983574
0.98142
0.97909
0.976586
0.973931
0.971171
0.968388
0.965711
0.963316
0.961413
0.960217
0.959897
0.960516
0.961963
0.964048
0.966554
0.969279
0.972063
0.974793
0.977398
0.979843
0.982114
0.984209
0.986134
0.9879
0.989512
0.990971
0.992277
0.993437
0.994455
0.995336
0.996086
0.996708
0.997204
0.997575
0.997819
0.997934
0.998182
0.998045
0.997792
0.997427
0.996952
0.996367
0.995673
0.994867
0.993946
0.992909
0.991753
0.990476
0.98908
0.987571
0.985946
0.984208
0.982361
0.980421
0.978414
0.976381
0.974386
0.972516
0.970879
0.969598
0.968792
0.968556
0.968932
0.969859
0.971236
0.97294
0.974851
0.976865
0.9789
0.980898
0.982821
0.984645
0.98636
0.98796
0.989443
0.990811
0.99206
0.993187
0.994196
0.995087
0.995865
0.996531
0.997086
0.997532
0.997867
0.998089
0.998194
0.998177
0.998039
0.997785
0.997419
0.996943
0.996357
0.99566
0.994851
0.993927
0.992886
0.991724
0.990442
0.989041
0.987526
0.985894
0.984148
0.982295
0.980348
0.978335
0.976299
0.974305
0.97244
0.970815
0.969552
0.968769
0.96856
0.968962
0.969912
0.971304
0.973018
0.974933
0.976946
0.978978
0.98097
0.982886
0.984704
0.986411
0.988004
0.989481
0.990844
0.992087
0.99321
0.994214
0.995103
0.995877
0.996541
0.997095
0.99754
0.997874
0.998095
0.9982
0.998456
0.998336
0.998115
0.997799
0.997391
0.996893
0.996306
0.995631
0.994868
0.994018
0.99308
0.992056
0.990949
0.989765
0.988507
0.987183
0.985805
0.984388
0.982956
0.981543
0.980191
0.978956
0.977899
0.977088
0.976584
0.976438
0.976672
0.977254
0.97813
0.979236
0.980506
0.981879
0.983302
0.984735
0.986147
0.987516
0.988827
0.990069
0.991236
0.992324
0.993328
0.994245
0.995074
0.995815
0.996468
0.997032
0.997507
0.997891
0.998181
0.998375
0.998467
0.998452
0.998331
0.99811
0.997793
0.997384
0.996884
0.996295
0.995618
0.994853
0.993999
0.993058
0.99203
0.990919
0.989731
0.988468
0.98714
0.985758
0.984338
0.982904
0.98149
0.98014
0.978909
0.977861
0.97706
0.97657
0.97644
0.97669
0.977285
0.978172
0.979285
0.980559
0.981932
0.983355
0.984785
0.986194
0.987558
0.988864
0.990102
0.991265
0.992349
0.99335
0.994264
0.99509
0.995828
0.996478
0.99704
0.997514
0.997897
0.998187
0.99838
0.998471
0.998735
0.998635
0.998451
0.998191
0.997857
0.997453
0.996983
0.996449
0.995853
0.995197
0.994484
0.993715
0.992894
0.992026
0.991118
0.990179
0.989219
0.988252
0.987297
0.986376
0.985514
0.984744
0.984097
0.983608
0.983308
0.983221
0.983361
0.983708
0.984238
0.984918
0.985714
0.986594
0.987527
0.988488
0.989456
0.990414
0.991348
0.992248
0.993106
0.993916
0.994672
0.995372
0.996014
0.996594
0.997112
0.997565
0.997951
0.998266
0.998506
0.998667
0.998744
0.998731
0.998631
0.998447
0.998186
0.997851
0.997446
0.996975
0.996439
0.995841
0.995184
0.994468
0.993696
0.992873
0.992002
0.991091
0.990149
0.989187
0.988219
0.987264
0.986343
0.985483
0.984716
0.984075
0.983592
0.9833
0.983223
0.983371
0.983727
0.984263
0.984947
0.985746
0.986627
0.987561
0.988521
0.989487
0.990443
0.991374
0.992272
0.993127
0.993934
0.994688
0.995386
0.996025
0.996604
0.99712
0.997572
0.997957
0.998271
0.99851
0.998671
0.998748
0.999017
0.998938
0.998795
0.998594
0.998338
0.998033
0.997682
0.997289
0.996857
0.996388
0.995886
0.995353
0.994792
0.994205
0.9936
0.992984
0.992366
0.991756
0.991166
0.990607
0.990095
0.989645
0.989273
0.988996
0.988827
0.988778
0.988856
0.989053
0.989354
0.989747
0.990213
0.990739
0.991307
0.991905
0.992518
0.993137
0.993752
0.994355
0.994937
0.995492
0.996018
0.996513
0.996972
0.997395
0.997778
0.998117
0.99841
0.998652
0.998838
0.998964
0.999024
0.999014
0.998935
0.998792
0.99859
0.998334
0.998028
0.997676
0.997282
0.996848
0.996379
0.995875
0.995341
0.994778
0.994189
0.993582
0.992965
0.992347
0.991737
0.991146
0.990588
0.990077
0.989629
0.989261
0.988987
0.988822
0.988779
0.988862
0.989062
0.989368
0.989763
0.990232
0.990758
0.991327
0.991925
0.992538
0.993156
0.993769
0.99437
0.994951
0.995504
0.996029
0.996522
0.996981
0.997402
0.997784
0.998122
0.998414
0.998655
0.998841
0.998967
0.999027
0.9993
0.999244
0.999143
0.999002
0.998825
0.998616
0.99838
0.998119
0.997838
0.997538
0.997221
0.996891
0.996547
0.99619
0.995828
0.995465
0.995107
0.994759
0.994429
0.994122
0.993845
0.993605
0.993409
0.993264
0.993177
0.993152
0.993192
0.993294
0.993452
0.993659
0.993909
0.994194
0.994508
0.994844
0.995194
0.995555
0.995918
0.99628
0.996635
0.996976
0.997304
0.997617
0.997913
0.998189
0.998444
0.998674
0.998874
0.999042
0.999173
0.999262
0.999305
0.999298
0.999242
0.999141
0.998999
0.998822
0.998613
0.998376
0.998115
0.997832
0.997531
0.997214
0.996883
0.996538
0.996181
0.995817
0.995454
0.995096
0.994748
0.994418
0.994112
0.993835
0.993597
0.993403
0.99326
0.993175
0.993152
0.993195
0.993299
0.993459
0.993667
0.993918
0.994205
0.994519
0.994855
0.995205
0.995565
0.995928
0.99629
0.996643
0.996984
0.997311
0.997623
0.997918
0.998194
0.998448
0.998677
0.998877
0.999045
0.999175
0.999264
0.999307
0.999581
0.999548
0.999489
0.999407
0.999306
0.999188
0.999057
0.998914
0.998763
0.998605
0.998441
0.998272
0.998099
0.99792
0.99774
0.997562
0.997389
0.997225
0.99707
0.996929
0.996803
0.996695
0.996608
0.996544
0.996505
0.996495
0.996512
0.996557
0.996627
0.996719
0.996832
0.996962
0.997107
0.997264
0.997432
0.997606
0.997784
0.997965
0.998143
0.998316
0.998483
0.998646
0.998803
0.998952
0.999092
0.99922
0.999334
0.999431
0.999507
0.999559
0.999585
0.99958
0.999547
0.999488
0.999406
0.999304
0.999186
0.999054
0.998912
0.99876
0.998602
0.998437
0.998268
0.998094
0.997915
0.997735
0.997557
0.997384
0.99722
0.997065
0.996924
0.996798
0.996691
0.996605
0.996542
0.996505
0.996495
0.996513
0.996559
0.99663
0.996723
0.996836
0.996967
0.997112
0.99727
0.997437
0.997611
0.997789
0.997969
0.998147
0.998319
0.998487
0.998649
0.998806
0.998955
0.999094
0.999222
0.999336
0.999432
0.999508
0.99956
0.999586
0.999861
0.99985
0.999831
0.999805
0.999773
0.999736
0.999696
0.999654
0.999609
0.999564
0.999518
0.999471
0.999423
0.999374
0.999324
0.999275
0.999229
0.999185
0.999145
0.999108
0.999075
0.999048
0.999026
0.99901
0.999
0.998997
0.999002
0.999013
0.999031
0.999054
0.999083
0.999116
0.999154
0.999196
0.99924
0.999287
0.999336
0.999386
0.999436
0.999483
0.99953
0.999576
0.999621
0.999665
0.999707
0.999746
0.999782
0.999812
0.999836
0.999853
0.999862
0.99986
0.99985
0.99983
0.999804
0.999772
0.999736
0.999695
0.999653
0.999608
0.999563
0.999517
0.99947
0.999422
0.999372
0.999322
0.999274
0.999228
0.999184
0.999143
0.999107
0.999074
0.999047
0.999025
0.999009
0.999
0.998997
0.999002
0.999014
0.999031
0.999055
0.999084
0.999118
0.999155
0.999197
0.999242
0.999289
0.999338
0.999387
0.999437
0.999484
0.999531
0.999577
0.999622
0.999666
0.999708
0.999747
0.999782
0.999813
0.999837
0.999854
0.999862
)
;

boundaryField
{
    top
    {
        type            calculated;
        value           uniform 1;
    }
    bottom
    {
        type            calculated;
        value           uniform 0.148957;
    }
    frontAndBack
    {
        type            empty;
    }
    left_cyc
    {
        type            cyclic;
    }
    right_cyc
    {
        type            cyclic;
    }
}


// ************************************************************************* //
