/*--------------------------------*- C++ -*----------------------------------*\
| =========                 |                                                 |
| \\      /  F ield         | OpenFOAM: The Open Source CFD Toolbox           |
|  \\    /   O peration     | Version:  2.3.0                                 |
|   \\  /    A nd           | Web:      www.OpenFOAM.org                      |
|    \\/     M anipulation  |                                                 |
\*---------------------------------------------------------------------------*/
FoamFile
{
    version     2.0;
    format      ascii;
    class       volScalarField;
    location    "22000";
    object      NUEff;
}
// * * * * * * * * * * * * * * * * * * * * * * * * * * * * * * * * * * * * * //

dimensions      [0 2 -1 0 0 0 0];

internalField   nonuniform List<scalar> 
3060
(
0.175146
0.174953
0.1746
0.174101
0.173469
0.172717
0.17186
0.17091
0.169877
0.168769
0.167594
0.166358
0.165075
0.163781
0.162504
0.161246
0.160009
0.158804
0.157649
0.156567
0.155583
0.154722
0.154013
0.153483
0.15316
0.153066
0.153214
0.153587
0.154161
0.154908
0.1558
0.156809
0.157911
0.15908
0.160294
0.161538
0.162801
0.164085
0.165383
0.166658
0.167882
0.169042
0.170133
0.171147
0.172074
0.172905
0.173626
0.174224
0.174684
0.174994
0.175142
0.175117
0.174923
0.17457
0.17407
0.173436
0.172683
0.171824
0.170871
0.169835
0.168724
0.167545
0.166306
0.16502
0.163725
0.162447
0.161189
0.159952
0.158748
0.157595
0.156516
0.155537
0.154684
0.153982
0.153462
0.153149
0.153068
0.153228
0.153612
0.154195
0.154949
0.155847
0.156861
0.157966
0.159137
0.160352
0.161595
0.162858
0.16414
0.165438
0.16671
0.167929
0.169087
0.170174
0.171185
0.172111
0.172939
0.173659
0.174255
0.174714
0.175024
0.175171
0.635569
0.627899
0.61358
0.592584
0.565005
0.531363
0.492888
0.451596
0.409974
0.370361
0.334402
0.302889
0.275928
0.253221
0.234694
0.219608
0.207154
0.19683
0.188292
0.181284
0.1756
0.171088
0.167645
0.165215
0.163785
0.163378
0.164024
0.165685
0.168346
0.172029
0.176802
0.182779
0.190124
0.199054
0.209843
0.222864
0.238676
0.258219
0.281925
0.309986
0.34262
0.379576
0.419855
0.4616
0.502371
0.539745
0.571885
0.597756
0.616972
0.629489
0.635324
0.634362
0.626651
0.612261
0.591168
0.563478
0.529734
0.491191
0.449889
0.408326
0.368828
0.333022
0.301675
0.274876
0.252322
0.233951
0.218982
0.206625
0.196384
0.18792
0.180976
0.175351
0.170892
0.1675
0.165119
0.16374
0.163386
0.164083
0.165794
0.168505
0.17224
0.177067
0.183104
0.190517
0.199525
0.210401
0.223523
0.239459
0.259166
0.283027
0.311253
0.344052
0.381154
0.421536
0.463321
0.504064
0.541356
0.573387
0.599149
0.618272
0.630725
0.636528
0.940614
0.939868
0.938459
0.936343
0.933432
0.929582
0.924572
0.918056
0.909498
0.898031
0.882195
0.85942
0.824929
0.769709
0.679344
0.550846
0.420815
0.328622
0.271811
0.236595
0.213852
0.198695
0.18853
0.181973
0.178321
0.177306
0.178922
0.183205
0.190512
0.201673
0.218294
0.243375
0.282591
0.346335
0.448352
0.582972
0.704076
0.785234
0.834534
0.865668
0.886481
0.901099
0.911766
0.919767
0.925875
0.930572
0.934168
0.936865
0.938789
0.940017
0.940585
0.940491
0.93974
0.938322
0.936191
0.933258
0.929377
0.924322
0.917742
0.909089
0.897475
0.881407
0.858241
0.823059
0.766593
0.674301
0.544446
0.415515
0.325215
0.269701
0.235243
0.212953
0.198087
0.188125
0.181725
0.178208
0.177324
0.179072
0.183495
0.190969
0.202353
0.219301
0.244904
0.285006
0.350246
0.454192
0.589266
0.70859
0.787949
0.836177
0.866721
0.887196
0.90161
0.912147
0.920062
0.926111
0.930768
0.934336
0.937012
0.938923
0.940143
0.940707
0.971843
0.971538
0.970968
0.970122
0.968978
0.967498
0.965628
0.963283
0.960343
0.956627
0.95186
0.945612
0.937176
0.925331
0.907804
0.880233
0.832572
0.74183
0.578962
0.405312
0.303285
0.251061
0.222709
0.206823
0.198683
0.196495
0.199989
0.209676
0.227859
0.260325
0.321056
0.439718
0.622368
0.76861
0.846363
0.887958
0.912597
0.928517
0.939419
0.947259
0.953108
0.957594
0.961104
0.963886
0.966105
0.967872
0.969263
0.970327
0.971099
0.971597
0.971829
0.971791
0.971484
0.970911
0.970059
0.968907
0.967418
0.965533
0.963169
0.960202
0.956449
0.951628
0.945299
0.936739
0.924693
0.906815
0.878576
0.829506
0.735759
0.569666
0.398568
0.299815
0.249218
0.221673
0.206252
0.198437
0.196536
0.200318
0.210359
0.229075
0.262512
0.325256
0.447601
0.631198
0.773655
0.848932
0.889394
0.913486
0.929094
0.939817
0.947547
0.953324
0.957762
0.961237
0.963995
0.966196
0.96795
0.969331
0.970388
0.971155
0.971651
0.971881
0.982592
0.9824
0.982042
0.981513
0.980803
0.979893
0.978757
0.977354
0.975628
0.973495
0.970835
0.967468
0.963116
0.957339
0.949405
0.938007
0.920618
0.891836
0.8386
0.728342
0.532069
0.365068
0.283675
0.245639
0.228274
0.223835
0.230966
0.252054
0.297213
0.394609
0.581203
0.761553
0.854339
0.900011
0.925408
0.941078
0.951509
0.958856
0.96425
0.96834
0.971521
0.974043
0.976069
0.977711
0.979044
0.980121
0.980978
0.98164
0.982123
0.982436
0.982583
0.982558
0.982365
0.982005
0.981473
0.980758
0.979842
0.978698
0.977285
0.975544
0.973392
0.970705
0.967299
0.962892
0.957033
0.948968
0.937351
0.919566
0.889985
0.834923
0.720526
0.521681
0.359306
0.281014
0.244372
0.22777
0.223917
0.231653
0.253619
0.300506
0.401733
0.59183
0.767949
0.857338
0.901577
0.926324
0.941661
0.951904
0.959137
0.964457
0.968497
0.971644
0.974141
0.976149
0.977778
0.9791
0.98017
0.981021
0.981679
0.98216
0.982471
0.982617
0.98779
0.987644
0.987372
0.986971
0.986436
0.985755
0.984911
0.98388
0.982625
0.981096
0.979218
0.976883
0.973932
0.970119
0.965054
0.958063
0.947995
0.932653
0.907393
0.861097
0.765118
0.579462
0.39833
0.30958
0.27319
0.264424
0.278614
0.323801
0.431212
0.628687
0.794204
0.874708
0.914529
0.936862
0.9507
0.959914
0.966379
0.971109
0.974694
0.977483
0.979698
0.981485
0.982944
0.984141
0.985123
0.985924
0.986567
0.987066
0.987433
0.987671
0.987782
0.987764
0.987617
0.987343
0.98694
0.986402
0.985716
0.984867
0.983828
0.982564
0.981021
0.979125
0.976766
0.97378
0.969916
0.964776
0.957667
0.947402
0.931708
0.905747
0.857867
0.758121
0.568656
0.39186
0.30681
0.272181
0.264583
0.280015
0.327338
0.439204
0.639173
0.799847
0.877348
0.915924
0.937685
0.951226
0.96027
0.966629
0.971295
0.974835
0.977593
0.979785
0.981557
0.983003
0.98419
0.985166
0.985962
0.9866
0.987097
0.987461
0.987698
0.987809
0.990712
0.990588
0.990357
0.990018
0.989568
0.988998
0.988297
0.987447
0.986422
0.985185
0.983684
0.981842
0.979545
0.976623
0.972814
0.967671
0.96049
0.950018
0.933837
0.906801
0.856676
0.754043
0.572847
0.415012
0.343625
0.326921
0.354106
0.442832
0.618341
0.784642
0.871408
0.914458
0.938286
0.952837
0.962394
0.96902
0.973807
0.977377
0.980134
0.982312
0.984066
0.985499
0.986681
0.987661
0.988472
0.989139
0.989678
0.990099
0.990409
0.990611
0.990706
0.99069
0.990565
0.990333
0.989992
0.989539
0.988966
0.98826
0.987404
0.986371
0.985124
0.98361
0.981749
0.979426
0.976468
0.972604
0.96738
0.960072
0.949386
0.932818
0.905005
0.853136
0.746684
0.562978
0.409541
0.341681
0.327222
0.356837
0.449689
0.628337
0.790702
0.874304
0.915975
0.939171
0.953396
0.962769
0.969283
0.973998
0.977521
0.980245
0.9824
0.984136
0.985557
0.986729
0.987702
0.988508
0.989171
0.989706
0.990125
0.990433
0.990634
0.990728
0.992495
0.992382
0.992171
0.991862
0.991454
0.99094
0.990311
0.989555
0.988652
0.987572
0.986274
0.984698
0.982753
0.980307
0.977154
0.972961
0.967223
0.959078
0.946971
0.927857
0.895247
0.834479
0.718727
0.558257
0.450037
0.422076
0.467224
0.59392
0.751363
0.852202
0.904517
0.93314
0.950244
0.961244
0.968731
0.974054
0.977972
0.980935
0.983249
0.985098
0.986603
0.987844
0.988879
0.989745
0.990468
0.991067
0.991554
0.991936
0.992219
0.992404
0.99249
0.992476
0.992362
0.99215
0.991839
0.991428
0.990911
0.990279
0.989517
0.988607
0.987519
0.98621
0.984618
0.982652
0.980176
0.976981
0.972725
0.966891
0.958593
0.946224
0.926626
0.893043
0.830206
0.71108
0.550781
0.446808
0.422585
0.471652
0.602154
0.758083
0.855738
0.906372
0.934202
0.950903
0.961679
0.969031
0.97427
0.978132
0.981056
0.983344
0.985173
0.986664
0.987895
0.988922
0.989781
0.9905
0.991095
0.991579
0.991959
0.99224
0.992424
0.99251
0.993642
0.993532
0.993329
0.993032
0.99264
0.99215
0.991554
0.990843
0.990001
0.989004
0.987817
0.98639
0.984645
0.982471
0.979694
0.976045
0.971123
0.964273
0.954359
0.939303
0.915061
0.873461
0.799761
0.685993
0.580027
0.546303
0.599355
0.714302
0.820411
0.885218
0.921784
0.943394
0.957008
0.966079
0.972408
0.976991
0.980411
0.983027
0.985089
0.986751
0.988117
0.989256
0.990213
0.991022
0.991704
0.992272
0.992737
0.993104
0.993376
0.993554
0.993638
0.993624
0.993514
0.99331
0.993011
0.992617
0.992124
0.991525
0.990809
0.989961
0.988956
0.987759
0.986318
0.984555
0.982356
0.979542
0.97584
0.97084
0.963868
0.953755
0.938355
0.913477
0.870657
0.794873
0.679716
0.576273
0.546943
0.604169
0.720513
0.824652
0.887601
0.923149
0.944226
0.957546
0.966445
0.972666
0.977179
0.980552
0.983135
0.985173
0.986819
0.988173
0.989302
0.990252
0.991055
0.991733
0.992298
0.99276
0.993125
0.993396
0.993573
0.993656
0.99441
0.9943
0.994096
0.993798
0.993406
0.992918
0.992329
0.991632
0.990812
0.989851
0.988718
0.987368
0.985734
0.983717
0.98116
0.977837
0.973413
0.967349
0.958756
0.94609
0.926577
0.895203
0.844061
0.768573
0.691757
0.664051
0.706783
0.787536
0.857991
0.903834
0.931887
0.949488
0.961031
0.968937
0.974562
0.978695
0.981817
0.984231
0.986149
0.987709
0.989004
0.990093
0.991019
0.991808
0.992478
0.993041
0.993505
0.993872
0.994145
0.994324
0.994408
0.994394
0.994283
0.994078
0.993778
0.993385
0.992894
0.992302
0.991599
0.990774
0.989806
0.988663
0.987301
0.985651
0.98361
0.981021
0.977652
0.97316
0.966994
0.958239
0.945306
0.925335
0.893167
0.840793
0.764314
0.688771
0.664598
0.710439
0.791657
0.860884
0.905606
0.932975
0.950183
0.961496
0.96926
0.974793
0.978866
0.981946
0.984331
0.986227
0.987772
0.989055
0.990136
0.991055
0.991839
0.992505
0.993065
0.993526
0.993891
0.994163
0.994341
0.994424
0.994947
0.994833
0.994621
0.994314
0.99391
0.993409
0.992807
0.992099
0.991274
0.990315
0.989195
0.987875
0.986293
0.984358
0.981926
0.978801
0.974688
0.969131
0.961397
0.950285
0.933784
0.90865
0.870607
0.81857
0.76709
0.748182
0.777228
0.831364
0.880674
0.915409
0.938204
0.953233
0.963429
0.970578
0.975752
0.979604
0.982548
0.98485
0.986694
0.988209
0.989479
0.990558
0.991484
0.99228
0.992961
0.993537
0.994013
0.994392
0.994674
0.994859
0.994945
0.994931
0.994817
0.994604
0.994295
0.993889
0.993386
0.992781
0.992068
0.991238
0.990272
0.989143
0.987812
0.986214
0.984257
0.981796
0.978629
0.974455
0.968808
0.960937
0.949607
0.932758
0.907073
0.868275
0.815714
0.765069
0.748559
0.779681
0.834159
0.882788
0.91681
0.939115
0.95384
0.963845
0.970873
0.975966
0.979764
0.98267
0.984944
0.986769
0.98827
0.989528
0.990599
0.991518
0.992309
0.992987
0.99356
0.994033
0.99441
0.99469
0.994875
0.994961
0.99534
0.99522
0.994997
0.994673
0.994248
0.993722
0.993093
0.992357
0.991504
0.990521
0.989385
0.988058
0.986484
0.984578
0.982208
0.979197
0.97528
0.97006
0.96292
0.952899
0.938503
0.917593
0.887937
0.850309
0.815208
0.802626
0.822016
0.859316
0.895582
0.923106
0.942306
0.955533
0.964784
0.971413
0.976289
0.979968
0.982813
0.985062
0.986883
0.988394
0.989673
0.990772
0.991722
0.992546
0.993256
0.993859
0.994359
0.994757
0.995054
0.995249
0.99534
0.995325
0.995205
0.994981
0.994656
0.994229
0.9937
0.993068
0.992327
0.991469
0.99048
0.989334
0.987996
0.986408
0.984481
0.982083
0.979032
0.975061
0.96976
0.962501
0.952298
0.937628
0.916321
0.886189
0.848322
0.813859
0.802876
0.823666
0.861298
0.897201
0.924256
0.943094
0.956075
0.965165
0.971688
0.976491
0.98012
0.982929
0.985153
0.986956
0.988453
0.989721
0.990812
0.991756
0.992575
0.993281
0.99388
0.994378
0.994774
0.99507
0.995264
0.995355
0.995646
0.995518
0.995281
0.994936
0.994484
0.993924
0.993257
0.992477
0.99158
0.990553
0.989374
0.988012
0.986412
0.984495
0.982141
0.979186
0.975391
0.970403
0.963697
0.954497
0.941692
0.923885
0.900057
0.871814
0.847018
0.838422
0.851736
0.878405
0.906059
0.928498
0.945033
0.956894
0.965436
0.97169
0.976366
0.979942
0.982741
0.984983
0.986819
0.988358
0.989675
0.990816
0.991812
0.99268
0.993431
0.994072
0.994603
0.995028
0.995344
0.995551
0.995648
0.995632
0.995504
0.995266
0.99492
0.994465
0.993903
0.993232
0.992448
0.991546
0.990512
0.989325
0.987951
0.986337
0.9844
0.98202
0.979028
0.975182
0.97012
0.963309
0.953956
0.940932
0.922835
0.898705
0.870381
0.846093
0.838591
0.852881
0.879863
0.907337
0.929463
0.945725
0.957387
0.965791
0.97195
0.97656
0.980089
0.982855
0.985072
0.98689
0.988416
0.989722
0.990856
0.991845
0.992708
0.993455
0.994092
0.994622
0.995044
0.995359
0.995565
0.995661
0.9959
0.995764
0.995512
0.995143
0.994659
0.99406
0.993345
0.992513
0.991558
0.99047
0.989229
0.987807
0.986155
0.984197
0.981825
0.978886
0.975161
0.970337
0.96397
0.955437
0.943922
0.928559
0.90906
0.887311
0.869241
0.86317
0.87262
0.892272
0.913872
0.932475
0.946892
0.957642
0.965612
0.971578
0.976116
0.979637
0.98243
0.984696
0.986576
0.988171
0.989548
0.990751
0.991807
0.992732
0.993534
0.994219
0.994789
0.995242
0.99558
0.995801
0.995904
0.995887
0.995751
0.995497
0.995127
0.994641
0.994039
0.993321
0.992485
0.991524
0.990429
0.98918
0.987747
0.986081
0.984104
0.981706
0.978733
0.97496
0.970069
0.963609
0.954946
0.943255
0.927679
0.907992
0.886249
0.868587
0.863288
0.873439
0.893371
0.914899
0.933294
0.947505
0.958094
0.965945
0.971825
0.976303
0.97978
0.982541
0.984784
0.986646
0.988228
0.989595
0.99079
0.991839
0.992759
0.993558
0.994239
0.994806
0.995258
0.995594
0.995814
0.995917
0.996126
0.995982
0.995713
0.995319
0.994802
0.994161
0.993396
0.992505
0.991483
0.990321
0.989004
0.987504
0.985778
0.983756
0.981341
0.978391
0.974706
0.970005
0.963925
0.955979
0.945589
0.932273
0.916186
0.899173
0.885672
0.881249
0.888162
0.902983
0.920084
0.935618
0.948239
0.958016
0.965485
0.97121
0.975649
0.979144
0.981957
0.984272
0.986219
0.987889
0.989344
0.990624
0.991751
0.992741
0.9936
0.994334
0.994942
0.995427
0.995787
0.996023
0.996132
0.996114
0.995969
0.995699
0.995304
0.994784
0.994141
0.993372
0.992477
0.991449
0.990281
0.988955
0.987445
0.985704
0.983665
0.981225
0.978242
0.974512
0.96975
0.963588
0.955533
0.945004
0.931536
0.915336
0.89837
0.885197
0.881334
0.888762
0.903826
0.920914
0.936315
0.948783
0.958429
0.965797
0.971447
0.975829
0.979284
0.982067
0.984359
0.986289
0.987946
0.989391
0.990662
0.991783
0.992768
0.993623
0.994353
0.994959
0.995442
0.995801
0.996035
0.996144
0.996338
0.996186
0.995901
0.995483
0.994933
0.994251
0.993435
0.992484
0.991392
0.990152
0.988748
0.987159
0.985345
0.983245
0.980772
0.977796
0.97414
0.969565
0.963769
0.956381
0.947021
0.935481
0.922153
0.908707
0.898452
0.895163
0.900323
0.911673
0.925332
0.938341
0.949384
0.958262
0.965249
0.970734
0.975074
0.978556
0.981404
0.983782
0.985811
0.987569
0.989113
0.990478
0.991682
0.992739
0.993656
0.994437
0.995085
0.9956
0.995982
0.996231
0.996346
0.996327
0.996174
0.995888
0.995469
0.994917
0.994232
0.993413
0.992457
0.991359
0.990112
0.988699
0.9871
0.985272
0.983155
0.980658
0.977652
0.973954
0.969325
0.963457
0.955979
0.946511
0.934863
0.921474
0.908094
0.898101
0.895225
0.90077
0.912324
0.926005
0.938932
0.949864
0.958638
0.965539
0.970958
0.975248
0.978692
0.981511
0.983868
0.98588
0.987626
0.989159
0.990516
0.991713
0.992765
0.993678
0.994456
0.995101
0.995614
0.995994
0.996242
0.996357
0.996546
0.996386
0.996087
0.995648
0.99507
0.99435
0.993488
0.99248
0.991322
0.990006
0.98852
0.986842
0.984939
0.982761
0.980229
0.977228
0.973606
0.969163
0.963659
0.956827
0.948442
0.938484
0.927456
0.916792
0.908933
0.906458
0.910355
0.919114
0.930052
0.940923
0.95054
0.958555
0.965058
0.970295
0.97453
0.977995
0.980877
0.98332
0.985431
0.987278
0.98891
0.990355
0.991632
0.992752
0.993723
0.994548
0.995231
0.995772
0.996173
0.996435
0.996556
0.996536
0.996376
0.996075
0.995635
0.995054
0.994332
0.993466
0.992454
0.99129
0.989967
0.988472
0.986784
0.984868
0.982672
0.980118
0.977089
0.973429
0.968938
0.963373
0.956468
0.948001
0.93797
0.926915
0.916322
0.908671
0.906504
0.91069
0.919619
0.930595
0.941421
0.950959
0.958893
0.965326
0.970506
0.974696
0.978126
0.980981
0.983404
0.985499
0.987334
0.988955
0.990392
0.991663
0.992778
0.993745
0.994566
0.995246
0.995785
0.996185
0.996445
0.996566
0.996757
0.996591
0.99628
0.995825
0.995224
0.994476
0.993578
0.992526
0.991313
0.989934
0.988375
0.98662
0.98464
0.982395
0.979817
0.976808
0.97324
0.968956
0.963773
0.957517
0.95008
0.941567
0.932504
0.924069
0.91804
0.91617
0.919124
0.925887
0.934613
0.943631
0.951925
0.959089
0.965086
0.970046
0.974151
0.977579
0.980479
0.982974
0.985155
0.98708
0.988788
0.990302
0.99164
0.992812
0.993825
0.994684
0.995393
0.995955
0.996371
0.996642
0.996768
0.996747
0.996581
0.996269
0.995812
0.995209
0.994459
0.993557
0.9925
0.991282
0.989896
0.988329
0.986563
0.98457
0.982309
0.979711
0.976676
0.973075
0.968749
0.963516
0.957201
0.949705
0.941145
0.932077
0.923711
0.917845
0.916205
0.919375
0.926275
0.935046
0.944043
0.952286
0.959389
0.965329
0.970241
0.974307
0.977703
0.980579
0.983055
0.985221
0.987135
0.988832
0.990339
0.99167
0.992837
0.993845
0.994701
0.995407
0.995967
0.996382
0.996652
0.996777
0.996974
0.996804
0.996486
0.996022
0.995409
0.994645
0.993725
0.992646
0.991399
0.989978
0.988371
0.986563
0.984533
0.982249
0.979657
0.976676
0.973204
0.969125
0.964313
0.958668
0.952176
0.945005
0.937652
0.931045
0.926449
0.925043
0.927271
0.932457
0.939347
0.946728
0.953775
0.96008
0.965528
0.970162
0.974091
0.977441
0.980326
0.982842
0.985064
0.987041
0.9888
0.990361
0.991738
0.992942
0.99398
0.994858
0.995582
0.996156
0.99658
0.996857
0.996986
0.996965
0.996794
0.996476
0.99601
0.995395
0.994628
0.993705
0.992621
0.991369
0.989942
0.988327
0.986509
0.984466
0.982168
0.979557
0.976553
0.973053
0.968938
0.964085
0.958397
0.951863
0.944665
0.93732
0.930775
0.926305
0.925069
0.927458
0.932752
0.939687
0.947063
0.954078
0.96034
0.965744
0.970339
0.974235
0.977558
0.980421
0.982919
0.985128
0.987093
0.988842
0.990396
0.991766
0.992965
0.993999
0.994874
0.995596
0.996167
0.99659
0.996866
0.996995
0.997199
0.997029
0.996711
0.996245
0.995632
0.994867
0.993945
0.992862
0.991609
0.990179
0.98856
0.98674
0.984703
0.98243
0.979876
0.97698
0.973669
0.969862
0.965487
0.960506
0.954961
0.94905
0.943202
0.938114
0.934661
0.933618
0.935278
0.939196
0.94454
0.95046
0.956319
0.961746
0.966589
0.970829
0.974516
0.977725
0.980538
0.983023
0.98524
0.987224
0.988994
0.990566
0.991952
0.993161
0.994202
0.995082
0.995807
0.99638
0.996805
0.997083
0.997213
0.997191
0.99702
0.996701
0.996235
0.995619
0.994851
0.993927
0.992839
0.991581
0.990144
0.988518
0.986689
0.984641
0.982354
0.979784
0.976868
0.973533
0.969698
0.965293
0.96028
0.954708
0.948785
0.94295
0.937916
0.934557
0.933637
0.935414
0.939415
0.9448
0.950725
0.956566
0.961965
0.966776
0.970985
0.974645
0.977832
0.980625
0.983096
0.985299
0.987273
0.989034
0.990599
0.991979
0.993183
0.99422
0.995097
0.995819
0.996391
0.996815
0.997091
0.997221
0.997435
0.997267
0.996955
0.996499
0.995898
0.99515
0.99425
0.99319
0.991965
0.990566
0.988983
0.987206
0.985225
0.98303
0.980587
0.977854
0.974786
0.971338
0.967477
0.963211
0.958617
0.953885
0.949359
0.945539
0.943004
0.942247
0.943457
0.946348
0.950389
0.955007
0.959736
0.964269
0.968447
0.972213
0.975572
0.978559
0.981222
0.983605
0.98575
0.987681
0.98941
0.990947
0.992302
0.993484
0.994501
0.995361
0.99607
0.996632
0.997049
0.997321
0.997449
0.997428
0.99726
0.996946
0.996489
0.995887
0.995136
0.994232
0.993169
0.99194
0.990535
0.988945
0.987159
0.985168
0.982961
0.980504
0.977756
0.974669
0.971199
0.967316
0.963029
0.95842
0.953684
0.949175
0.945398
0.942931
0.94226
0.943553
0.946506
0.950581
0.955209
0.95993
0.964446
0.968603
0.972346
0.975684
0.978654
0.981301
0.983671
0.985804
0.987726
0.989447
0.990977
0.992327
0.993504
0.994518
0.995375
0.996081
0.996641
0.997057
0.997329
0.997456
0.997681
0.997519
0.99722
0.996784
0.996211
0.995498
0.994643
0.993639
0.992479
0.991157
0.989665
0.987994
0.986141
0.984102
0.981855
0.979378
0.976645
0.973642
0.970367
0.966855
0.963193
0.959544
0.956164
0.95339
0.951585
0.951051
0.951908
0.953976
0.956931
0.960406
0.964081
0.967723
0.971188
0.974404
0.977345
0.980018
0.982441
0.984639
0.986633
0.988442
0.990068
0.991518
0.992798
0.993918
0.994883
0.9957
0.996375
0.996911
0.99731
0.997572
0.997695
0.997675
0.997513
0.997212
0.996775
0.9962
0.995486
0.994628
0.99362
0.992456
0.991129
0.98963
0.987953
0.986091
0.984043
0.981785
0.979294
0.976548
0.973529
0.97024
0.966716
0.963046
0.959399
0.956035
0.953292
0.951535
0.95106
0.951973
0.954085
0.957067
0.960553
0.964228
0.967861
0.971312
0.974513
0.977439
0.980098
0.982509
0.984696
0.986682
0.988482
0.990102
0.991545
0.992821
0.993936
0.994898
0.995712
0.996385
0.99692
0.997318
0.997579
0.997701
0.997937
0.997785
0.997505
0.997099
0.996568
0.995911
0.995124
0.994205
0.993148
0.991948
0.9906
0.9891
0.987445
0.98564
0.983673
0.981534
0.979218
0.976729
0.974085
0.97133
0.968545
0.965856
0.963437
0.961501
0.960263
0.959901
0.960485
0.96191
0.963984
0.966488
0.969218
0.972009
0.974747
0.97736
0.979811
0.982087
0.984186
0.986116
0.987886
0.989503
0.990966
0.992276
0.99344
0.994461
0.995345
0.996097
0.996721
0.997218
0.99759
0.997835
0.99795
0.997931
0.997779
0.997499
0.997092
0.996559
0.9959
0.995111
0.994189
0.993128
0.991924
0.990571
0.989064
0.987403
0.985591
0.983615
0.981467
0.979141
0.976642
0.97399
0.971228
0.968441
0.965756
0.96335
0.961436
0.960231
0.959907
0.960528
0.961982
0.964076
0.966591
0.969323
0.97211
0.974841
0.977444
0.979886
0.982152
0.984243
0.986164
0.987926
0.989537
0.990994
0.9923
0.993459
0.994477
0.995358
0.996108
0.99673
0.997226
0.997596
0.997841
0.997956
0.9982
0.998063
0.997809
0.997443
0.996967
0.996382
0.995686
0.994878
0.993955
0.992915
0.991756
0.990476
0.989077
0.987565
0.985937
0.984194
0.982343
0.980396
0.97838
0.976337
0.974329
0.972446
0.970796
0.969504
0.968691
0.968455
0.968837
0.969777
0.971168
0.972887
0.974813
0.976839
0.978883
0.980888
0.982816
0.984645
0.986362
0.987964
0.989449
0.99082
0.99207
0.993199
0.994209
0.995102
0.995881
0.996548
0.997104
0.997551
0.997886
0.998108
0.998213
0.998196
0.998058
0.997804
0.997437
0.99696
0.996372
0.995674
0.994864
0.993939
0.992895
0.991732
0.990448
0.989044
0.987526
0.985892
0.984143
0.982285
0.980333
0.978312
0.976266
0.974259
0.97238
0.97074
0.969463
0.968671
0.968459
0.968864
0.969823
0.971228
0.972955
0.974884
0.97691
0.978951
0.980951
0.982873
0.984695
0.986406
0.988002
0.989482
0.990848
0.992094
0.993219
0.994226
0.995116
0.995892
0.996557
0.997112
0.997557
0.997892
0.998113
0.998218
0.998471
0.99835
0.998129
0.997812
0.997402
0.996902
0.996313
0.995635
0.994869
0.994014
0.993071
0.992042
0.990929
0.989738
0.988473
0.987142
0.985754
0.984327
0.982883
0.981457
0.980092
0.978843
0.977773
0.976952
0.976442
0.976295
0.976534
0.977126
0.978014
0.979135
0.980419
0.981806
0.983242
0.984686
0.986108
0.987485
0.988802
0.990051
0.991224
0.992317
0.993326
0.994247
0.995079
0.995823
0.996478
0.997044
0.99752
0.997905
0.998196
0.998391
0.998483
0.998467
0.998346
0.998125
0.997807
0.997396
0.996894
0.996303
0.995624
0.994855
0.993998
0.993052
0.99202
0.990903
0.989709
0.98844
0.987104
0.985713
0.984283
0.982837
0.98141
0.980047
0.978802
0.977739
0.976928
0.97643
0.976298
0.97655
0.977153
0.978051
0.979177
0.980465
0.981853
0.983288
0.98473
0.986148
0.987521
0.988835
0.99008
0.991249
0.992339
0.993344
0.994263
0.995092
0.995834
0.996487
0.997051
0.997526
0.99791
0.998201
0.998395
0.998486
0.998747
0.998646
0.998462
0.998199
0.997864
0.997458
0.996985
0.996448
0.995848
0.995188
0.994469
0.993694
0.992867
0.991992
0.991076
0.990128
0.989158
0.988182
0.987216
0.986283
0.985411
0.98463
0.983974
0.983478
0.983174
0.983086
0.983229
0.983583
0.984122
0.984812
0.98562
0.986511
0.987455
0.988427
0.989404
0.990371
0.991313
0.992221
0.993085
0.9939
0.994662
0.995367
0.996012
0.996596
0.997117
0.997573
0.99796
0.998276
0.998518
0.99868
0.998757
0.998744
0.998643
0.998458
0.998195
0.997859
0.997452
0.996978
0.996439
0.995838
0.995176
0.994455
0.993678
0.992849
0.991971
0.991053
0.990102
0.989131
0.988153
0.987187
0.986255
0.985384
0.984606
0.983954
0.983464
0.983167
0.983088
0.983238
0.983599
0.984143
0.984838
0.985648
0.98654
0.987485
0.988455
0.989431
0.990396
0.991336
0.992241
0.993103
0.993916
0.994676
0.995379
0.996022
0.996605
0.997124
0.997578
0.997965
0.99828
0.998521
0.998683
0.99876
0.999026
0.998946
0.998803
0.998599
0.998342
0.998035
0.997681
0.997285
0.996849
0.996377
0.99587
0.995332
0.994766
0.994173
0.993561
0.992938
0.992313
0.991696
0.991097
0.990531
0.990011
0.989555
0.989177
0.988895
0.988724
0.988675
0.988755
0.988955
0.989262
0.989661
0.990135
0.990669
0.991245
0.99185
0.992471
0.993097
0.993719
0.994327
0.994914
0.995475
0.996006
0.996504
0.996968
0.997394
0.997779
0.998121
0.998416
0.998659
0.998846
0.998973
0.999034
0.999023
0.998944
0.9988
0.998596
0.998338
0.99803
0.997676
0.997279
0.996842
0.996369
0.995861
0.995321
0.994753
0.994159
0.993546
0.992922
0.992296
0.991678
0.99108
0.990514
0.989996
0.989541
0.989166
0.988888
0.98872
0.988676
0.98876
0.988964
0.989274
0.989675
0.990151
0.990686
0.991263
0.991867
0.992488
0.993113
0.993733
0.994341
0.994927
0.995486
0.996015
0.996513
0.996975
0.9974
0.997784
0.998125
0.998419
0.998662
0.998849
0.998975
0.999036
0.999306
0.999249
0.999147
0.999005
0.998826
0.998616
0.998378
0.998115
0.997831
0.997528
0.997208
0.996874
0.996526
0.996166
0.995799
0.995431
0.995069
0.994717
0.994382
0.994071
0.993789
0.993546
0.993347
0.9932
0.993111
0.993086
0.993127
0.993231
0.993391
0.993602
0.993856
0.994146
0.994464
0.994805
0.99516
0.995525
0.995893
0.996259
0.996617
0.996962
0.997293
0.997609
0.997908
0.998187
0.998444
0.998675
0.998877
0.999047
0.999178
0.999268
0.999311
0.999304
0.999247
0.999145
0.999003
0.998824
0.998613
0.998374
0.998111
0.997826
0.997522
0.997202
0.996867
0.996519
0.996157
0.99579
0.995422
0.995059
0.994708
0.994373
0.994062
0.993781
0.993539
0.993341
0.993196
0.993109
0.993086
0.99313
0.993235
0.993398
0.99361
0.993865
0.994155
0.994474
0.994814
0.99517
0.995534
0.995902
0.996267
0.996624
0.996969
0.997299
0.997614
0.997912
0.998191
0.998447
0.998678
0.99888
0.999049
0.99918
0.99927
0.999313
0.999585
0.999551
0.999492
0.999409
0.999306
0.999187
0.999055
0.998911
0.998758
0.998598
0.998433
0.998262
0.998087
0.997906
0.997723
0.997544
0.997369
0.997202
0.997045
0.996902
0.996774
0.996664
0.996576
0.996511
0.996472
0.996461
0.996479
0.996525
0.996596
0.99669
0.996804
0.996936
0.997084
0.997243
0.997413
0.997589
0.99777
0.997952
0.998132
0.998307
0.998476
0.998641
0.998799
0.99895
0.999091
0.999221
0.999336
0.999433
0.99951
0.999563
0.999588
0.999584
0.99955
0.999491
0.999408
0.999305
0.999186
0.999053
0.998909
0.998756
0.998596
0.99843
0.998259
0.998083
0.997901
0.997719
0.997539
0.997364
0.997197
0.997041
0.996898
0.99677
0.996661
0.996574
0.99651
0.996472
0.996461
0.99648
0.996527
0.996599
0.996693
0.996808
0.996941
0.997088
0.997248
0.997417
0.997593
0.997774
0.997956
0.998136
0.99831
0.998479
0.998644
0.998802
0.998952
0.999093
0.999222
0.999337
0.999434
0.999511
0.999564
0.999589
0.999862
0.999851
0.999831
0.999805
0.999773
0.999736
0.999695
0.999652
0.999608
0.999562
0.999515
0.999468
0.99942
0.999369
0.999319
0.99927
0.999223
0.999179
0.999138
0.9991
0.999067
0.999039
0.999017
0.999001
0.998991
0.998988
0.998993
0.999004
0.999022
0.999046
0.999075
0.999109
0.999148
0.99919
0.999235
0.999282
0.999332
0.999382
0.999432
0.99948
0.999527
0.999574
0.99962
0.999664
0.999706
0.999746
0.999782
0.999813
0.999837
0.999854
0.999863
0.999861
0.99985
0.999831
0.999805
0.999772
0.999735
0.999695
0.999652
0.999607
0.999561
0.999514
0.999467
0.999419
0.999368
0.999318
0.999269
0.999222
0.999177
0.999136
0.999099
0.999066
0.999039
0.999016
0.999
0.998991
0.998988
0.998993
0.999005
0.999023
0.999047
0.999076
0.99911
0.999149
0.999191
0.999236
0.999284
0.999333
0.999383
0.999433
0.999481
0.999528
0.999575
0.99962
0.999665
0.999707
0.999747
0.999782
0.999813
0.999838
0.999855
0.999863
)
;

boundaryField
{
    top
    {
        type            calculated;
        value           uniform 1;
    }
    bottom
    {
        type            calculated;
        value           uniform 0.148957;
    }
    frontAndBack
    {
        type            empty;
    }
    left_cyc
    {
        type            cyclic;
    }
    right_cyc
    {
        type            cyclic;
    }
}


// ************************************************************************* //
