/*--------------------------------*- C++ -*----------------------------------*\
| =========                 |                                                 |
| \\      /  F ield         | OpenFOAM: The Open Source CFD Toolbox           |
|  \\    /   O peration     | Version:  2.3.0                                 |
|   \\  /    A nd           | Web:      www.OpenFOAM.org                      |
|    \\/     M anipulation  |                                                 |
\*---------------------------------------------------------------------------*/
FoamFile
{
    version     2.0;
    format      ascii;
    class       volScalarField;
    location    "22000";
    object      NUEff;
}
// * * * * * * * * * * * * * * * * * * * * * * * * * * * * * * * * * * * * * //

dimensions      [0 2 -1 0 0 0 0];

internalField   nonuniform List<scalar> 
765
(
0.0165278
0.0164885
0.016522
0.0165924
0.0166455
0.0166092
0.0164291
0.0162405
0.0159923
0.0156738
0.0155043
0.0157923
0.0160974
0.0163264
0.0165181
0.016645
0.0166406
0.016573
0.0165096
0.0164975
0.0165684
0.0166991
0.0168723
0.0170906
0.0173659
0.0177189
0.0181811
0.0187976
0.0196304
0.020762
0.0223159
0.024599
0.0271501
0.029433
0.0312745
0.0321458
0.0318977
0.0306437
0.0285779
0.0261938
0.0235852
0.0216439
0.0202743
0.0192715
0.0185325
0.0179832
0.0175687
0.0172492
0.0169981
0.0167981
0.0166407
0.0233171
0.0230622
0.0229645
0.0229554
0.0229154
0.0226782
0.0221412
0.0211543
0.0197135
0.0180987
0.0173483
0.0186459
0.0202596
0.0215467
0.0223486
0.0228245
0.022975
0.0229867
0.0230159
0.0231639
0.0234833
0.0240606
0.0248609
0.0258859
0.0271801
0.0288359
0.031028
0.0341123
0.0388812
0.0473434
0.0642282
0.096429
0.161139
0.319516
0.590002
0.717266
0.68644
0.48619
0.238297
0.129359
0.0815797
0.0559423
0.0433236
0.036714
0.0327538
0.030082
0.028129
0.0266295
0.0254477
0.0245119
0.0237926
0.0331382
0.0322417
0.0315817
0.0310591
0.0305322
0.0297899
0.0285326
0.0262248
0.0231116
0.0200252
0.0187315
0.0210288
0.0242775
0.0271988
0.0291619
0.0301585
0.0307941
0.031305
0.03187
0.032614
0.0336255
0.0349643
0.03685
0.0393944
0.0427587
0.047287
0.0535503
0.0627232
0.0775372
0.10496
0.173903
0.438289
0.806817
0.906501
0.938809
0.949881
0.947125
0.9295
0.880508
0.70459
0.284861
0.136417
0.0913937
0.0705502
0.058553
0.0507682
0.0452948
0.0412876
0.0382766
0.0359963
0.0343388
0.0406399
0.0390679
0.0377358
0.0365997
0.0355973
0.034544
0.0328128
0.0296976
0.0254443
0.0213475
0.019716
0.0226512
0.0270384
0.0310233
0.0336529
0.0350045
0.0360025
0.0370477
0.0382575
0.039681
0.0413628
0.0433563
0.0457294
0.0485924
0.0520553
0.0562458
0.0616204
0.0692553
0.0817589
0.106731
0.176092
0.49081
0.85125
0.931029
0.956572
0.965208
0.963118
0.949299
0.910537
0.765862
0.302586
0.137474
0.0940673
0.0757683
0.0657526
0.0592399
0.054441
0.0505713
0.0473615
0.0447161
0.0425021
0.0407314
0.0393094
0.0380083
0.0369014
0.0360339
0.0352502
0.0338522
0.0309898
0.0265506
0.0221069
0.0203717
0.0235084
0.0282496
0.03225
0.0345097
0.0355832
0.0363435
0.0372955
0.0384827
0.0398387
0.0412934
0.0427997
0.0443357
0.0459093
0.0475766
0.0494983
0.052052
0.0560261
0.0631376
0.0778492
0.116529
0.294149
0.818166
0.932425
0.961267
0.970193
0.968115
0.953489
0.907039
0.662268
0.183071
0.0957595
0.0705229
0.0597389
0.0541918
0.0509232
0.0486915
0.0469053
0.0452909
0.0437403
0.0422187
0.0370787
0.0361042
0.0352087
0.0345118
0.0340861
0.0337425
0.0330017
0.0307695
0.0266952
0.022427
0.0207789
0.0237625
0.0282875
0.0318153
0.0334001
0.0338855
0.0342117
0.0347331
0.035512
0.0364476
0.0374224
0.0383477
0.0391776
0.0399177
0.0406402
0.0415157
0.0428711
0.0453074
0.0500123
0.0598082
0.0839847
0.178796
0.750736
0.93053
0.963934
0.973365
0.97124
0.955426
0.897664
0.472566
0.122251
0.0715492
0.055079
0.0478107
0.0441958
0.0422794
0.0411651
0.0403797
0.0396665
0.0388982
0.0380307
0.0333775
0.032762
0.0322554
0.0319548
0.0318899
0.0318729
0.0314112
0.0295729
0.0261796
0.0225463
0.0210858
0.0236824
0.0274927
0.0304275
0.0316995
0.0318641
0.0318877
0.0320293
0.0324095
0.0329637
0.0335902
0.0341981
0.0347305
0.035179
0.0356003
0.0361438
0.0370938
0.0389502
0.0426425
0.050256
0.0682703
0.131975
0.667764
0.929636
0.966472
0.976176
0.974032
0.957509
0.889788
0.327973
0.0952621
0.0592365
0.0466617
0.0409508
0.03812
0.03669
0.0359403
0.0354685
0.0350484
0.0345702
0.0340039
0.030595
0.0302455
0.0300162
0.0299245
0.0298961
0.0298649
0.0293902
0.0279601
0.0254353
0.0226099
0.0213592
0.0234996
0.0264001
0.0285918
0.0296429
0.0299006
0.0299065
0.029938
0.0300737
0.0303472
0.0307244
0.0311484
0.0315691
0.0319646
0.0323649
0.0328861
0.0337764
0.0354822
0.0388064
0.045494
0.0608754
0.112445
0.607617
0.931146
0.969208
0.978901
0.976771
0.960188
0.88757
0.264342
0.0830725
0.0532138
0.042377
0.0373144
0.0347404
0.0334118
0.0326986
0.0322416
0.0318488
0.0314414
0.031012
0.0287332
0.0284948
0.0283234
0.0282064
0.0281271
0.027966
0.0274922
0.0264342
0.0246789
0.022632
0.0216063
0.0232735
0.0253328
0.02687
0.027702
0.0280374
0.0281479
0.0282351
0.0283674
0.0285586
0.0288187
0.0291408
0.0295132
0.0299348
0.0304365
0.0311162
0.032188
0.0340505
0.0374341
0.0439451
0.0585974
0.108019
0.620746
0.93632
0.972323
0.98163
0.979564
0.963788
0.895376
0.260003
0.0798156
0.0513616
0.0409678
0.035958
0.0332687
0.0317625
0.0308683
0.0302689
0.0298006
0.0293953
0.0290373
0.0275868
0.0272951
0.0270568
0.0268576
0.0266626
0.0264031
0.0259638
0.0252004
0.0240294
0.0226332
0.0218368
0.0230555
0.0244429
0.0254855
0.0261259
0.0264889
0.0267157
0.0269063
0.027115
0.0273704
0.0276811
0.0280527
0.0284954
0.0290343
0.0297212
0.0306684
0.0320959
0.0344055
0.0383457
0.0456361
0.0620632
0.122323
0.728812
0.945702
0.976036
0.984433
0.982529
0.968602
0.914234
0.351138
0.0874806
0.054015
0.0423745
0.036678
0.0334663
0.0315418
0.0303216
0.0294846
0.0288576
0.0283548
0.0279375
0.027514
0.0270217
0.0265866
0.0261946
0.0258253
0.0254438
0.0249933
0.0243987
0.0236055
0.0226855
0.0221029
0.0229396
0.0238563
0.0245886
0.0251292
0.0255499
0.0259225
0.0262968
0.0267014
0.0271544
0.0276689
0.0282591
0.0289432
0.029784
0.0308537
0.0323045
0.0344165
0.0376976
0.0431168
0.0530861
0.0771324
0.192159
0.851773
0.957584
0.980237
0.987288
0.98564
0.974348
0.937672
0.659684
0.121231
0.065111
0.0486618
0.0408701
0.0363934
0.0336127
0.0317785
0.0304852
0.0295076
0.0287271
0.028077
0.0298241
0.0288387
0.0279684
0.027187
0.0264746
0.0258123
0.025176
0.0245334
0.0238584
0.023182
0.0227549
0.0233408
0.0240382
0.0247068
0.0253464
0.0259897
0.0266672
0.027401
0.0282098
0.0291152
0.0301461
0.0313386
0.0327302
0.03435
0.036385
0.0390925
0.0429561
0.048942
0.0591648
0.0799017
0.145642
0.638394
0.925874
0.969849
0.98476
0.990166
0.988855
0.980579
0.95903
0.882186
0.338419
0.109669
0.070429
0.0549107
0.046581
0.0415044
0.038119
0.0356805
0.0338041
0.0322773
0.0309582
0.040307
0.0376914
0.0354957
0.0336055
0.0319471
0.0304768
0.0291699
0.0280134
0.027008
0.0261947
0.0257758
0.0263642
0.0272537
0.0283137
0.029521
0.0308809
0.0324098
0.0341379
0.0361175
0.038435
0.0412205
0.0446499
0.0489205
0.0542192
0.0608084
0.0701265
0.0843793
0.109489
0.1666
0.372617
0.79728
0.924714
0.963919
0.980945
0.989403
0.993037
0.992117
0.986829
0.975858
0.953177
0.895667
0.67755
0.263072
0.140279
0.0991322
0.0789117
0.0667386
0.058511
0.0524192
0.0474746
0.0435037
0.152198
0.119015
0.0979679
0.0834498
0.072833
0.0647654
0.0585007
0.0536151
0.049892
0.0473182
0.046291
0.0478429
0.050788
0.054867
0.0601562
0.0669297
0.0756943
0.0873458
0.10354
0.127585
0.166795
0.23883
0.381419
0.596538
0.758283
0.839454
0.885216
0.914946
0.936225
0.952706
0.965964
0.976447
0.984364
0.990064
0.99389
0.995846
0.995327
0.992632
0.988132
0.98167
0.972878
0.961514
0.947334
0.929577
0.906093
0.87213
0.81799
0.716026
0.526522
0.325641
0.210748
0.982509
0.98082
0.978996
0.977014
0.974857
0.972526
0.970064
0.967578
0.965273
0.963493
0.962806
0.96388
0.965875
0.968282
0.970795
0.973238
0.975528
0.977639
0.979576
0.98136
0.983017
0.984555
0.985964
0.987234
0.988384
0.989425
0.990341
0.99116
0.99196
0.992804
0.993737
0.994771
0.995873
0.996968
0.997928
0.998518
0.998353
0.997588
0.996561
0.995457
0.994381
0.993392
0.992502
0.991685
0.990892
0.990056
0.989093
0.988021
0.986838
0.985529
0.984081
)
;

boundaryField
{
    top
    {
        type            calculated;
        value           uniform 1;
    }
    bottom
    {
        type            calculated;
        value           uniform 0.0143123;
    }
    frontAndBack
    {
        type            empty;
    }
    left_cyc
    {
        type            cyclic;
    }
    right_cyc
    {
        type            cyclic;
    }
}


// ************************************************************************* //
