/*--------------------------------*- C++ -*----------------------------------*\
| =========                 |                                                 |
| \\      /  F ield         | OpenFOAM: The Open Source CFD Toolbox           |
|  \\    /   O peration     | Version:  2.3.0                                 |
|   \\  /    A nd           | Web:      www.OpenFOAM.org                      |
|    \\/     M anipulation  |                                                 |
\*---------------------------------------------------------------------------*/
FoamFile
{
    version     2.0;
    format      ascii;
    class       volScalarField;
    location    "22000";
    object      NUEff;
}
// * * * * * * * * * * * * * * * * * * * * * * * * * * * * * * * * * * * * * //

dimensions      [0 2 -1 0 0 0 0];

internalField   nonuniform List<scalar> 
765
(
0.285626
0.274659
0.257972
0.239251
0.22107
0.204805
0.191199
0.181421
0.173678
0.167474
0.162729
0.159557
0.158226
0.159082
0.16186
0.166255
0.172117
0.179474
0.188729
0.201432
0.217123
0.234953
0.253752
0.271262
0.284014
0.288086
0.281387
0.26701
0.248875
0.230172
0.212834
0.197851
0.186189
0.177454
0.170485
0.164987
0.160984
0.15866
0.15836
0.160192
0.16378
0.168899
0.175478
0.183704
0.194376
0.208657
0.225464
0.243942
0.26245
0.278093
0.287032
0.964058
0.961997
0.957936
0.951139
0.939864
0.91984
0.878735
0.771982
0.502748
0.296604
0.224938
0.196827
0.187541
0.1934
0.216187
0.273205
0.436605
0.725218
0.861846
0.912945
0.936287
0.949054
0.956676
0.961286
0.963788
0.964483
0.963317
0.960314
0.955042
0.946369
0.93163
0.903797
0.839526
0.66058
0.376843
0.252985
0.208223
0.190471
0.188436
0.201677
0.23691
0.330044
0.581576
0.809808
0.892367
0.926088
0.943258
0.953159
0.959164
0.962685
0.964297
0.985526
0.98472
0.983193
0.980801
0.977208
0.971708
0.962743
0.946369
0.910915
0.80562
0.479224
0.284905
0.243674
0.268515
0.409215
0.754368
0.896811
0.940706
0.959872
0.97005
0.976159
0.980107
0.982738
0.984449
0.985422
0.985696
0.985236
0.98408
0.982153
0.979232
0.974833
0.967925
0.956085
0.932948
0.875858
0.675297
0.351563
0.255607
0.24721
0.310915
0.574261
0.845963
0.922989
0.951533
0.965448
0.973321
0.978245
0.981491
0.983646
0.984986
0.985621
0.9912
0.99063
0.989567
0.98795
0.985622
0.982238
0.977059
0.968337
0.951832
0.914559
0.802009
0.50246
0.362238
0.446666
0.7497
0.899578
0.946053
0.965532
0.975502
0.981262
0.984965
0.987493
0.989254
0.990439
0.991125
0.99132
0.990993
0.99018
0.988856
0.98692
0.984139
0.980017
0.973457
0.961772
0.937986
0.87706
0.672798
0.401932
0.373716
0.581678
0.844813
0.927439
0.957135
0.971015
0.978585
0.98321
0.986282
0.98841
0.989879
0.990817
0.991267
0.993493
0.992978
0.992025
0.990607
0.988627
0.985857
0.981781
0.975177
0.963415
0.939679
0.882362
0.730564
0.573032
0.682593
0.859277
0.931055
0.959517
0.97313
0.980597
0.985079
0.98808
0.990211
0.991746
0.992804
0.993423
0.993598
0.993304
0.99257
0.991394
0.98972
0.987397
0.984087
0.979017
0.970395
0.954194
0.918776
0.825467
0.631287
0.591236
0.780706
0.902427
0.947491
0.967094
0.977169
0.982963
0.98664
0.98918
0.991005
0.992302
0.993146
0.993552
0.99462
0.994092
0.993115
0.991678
0.989718
0.987061
0.983292
0.977409
0.967426
0.948705
0.909473
0.827157
0.74406
0.803119
0.895483
0.942318
0.964233
0.975628
0.982206
0.986326
0.989182
0.991279
0.992828
0.99391
0.994547
0.994724
0.994423
0.99367
0.992469
0.990788
0.988521
0.9854
0.980785
0.973277
0.95994
0.933527
0.876239
0.776479
0.754517
0.852482
0.92238
0.95467
0.970486
0.979151
0.984366
0.9878
0.990258
0.992078
0.993398
0.994265
0.99468
0.995288
0.994716
0.993651
0.992085
0.98997
0.987166
0.983321
0.977603
0.968384
0.952221
0.922106
0.870516
0.827483
0.857397
0.912386
0.946992
0.965526
0.975912
0.982229
0.986397
0.989393
0.991647
0.993333
0.994515
0.995206
0.995397
0.995072
0.994252
0.992941
0.991115
0.988691
0.985446
0.980838
0.973716
0.961749
0.940001
0.899701
0.843458
0.832502
0.885076
0.931496
0.957218
0.971152
0.979263
0.9844
0.987935
0.990547
0.992519
0.993959
0.994903
0.995352
0.995778
0.995152
0.993977
0.992239
0.989886
0.98679
0.982653
0.976854
0.968053
0.95376
0.930099
0.896119
0.872021
0.888439
0.923134
0.949388
0.965422
0.975189
0.981513
0.985946
0.989241
0.991747
0.993622
0.994928
0.995686
0.995893
0.99554
0.994638
0.993185
0.991153
0.988462
0.984913
0.980088
0.973064
0.962012
0.943711
0.914438
0.88055
0.874614
0.904991
0.93709
0.958031
0.970632
0.978502
0.983793
0.987634
0.990526
0.99272
0.994317
0.995357
0.995847
0.996213
0.995539
0.994271
0.992384
0.989813
0.986443
0.982054
0.976216
0.967923
0.955565
0.937404
0.915022
0.901039
0.910421
0.932491
0.952002
0.965543
0.974591
0.980873
0.985529
0.989103
0.991843
0.993883
0.995294
0.996112
0.996336
0.995954
0.994981
0.993409
0.991193
0.98825
0.984421
0.97942
0.972554
0.962529
0.94751
0.92658
0.905797
0.902435
0.92048
0.942489
0.959119
0.970282
0.977835
0.983238
0.987351
0.990511
0.992906
0.994638
0.995759
0.996289
0.996662
0.995969
0.994676
0.992749
0.990114
0.986663
0.982255
0.976653
0.969224
0.959151
0.946046
0.931985
0.924062
0.929314
0.942772
0.956422
0.967186
0.975138
0.981087
0.985727
0.989381
0.992193
0.994278
0.995718
0.996555
0.996788
0.996393
0.995398
0.993793
0.991525
0.988503
0.984601
0.979673
0.97328
0.964669
0.953087
0.93896
0.926665
0.924796
0.935206
0.949518
0.961925
0.971267
0.978165
0.983417
0.987585
0.990828
0.993282
0.995049
0.996195
0.996741
0.997159
0.996497
0.995278
0.993478
0.991033
0.987857
0.983884
0.979034
0.973034
0.965663
0.957176
0.949158
0.945015
0.947733
0.95521
0.963789
0.971463
0.977759
0.982844
0.986997
0.990351
0.992958
0.994904
0.996258
0.997055
0.997279
0.996899
0.995956
0.99445
0.992337
0.989539
0.985972
0.981604
0.976232
0.969578
0.961572
0.952987
0.946331
0.94537
0.950891
0.959304
0.967601
0.974628
0.980313
0.984916
0.9887
0.991693
0.993975
0.995629
0.996712
0.997235
0.997713
0.997141
0.996108
0.994615
0.992634
0.990127
0.987082
0.983515
0.979398
0.974806
0.970093
0.966112
0.964196
0.965442
0.969073
0.973708
0.978369
0.982605
0.986295
0.989455
0.992088
0.994188
0.995793
0.996935
0.997621
0.997819
0.997486
0.996678
0.995415
0.993683
0.991443
0.988665
0.985374
0.98154
0.977171
0.97245
0.967949
0.964787
0.964349
0.96693
0.971216
0.975961
0.980456
0.984437
0.987868
0.990788
0.993166
0.995024
0.996403
0.997325
0.99778
0.998322
0.997889
0.997133
0.996082
0.994745
0.993125
0.991237
0.989116
0.986828
0.984491
0.982315
0.980634
0.979868
0.980362
0.981869
0.983962
0.986282
0.988592
0.990756
0.9927
0.994384
0.995787
0.996907
0.997736
0.998251
0.998403
0.998148
0.997546
0.996639
0.995444
0.993966
0.99221
0.990204
0.987993
0.985663
0.983372
0.981389
0.980099
0.979926
0.980967
0.982812
0.985057
0.987399
0.989654
0.991723
0.993548
0.995099
0.996366
0.997346
0.998027
0.998373
0.998971
0.998711
0.998275
0.997701
0.997013
0.996227
0.995348
0.994392
0.99342
0.992496
0.991698
0.99112
0.990866
0.991029
0.991541
0.992296
0.993197
0.994162
0.995126
0.996027
0.996834
0.997546
0.998149
0.998621
0.998928
0.999021
0.998866
0.998511
0.998001
0.997368
0.996631
0.9958
0.994876
0.993906
0.99295
0.992078
0.991375
0.990942
0.990885
0.991231
0.991876
0.992714
0.993657
0.994631
0.995576
0.99643
0.997192
0.997853
0.998396
0.998793
0.999003
0.999645
0.999562
0.999431
0.99927
0.999092
0.998902
0.998692
0.99846
0.998233
0.998028
0.99786
0.997742
0.997692
0.997724
0.997827
0.997985
0.998182
0.998405
0.998637
0.998854
0.999048
0.999229
0.999394
0.999534
0.999631
0.999662
0.999611
0.999501
0.999353
0.999182
0.998999
0.998802
0.998576
0.998345
0.998127
0.997939
0.997794
0.997707
0.997696
0.997765
0.997896
0.998075
0.998287
0.998517
0.998749
0.998951
0.999137
0.999312
0.999467
0.999588
0.999656
)
;

boundaryField
{
    top
    {
        type            calculated;
        value           uniform 1;
    }
    bottom
    {
        type            calculated;
        value           uniform 0.148957;
    }
    frontAndBack
    {
        type            empty;
    }
    left_cyc
    {
        type            cyclic;
    }
    right_cyc
    {
        type            cyclic;
    }
}


// ************************************************************************* //
