/*--------------------------------*- C++ -*----------------------------------*\
| =========                 |                                                 |
| \\      /  F ield         | OpenFOAM: The Open Source CFD Toolbox           |
|  \\    /   O peration     | Version:  2.3.0                                 |
|   \\  /    A nd           | Web:      www.OpenFOAM.org                      |
|    \\/     M anipulation  |                                                 |
\*---------------------------------------------------------------------------*/
FoamFile
{
    version     2.0;
    format      ascii;
    class       volScalarField;
    location    "22000";
    object      NUEff;
}
// * * * * * * * * * * * * * * * * * * * * * * * * * * * * * * * * * * * * * //

dimensions      [0 2 -1 0 0 0 0];

internalField   nonuniform List<scalar> 
3060
(
0.186883
0.186321
0.185272
0.183814
0.182037
0.180045
0.177944
0.175832
0.173793
0.171887
0.170162
0.168511
0.166906
0.165352
0.163847
0.162381
0.160953
0.159571
0.158255
0.15703
0.155919
0.15495
0.154147
0.153538
0.153153
0.153016
0.153145
0.153523
0.154125
0.154922
0.155887
0.156994
0.158218
0.159533
0.160914
0.162344
0.163812
0.16532
0.166879
0.168486
0.170138
0.171863
0.173771
0.175803
0.177903
0.17999
0.181963
0.183717
0.185151
0.186172
0.186705
0.18669
0.186131
0.185087
0.183635
0.181867
0.179886
0.177797
0.175699
0.173673
0.171777
0.170057
0.168408
0.166803
0.165249
0.163743
0.162277
0.160849
0.15947
0.158158
0.156939
0.155838
0.15488
0.154091
0.153499
0.153133
0.153017
0.153166
0.153563
0.154181
0.154992
0.155969
0.157085
0.158315
0.159635
0.161019
0.162449
0.163917
0.165425
0.166983
0.16859
0.170244
0.171975
0.173894
0.17594
0.178053
0.180152
0.182135
0.183898
0.185338
0.186363
0.186898
0.84925
0.844676
0.835315
0.820216
0.797711
0.765294
0.719789
0.658646
0.583224
0.501659
0.425198
0.362781
0.314928
0.279325
0.252622
0.231965
0.215671
0.20267
0.192256
0.183933
0.177324
0.172148
0.168218
0.165424
0.163723
0.163131
0.163688
0.165354
0.168114
0.172009
0.177145
0.183711
0.191983
0.20234
0.215277
0.231499
0.252079
0.278704
0.314243
0.361997
0.424282
0.500559
0.58186
0.657221
0.718403
0.76397
0.796431
0.818943
0.834009
0.843287
0.847717
0.847602
0.842946
0.833412
0.81803
0.795099
0.762079
0.715801
0.653854
0.577959
0.49659
0.420912
0.359387
0.31229
0.277289
0.251006
0.230662
0.214611
0.201806
0.191553
0.183367
0.176872
0.171796
0.167957
0.165249
0.163635
0.163134
0.16378
0.165533
0.16838
0.172366
0.177603
0.184286
0.192695
0.203217
0.216354
0.232827
0.253732
0.2808
0.316953
0.365483
0.428682
0.505742
0.587204
0.662055
0.722412
0.767196
0.79905
0.821134
0.835915
0.84502
0.849366
0.961434
0.960796
0.959534
0.957612
0.954961
0.951477
0.947014
0.941358
0.93418
0.924928
0.91263
0.895594
0.870591
0.830937
0.765324
0.65442
0.50245
0.372585
0.293306
0.247431
0.21951
0.201625
0.189886
0.182338
0.178019
0.176553
0.17793
0.182156
0.189592
0.201179
0.218836
0.246376
0.291567
0.369646
0.498248
0.650792
0.76324
0.829835
0.869951
0.89519
0.91235
0.924713
0.933998
0.941192
0.946855
0.951319
0.954798
0.95744
0.959349
0.960593
0.961208
0.961192
0.960548
0.959273
0.957332
0.954654
0.951133
0.946619
0.940895
0.933618
0.924217
0.91168
0.89424
0.868511
0.827472
0.759223
0.644335
0.491272
0.364992
0.288882
0.244773
0.217821
0.200513
0.189154
0.181885
0.1778
0.176559
0.17816
0.182622
0.190342
0.202315
0.220563
0.249103
0.29612
0.377455
0.509577
0.660777
0.769253
0.833294
0.872015
0.896537
0.913298
0.925425
0.934562
0.941659
0.947253
0.951666
0.955107
0.957722
0.959611
0.960842
0.96145
0.97974
0.979448
0.978875
0.978015
0.976852
0.975359
0.973502
0.971224
0.968443
0.965027
0.960764
0.955316
0.948122
0.938219
0.923896
0.901915
0.864862
0.794653
0.653537
0.455626
0.323636
0.25896
0.225544
0.207219
0.197676
0.194567
0.197482
0.206797
0.224777
0.257552
0.320839
0.45019
0.647871
0.791736
0.863443
0.901144
0.923435
0.937923
0.947918
0.955167
0.960649
0.964931
0.968359
0.971147
0.973427
0.975285
0.976774
0.977933
0.978787
0.979352
0.979633
0.979627
0.979332
0.978755
0.977888
0.976715
0.97521
0.973335
0.971034
0.968222
0.964762
0.960435
0.954888
0.947539
0.937378
0.922633
0.899853
0.861124
0.787048
0.639023
0.4421
0.316752
0.255502
0.223661
0.206185
0.197207
0.19458
0.197976
0.207865
0.226717
0.261125
0.32798
0.464072
0.662144
0.799109
0.867085
0.903164
0.924677
0.938746
0.948495
0.955594
0.960979
0.965197
0.968581
0.971337
0.973595
0.975436
0.976912
0.978062
0.978908
0.979468
0.979747
0.986798
0.986611
0.986246
0.9857
0.984968
0.984038
0.982892
0.981502
0.979825
0.977797
0.975319
0.972237
0.968313
0.963168
0.956164
0.946242
0.931341
0.907107
0.863059
0.771078
0.5829
0.386912
0.289397
0.245527
0.225482
0.219331
0.225086
0.244585
0.28738
0.382373
0.575639
0.766819
0.861151
0.906137
0.930782
0.94589
0.955928
0.963
0.96819
0.972142
0.975242
0.977733
0.979768
0.981449
0.982842
0.983989
0.984918
0.985647
0.986189
0.986549
0.986729
0.986725
0.986537
0.986169
0.98562
0.984882
0.983945
0.982788
0.981385
0.97969
0.977638
0.975125
0.971993
0.967996
0.962738
0.95556
0.945349
0.929928
0.90466
0.858246
0.760354
0.564993
0.375955
0.284537
0.243259
0.22454
0.219355
0.226083
0.246942
0.292436
0.393769
0.593548
0.777176
0.865814
0.908525
0.932168
0.94677
0.956524
0.963425
0.968506
0.972385
0.975437
0.977893
0.979904
0.981567
0.982947
0.984083
0.985005
0.985728
0.986266
0.986623
0.986802
0.990337
0.990196
0.98992
0.989509
0.98896
0.988266
0.987417
0.986393
0.985167
0.983698
0.981922
0.979744
0.97702
0.973528
0.968907
0.962583
0.953557
0.939926
0.917693
0.877249
0.792477
0.611823
0.408262
0.307093
0.26612
0.254414
0.265341
0.305038
0.403343
0.604316
0.78838
0.875421
0.916757
0.939383
0.953212
0.96235
0.968741
0.973405
0.976926
0.97967
0.981861
0.983647
0.985122
0.986352
0.987378
0.988229
0.988922
0.989469
0.989878
0.99015
0.990287
0.990284
0.990142
0.989864
0.98945
0.988897
0.988198
0.987341
0.986307
0.985069
0.983582
0.981782
0.97957
0.976799
0.973236
0.96851
0.962021
0.952722
0.938604
0.915404
0.872757
0.782373
0.593608
0.396588
0.302234
0.264296
0.25446
0.267278
0.31012
0.415494
0.622439
0.798121
0.879773
0.91899
0.94068
0.954034
0.962906
0.969135
0.973695
0.977147
0.979843
0.982002
0.983763
0.985222
0.986439
0.987455
0.988298
0.988986
0.989529
0.989934
0.990205
0.99034
0.992345
0.992226
0.991992
0.991646
0.991185
0.990606
0.9899
0.989056
0.988052
0.986859
0.985429
0.983693
0.981548
0.978834
0.975298
0.97055
0.963953
0.954372
0.939611
0.914957
0.868907
0.771183
0.581303
0.405375
0.326956
0.305561
0.325487
0.401323
0.574029
0.766382
0.866731
0.913865
0.938989
0.953983
0.963693
0.970367
0.975164
0.978732
0.981469
0.98363
0.985377
0.986815
0.988014
0.989022
0.989869
0.990576
0.991155
0.991615
0.991959
0.99219
0.992306
0.992303
0.992183
0.991948
0.991599
0.991135
0.990551
0.989839
0.988987
0.987973
0.986765
0.985316
0.983555
0.981373
0.978607
0.974994
0.97013
0.963349
0.953459
0.938137
0.912346
0.863663
0.759574
0.564047
0.395929
0.323568
0.305643
0.329091
0.411191
0.591413
0.777614
0.871805
0.916408
0.940432
0.954881
0.96429
0.970783
0.975466
0.978958
0.981643
0.983768
0.985489
0.986909
0.988094
0.989091
0.98993
0.990631
0.991205
0.991662
0.992004
0.992233
0.992348
0.993568
0.993458
0.993243
0.992926
0.992506
0.99198
0.991345
0.99059
0.989701
0.988653
0.987409
0.985914
0.984083
0.98179
0.978834
0.974913
0.969558
0.961961
0.950652
0.932706
0.901687
0.84199
0.719848
0.537668
0.41615
0.380477
0.413668
0.531878
0.714149
0.839084
0.900249
0.931912
0.950169
0.961645
0.969339
0.974756
0.978716
0.981699
0.984012
0.985856
0.987362
0.988614
0.989668
0.990562
0.991319
0.991956
0.992481
0.992901
0.993217
0.993429
0.993535
0.993533
0.993422
0.993206
0.992887
0.992464
0.991934
0.991293
0.990532
0.989633
0.988573
0.987313
0.985795
0.983935
0.981599
0.97858
0.974567
0.96907
0.961245
0.949542
0.930859
0.898305
0.835097
0.706364
0.524259
0.410507
0.380614
0.419662
0.545634
0.727363
0.845759
0.903538
0.933718
0.951259
0.962351
0.969822
0.975099
0.978968
0.98189
0.98416
0.985975
0.987459
0.988694
0.989736
0.990621
0.991371
0.992002
0.992524
0.99294
0.993254
0.993464
0.99357
0.994351
0.994243
0.994034
0.993724
0.993316
0.992809
0.9922
0.991483
0.990646
0.989669
0.988522
0.987158
0.985505
0.983452
0.980828
0.977383
0.972736
0.966251
0.956821
0.942363
0.918661
0.876505
0.796486
0.660965
0.530072
0.482358
0.526832
0.655641
0.792675
0.874495
0.91757
0.941719
0.95641
0.965974
0.972539
0.977239
0.980719
0.983368
0.985438
0.987105
0.98848
0.989634
0.990617
0.991458
0.992178
0.992789
0.993296
0.993704
0.994012
0.994219
0.994323
0.994321
0.994213
0.994002
0.99369
0.993279
0.992768
0.992154
0.991431
0.990585
0.989598
0.988436
0.987053
0.985372
0.983282
0.980603
0.97708
0.972314
0.965644
0.955906
0.940904
0.916157
0.871841
0.787604
0.648703
0.522786
0.482548
0.534503
0.667955
0.801343
0.879033
0.920015
0.94315
0.95731
0.966574
0.972957
0.97754
0.980942
0.983537
0.985571
0.987211
0.988566
0.989706
0.990677
0.99151
0.992224
0.99283
0.993334
0.993738
0.994044
0.99425
0.994353
0.994877
0.994767
0.994553
0.994238
0.993823
0.99331
0.992697
0.991982
0.991156
0.990203
0.989096
0.987795
0.986234
0.984315
0.981883
0.978721
0.974499
0.968687
0.960384
0.947985
0.928453
0.895786
0.838703
0.745341
0.640919
0.594856
0.637911
0.741452
0.836032
0.894252
0.927555
0.947426
0.960015
0.968432
0.974316
0.978584
0.981779
0.984235
0.986171
0.987745
0.989057
0.990171
0.991131
0.991962
0.992679
0.993293
0.993807
0.994221
0.994535
0.994746
0.994852
0.99485
0.99474
0.994524
0.994207
0.99379
0.993273
0.992656
0.991935
0.991101
0.990137
0.989017
0.987697
0.986112
0.984159
0.981677
0.978444
0.974118
0.968146
0.959586
0.946753
0.92644
0.892305
0.832598
0.736495
0.634228
0.595052
0.644885
0.750268
0.842009
0.897654
0.929527
0.948637
0.960801
0.968966
0.974693
0.978859
0.981984
0.984391
0.986293
0.987843
0.989136
0.990237
0.991187
0.99201
0.992721
0.993331
0.99384
0.994252
0.994564
0.994774
0.994879
0.995251
0.995136
0.994911
0.994579
0.994144
0.993608
0.992971
0.992232
0.991386
0.990421
0.989313
0.988026
0.9865
0.984643
0.982313
0.979315
0.975353
0.969962
0.96238
0.951307
0.934438
0.907629
0.864127
0.79817
0.724493
0.689667
0.722247
0.795434
0.862138
0.906386
0.933661
0.950804
0.962038
0.96972
0.975176
0.979183
0.982212
0.984565
0.986439
0.987978
0.989276
0.990393
0.991365
0.992215
0.992957
0.993596
0.994132
0.994566
0.994896
0.995118
0.995229
0.995227
0.995111
0.994885
0.994552
0.994114
0.993574
0.992933
0.992188
0.991335
0.990359
0.989238
0.987933
0.986384
0.984495
0.982119
0.979055
0.974998
0.969464
0.961659
0.950223
0.932737
0.904867
0.859672
0.792052
0.719568
0.689821
0.727361
0.801537
0.86652
0.909096
0.935331
0.951871
0.962749
0.970212
0.975528
0.979441
0.982406
0.984713
0.986555
0.988071
0.989352
0.990455
0.991417
0.99226
0.992996
0.99363
0.994163
0.994595
0.994922
0.995143
0.995254
0.995537
0.995414
0.995173
0.994819
0.994354
0.993782
0.993104
0.992322
0.991432
0.990425
0.989283
0.987972
0.986437
0.98459
0.9823
0.979386
0.975576
0.970453
0.963354
0.953199
0.938186
0.915388
0.880752
0.83224
0.780933
0.756846
0.779361
0.830271
0.879203
0.914341
0.937495
0.952732
0.963029
0.970219
0.975404
0.979256
0.982201
0.984514
0.986378
0.987928
0.98925
0.990401
0.991414
0.992309
0.993094
0.993773
0.994346
0.99481
0.995162
0.995398
0.995517
0.995514
0.995391
0.99515
0.994793
0.994326
0.99375
0.993068
0.99228
0.991382
0.990366
0.989211
0.987883
0.986325
0.984447
0.982113
0.979137
0.975239
0.969985
0.962687
0.952219
0.936705
0.913111
0.877351
0.827917
0.777543
0.756953
0.782884
0.834598
0.882562
0.916582
0.938953
0.953698
0.963688
0.970683
0.975738
0.979503
0.982388
0.984657
0.98649
0.988017
0.989323
0.990461
0.991465
0.992352
0.993131
0.993806
0.994375
0.994836
0.995186
0.995421
0.995539
0.995772
0.99564
0.995382
0.995001
0.994499
0.993882
0.993151
0.99231
0.991357
0.990286
0.989083
0.987716
0.986135
0.984257
0.98196
0.979073
0.975341
0.970386
0.963625
0.954147
0.940535
0.920718
0.892367
0.855492
0.818973
0.802381
0.817869
0.854034
0.891126
0.919818
0.939909
0.953709
0.963312
0.970158
0.975171
0.978944
0.981863
0.984183
0.986079
0.987675
0.989053
0.990266
0.991344
0.992302
0.993146
0.993878
0.994495
0.994995
0.995373
0.995628
0.995755
0.995752
0.995619
0.99536
0.994977
0.994473
0.993852
0.993116
0.992269
0.991309
0.990229
0.989013
0.987629
0.986026
0.984117
0.981778
0.978831
0.975016
0.96994
0.962998
0.953248
0.939223
0.9188
0.889695
0.852346
0.816631
0.802454
0.820308
0.857194
0.893776
0.921711
0.941204
0.954596
0.963932
0.9706
0.975494
0.979184
0.982044
0.984323
0.986189
0.987762
0.989124
0.990325
0.991392
0.992343
0.993181
0.993909
0.994522
0.995019
0.995396
0.995649
0.995775
0.995982
0.995841
0.995563
0.995152
0.994611
0.993943
0.993151
0.992239
0.991209
0.990055
0.988767
0.987318
0.985661
0.983719
0.981377
0.978472
0.974766
0.969914
0.963401
0.954463
0.941992
0.924546
0.900973
0.872317
0.845647
0.833944
0.844861
0.871217
0.899965
0.923765
0.941418
0.95405
0.9631
0.96969
0.974598
0.978345
0.981281
0.983647
0.985609
0.987281
0.988743
0.990041
0.991201
0.992237
0.993151
0.993943
0.994611
0.99515
0.995557
0.99583
0.995966
0.995963
0.995821
0.995542
0.99513
0.994586
0.993914
0.993118
0.9922
0.991162
0.989999
0.988699
0.987233
0.985554
0.983581
0.981198
0.978236
0.974451
0.969485
0.962809
0.953633
0.940818
0.922914
0.89884
0.869976
0.843994
0.833997
0.846587
0.873577
0.902089
0.925382
0.942579
0.954871
0.963686
0.970115
0.974912
0.97858
0.98146
0.983785
0.985717
0.987368
0.988813
0.990098
0.991249
0.992277
0.993185
0.993973
0.994637
0.995173
0.995578
0.99585
0.995985
0.996181
0.99603
0.995733
0.995293
0.994711
0.99399
0.993134
0.992145
0.991027
0.989777
0.988386
0.986833
0.985074
0.983038
0.980621
0.977664
0.973944
0.969154
0.962843
0.95438
0.942927
0.927549
0.907794
0.885162
0.865215
0.856735
0.86464
0.884315
0.906968
0.926871
0.942407
0.953993
0.962554
0.968937
0.973779
0.977539
0.980528
0.98297
0.985025
0.986801
0.988367
0.989768
0.991025
0.992148
0.993139
0.993995
0.994715
0.995294
0.99573
0.996021
0.996166
0.996163
0.996012
0.995714
0.995271
0.994687
0.993963
0.993102
0.992107
0.990981
0.989721
0.988318
0.986748
0.984967
0.982902
0.980445
0.977432
0.973637
0.968742
0.962284
0.953615
0.941881
0.926156
0.906074
0.883386
0.864019
0.856774
0.865892
0.886111
0.908685
0.928254
0.943445
0.954752
0.963109
0.969346
0.974085
0.97777
0.980704
0.983107
0.985133
0.986886
0.988436
0.989824
0.991072
0.992187
0.993172
0.994024
0.994739
0.995316
0.99575
0.99604
0.996184
0.996377
0.996218
0.995903
0.995435
0.994814
0.994043
0.993122
0.992056
0.990846
0.989492
0.987987
0.986312
0.984432
0.982283
0.979769
0.976743
0.973001
0.968263
0.962144
0.954138
0.943632
0.93007
0.913458
0.895406
0.880233
0.873958
0.879804
0.894747
0.912781
0.929485
0.943165
0.953777
0.961869
0.968054
0.972842
0.976623
0.97968
0.98222
0.98439
0.986287
0.987974
0.989489
0.99085
0.992065
0.993132
0.994053
0.994822
0.995439
0.995902
0.996211
0.996364
0.996361
0.9962
0.995885
0.995414
0.994791
0.994016
0.993091
0.992019
0.990801
0.989437
0.987919
0.986228
0.984326
0.982148
0.979595
0.976517
0.972704
0.967869
0.961619
0.953435
0.942703
0.928886
0.912068
0.894044
0.879352
0.873987
0.880729
0.896129
0.914174
0.930665
0.944088
0.954475
0.962392
0.968446
0.973138
0.976849
0.979854
0.982355
0.984497
0.986372
0.988043
0.989546
0.990897
0.992103
0.993165
0.99408
0.994845
0.99546
0.995921
0.996229
0.996381
0.996577
0.996409
0.996079
0.995586
0.994932
0.994116
0.993139
0.992001
0.990705
0.989249
0.987629
0.985829
0.98382
0.981547
0.978926
0.975823
0.972053
0.967369
0.961452
0.953908
0.944318
0.932405
0.918452
0.903995
0.892338
0.887632
0.892016
0.903482
0.9179
0.931905
0.943903
0.953579
0.961196
0.967172
0.971902
0.975711
0.978845
0.981491
0.983785
0.985811
0.987624
0.989254
0.990716
0.992016
0.993154
0.99413
0.994943
0.995594
0.996081
0.996405
0.996566
0.996562
0.996394
0.996062
0.995567
0.99491
0.994091
0.993109
0.991965
0.990661
0.989195
0.987562
0.985746
0.983715
0.981415
0.978757
0.975604
0.971767
0.966996
0.960963
0.953271
0.943502
0.931405
0.917332
0.902947
0.891684
0.887654
0.892706
0.904549
0.919026
0.932905
0.944717
0.954214
0.961683
0.967544
0.972188
0.97593
0.979015
0.981625
0.983891
0.985896
0.987692
0.98931
0.990762
0.992053
0.993185
0.994157
0.994966
0.995613
0.996098
0.996421
0.996581
0.996785
0.996611
0.996268
0.995757
0.995077
0.994227
0.993205
0.99201
0.99064
0.989095
0.98737
0.985452
0.983319
0.980927
0.978203
0.975028
0.971241
0.966633
0.960948
0.953898
0.945221
0.934845
0.923198
0.911644
0.902664
0.899114
0.902423
0.911247
0.922754
0.934426
0.944861
0.953604
0.960716
0.966452
0.971103
0.974927
0.978132
0.980881
0.983293
0.985443
0.987373
0.989107
0.990658
0.99203
0.993225
0.994246
0.995092
0.995767
0.996272
0.996608
0.996775
0.996771
0.996596
0.996252
0.995739
0.995057
0.994203
0.993176
0.991975
0.990598
0.989043
0.987304
0.98537
0.983216
0.980798
0.978039
0.974818
0.97097
0.966284
0.9605
0.953328
0.944514
0.934011
0.922303
0.91084
0.902178
0.899131
0.902938
0.912068
0.923657
0.935262
0.945568
0.954173
0.961163
0.966801
0.971375
0.975138
0.978298
0.981012
0.983397
0.985526
0.98744
0.989162
0.990702
0.992066
0.993256
0.994271
0.995114
0.995786
0.996289
0.996623
0.996789
0.997002
0.996824
0.996475
0.995954
0.99526
0.99439
0.99334
0.992107
0.990687
0.989076
0.98727
0.985258
0.983024
0.980537
0.977734
0.974514
0.970744
0.966256
0.960858
0.954355
0.946615
0.937703
0.9281
0.918947
0.912064
0.909393
0.911886
0.918646
0.927751
0.937363
0.946314
0.954103
0.960655
0.966098
0.970624
0.974428
0.977676
0.980503
0.983009
0.985259
0.987282
0.989096
0.99071
0.992132
0.993365
0.994412
0.995278
0.995966
0.996481
0.996823
0.996993
0.996989
0.996811
0.99646
0.995937
0.995241
0.994367
0.993313
0.992073
0.990646
0.989025
0.987206
0.985179
0.982925
0.980413
0.977578
0.974316
0.970492
0.965937
0.960456
0.953857
0.946017
0.937023
0.927397
0.918339
0.911706
0.909407
0.912268
0.91927
0.928463
0.938048
0.946914
0.954601
0.961058
0.966418
0.970877
0.974627
0.977834
0.980629
0.98311
0.98534
0.987347
0.989148
0.990753
0.992167
0.993393
0.994436
0.995298
0.995984
0.996496
0.996837
0.997006
0.99723
0.997051
0.996702
0.99618
0.995486
0.994614
0.993558
0.992314
0.990876
0.989236
0.987389
0.985328
0.983039
0.980505
0.977673
0.974463
0.970773
0.966479
0.961448
0.95557
0.94881
0.941314
0.933548
0.926418
0.921215
0.919229
0.921087
0.926199
0.933286
0.941049
0.948569
0.955364
0.961281
0.966348
0.970676
0.974396
0.97763
0.980484
0.983035
0.985338
0.987409
0.989262
0.990905
0.992344
0.993587
0.994638
0.995506
0.996195
0.99671
0.997052
0.997223
0.997218
0.997039
0.996688
0.996165
0.995468
0.994593
0.993533
0.992283
0.990837
0.989188
0.987329
0.985253
0.982945
0.980388
0.977527
0.974281
0.970545
0.966194
0.961098
0.955148
0.948318
0.940774
0.933011
0.925968
0.920956
0.91924
0.921365
0.926662
0.933832
0.941594
0.949063
0.955788
0.961632
0.966634
0.970906
0.97458
0.977778
0.980602
0.983132
0.985416
0.987472
0.989313
0.990946
0.992377
0.993614
0.994661
0.995525
0.996211
0.996724
0.997065
0.997235
0.997469
0.997293
0.99695
0.99644
0.99576
0.994906
0.993871
0.99265
0.991232
0.989612
0.987781
0.985733
0.983459
0.980953
0.978173
0.975063
0.971548
0.96755
0.962993
0.957832
0.952101
0.94598
0.939875
0.934464
0.930622
0.929179
0.930535
0.934312
0.939689
0.945787
0.951921
0.957676
0.962865
0.967451
0.971476
0.975015
0.978148
0.980945
0.983467
0.985751
0.987807
0.989643
0.991265
0.992682
0.993902
0.994932
0.995781
0.996455
0.996959
0.997295
0.997463
0.997458
0.997282
0.996938
0.996426
0.995744
0.994887
0.993848
0.992621
0.991196
0.989567
0.987725
0.985663
0.983373
0.980847
0.978042
0.9749
0.971348
0.967306
0.962699
0.957488
0.951713
0.945568
0.939479
0.934142
0.930441
0.929187
0.930731
0.934645
0.940093
0.946204
0.952313
0.958022
0.963161
0.967698
0.971679
0.97518
0.978282
0.981054
0.983556
0.985824
0.987866
0.98969
0.991303
0.992713
0.993927
0.994953
0.995798
0.99647
0.996972
0.997307
0.997473
0.997718
0.997549
0.99722
0.996732
0.996083
0.995269
0.994284
0.993121
0.99177
0.990225
0.988476
0.98652
0.984351
0.981971
0.979351
0.976453
0.973237
0.969659
0.965691
0.961339
0.956672
0.951868
0.947249
0.943288
0.940545
0.93953
0.94049
0.94319
0.947127
0.951739
0.956549
0.961231
0.965604
0.969592
0.973191
0.976427
0.979341
0.981976
0.984368
0.986545
0.988507
0.990259
0.991805
0.993154
0.994315
0.995296
0.996105
0.996748
0.99723
0.997552
0.997713
0.997708
0.997539
0.997209
0.99672
0.996069
0.995252
0.994263
0.993094
0.991738
0.990184
0.988426
0.986458
0.984275
0.981878
0.979237
0.976315
0.973069
0.969459
0.965457
0.961072
0.95638
0.951569
0.946971
0.943068
0.940423
0.939536
0.940623
0.943419
0.947413
0.952044
0.956845
0.961501
0.965841
0.969795
0.973361
0.976568
0.979458
0.982072
0.984448
0.98661
0.98856
0.990301
0.991839
0.993182
0.994338
0.995314
0.99612
0.996761
0.997241
0.997562
0.997722
0.997976
0.997817
0.99751
0.997056
0.996454
0.995702
0.994795
0.993726
0.992488
0.991074
0.989478
0.987696
0.985727
0.983579
0.981233
0.978671
0.975877
0.972839
0.969561
0.966076
0.962465
0.958878
0.955547
0.952775
0.9509
0.950215
0.950867
0.952717
0.955474
0.9588
0.96239
0.966011
0.969509
0.972801
0.975854
0.978662
0.981236
0.983593
0.98575
0.987724
0.98951
0.991108
0.992522
0.993758
0.994825
0.995728
0.996476
0.997072
0.99752
0.997821
0.997972
0.997968
0.997809
0.997501
0.997045
0.996442
0.995687
0.994776
0.993703
0.992459
0.991038
0.989434
0.987642
0.985662
0.9835
0.981138
0.978558
0.975744
0.972684
0.969384
0.96588
0.962258
0.958673
0.955361
0.952632
0.950822
0.95022
0.950954
0.952868
0.955666
0.959011
0.962601
0.96621
0.969689
0.97296
0.97599
0.978778
0.981333
0.983674
0.985818
0.987781
0.989556
0.991146
0.992552
0.993783
0.994845
0.995745
0.996489
0.997084
0.99753
0.99783
0.99798
0.998241
0.998097
0.997819
0.997409
0.99687
0.996199
0.995394
0.994451
0.993366
0.992133
0.990749
0.989212
0.987526
0.985699
0.983724
0.981598
0.979321
0.976901
0.974358
0.971736
0.969106
0.966579
0.964305
0.962464
0.961244
0.960805
0.961228
0.962435
0.964267
0.966538
0.969067
0.971702
0.974333
0.976884
0.979314
0.981601
0.983735
0.985718
0.987551
0.989241
0.99078
0.992165
0.993398
0.994482
0.995422
0.996223
0.99689
0.997425
0.997829
0.998101
0.998238
0.998234
0.99809
0.997811
0.9974
0.996859
0.996186
0.995378
0.994432
0.993342
0.992103
0.990713
0.989169
0.987474
0.985637
0.98365
0.981511
0.979221
0.976787
0.974233
0.971601
0.968968
0.966447
0.964189
0.962377
0.961198
0.960808
0.961281
0.962528
0.964389
0.966675
0.969209
0.97184
0.974461
0.977001
0.979417
0.98169
0.983812
0.985783
0.987606
0.989288
0.990818
0.992197
0.993423
0.994503
0.995439
0.996237
0.996901
0.997434
0.997837
0.998108
0.998245
0.998512
0.998386
0.998143
0.997788
0.997323
0.996749
0.996066
0.995274
0.994369
0.993351
0.992219
0.990975
0.989622
0.988169
0.986617
0.984973
0.983246
0.981452
0.979616
0.977774
0.975982
0.974311
0.972848
0.971692
0.970939
0.970671
0.970932
0.971678
0.972831
0.974293
0.975965
0.977761
0.979607
0.981449
0.983249
0.984982
0.986631
0.988188
0.989644
0.991
0.992247
0.993379
0.994397
0.9953
0.99609
0.99677
0.99734
0.997801
0.998152
0.998389
0.998509
0.998506
0.99838
0.998136
0.99778
0.997314
0.996738
0.996053
0.995258
0.99435
0.993328
0.992191
0.990941
0.989582
0.988121
0.986562
0.98491
0.983175
0.981374
0.979532
0.977687
0.975896
0.97423
0.972779
0.971641
0.970913
0.970673
0.970962
0.971733
0.972904
0.974377
0.976055
0.97785
0.979693
0.98153
0.983323
0.985047
0.986689
0.988237
0.989687
0.991037
0.992277
0.993405
0.994418
0.995317
0.996105
0.996782
0.99735
0.997809
0.998159
0.998396
0.998515
0.998786
0.99868
0.998478
0.998184
0.997803
0.997337
0.996789
0.99616
0.99545
0.994662
0.993797
0.992857
0.991847
0.990774
0.989645
0.988468
0.987257
0.986026
0.984796
0.983595
0.982456
0.981421
0.980537
0.979851
0.979411
0.979256
0.979409
0.979846
0.98053
0.981415
0.98245
0.983591
0.984795
0.986028
0.987263
0.988478
0.989658
0.99079
0.991866
0.992877
0.993819
0.994685
0.995473
0.996181
0.996809
0.997355
0.997818
0.998196
0.998486
0.998684
0.998784
0.998781
0.998676
0.998473
0.998178
0.997796
0.997329
0.996779
0.996147
0.995435
0.994644
0.993775
0.992831
0.991818
0.99074
0.989606
0.988425
0.987209
0.985975
0.984743
0.983542
0.982405
0.981375
0.980498
0.979823
0.979397
0.979258
0.979426
0.979877
0.980571
0.981463
0.982504
0.983646
0.98485
0.986081
0.987312
0.988523
0.989698
0.990826
0.991896
0.992904
0.993841
0.994704
0.995489
0.996194
0.99682
0.997364
0.997826
0.998202
0.998491
0.998689
0.998789
0.999061
0.998978
0.99882
0.998592
0.9983
0.997947
0.997537
0.997073
0.996557
0.995993
0.995383
0.99473
0.994038
0.99331
0.992556
0.991784
0.991004
0.990228
0.989471
0.988747
0.988077
0.98748
0.98698
0.986599
0.986357
0.986273
0.986356
0.986597
0.986978
0.987479
0.988076
0.988747
0.989473
0.990232
0.99101
0.991792
0.992566
0.993322
0.994052
0.994745
0.995399
0.996009
0.996573
0.997088
0.997552
0.99796
0.998311
0.998602
0.998826
0.998981
0.99906
0.999058
0.998975
0.998816
0.998588
0.998295
0.997941
0.997529
0.997064
0.996546
0.99598
0.995368
0.994713
0.994018
0.993288
0.992531
0.991756
0.990975
0.990198
0.98944
0.988717
0.988048
0.987455
0.986959
0.986584
0.98635
0.986274
0.986365
0.986614
0.987001
0.987505
0.988106
0.988779
0.989505
0.990264
0.99104
0.99182
0.992592
0.993346
0.994072
0.994763
0.995414
0.996023
0.996585
0.997098
0.99756
0.997967
0.998317
0.998606
0.998831
0.998985
0.999064
0.999335
0.999276
0.999164
0.999004
0.998801
0.99856
0.998283
0.997975
0.997639
0.997278
0.996894
0.996489
0.996065
0.995623
0.995172
0.994718
0.994268
0.993829
0.993409
0.993015
0.992656
0.992343
0.992085
0.99189
0.991768
0.991726
0.991768
0.99189
0.992085
0.992343
0.992657
0.993016
0.993411
0.993832
0.994273
0.994724
0.995179
0.995631
0.996074
0.996498
0.996904
0.997288
0.99765
0.997986
0.998293
0.998569
0.998809
0.999011
0.999168
0.999278
0.999334
0.999333
0.999273
0.999161
0.999001
0.998798
0.998556
0.998278
0.99797
0.997632
0.99727
0.996884
0.996478
0.996053
0.99561
0.995157
0.994703
0.994252
0.993812
0.993392
0.992999
0.992642
0.99233
0.992075
0.991883
0.991764
0.991726
0.991772
0.991898
0.992096
0.992357
0.992672
0.993032
0.993428
0.99385
0.99429
0.99474
0.995194
0.995645
0.996086
0.996509
0.996914
0.997297
0.997657
0.997992
0.998299
0.998574
0.998813
0.999014
0.999171
0.99928
0.999337
0.999605
0.99957
0.999504
0.999411
0.999295
0.999158
0.999005
0.998836
0.998656
0.998466
0.998267
0.998061
0.997848
0.997626
0.997403
0.997181
0.996965
0.996757
0.996562
0.996382
0.99622
0.996081
0.995968
0.995883
0.99583
0.995812
0.99583
0.995883
0.995968
0.996081
0.996221
0.996382
0.996563
0.996759
0.996967
0.997184
0.997406
0.997631
0.997853
0.998066
0.998273
0.998472
0.998662
0.998842
0.99901
0.999164
0.9993
0.999415
0.999507
0.999571
0.999604
0.999604
0.999568
0.999503
0.99941
0.999293
0.999156
0.999002
0.998833
0.998653
0.998462
0.998263
0.998056
0.997842
0.99762
0.997395
0.997173
0.996957
0.99675
0.996554
0.996375
0.996214
0.996076
0.995963
0.99588
0.995829
0.995812
0.995832
0.995887
0.995973
0.996087
0.996228
0.99639
0.996571
0.996767
0.996975
0.997192
0.997414
0.997638
0.997859
0.998072
0.998278
0.998476
0.998666
0.998845
0.999013
0.999166
0.999302
0.999417
0.999509
0.999573
0.999606
0.999869
0.999857
0.999836
0.999806
0.99977
0.999727
0.99968
0.99963
0.999578
0.999523
0.999468
0.999411
0.999352
0.99929
0.999227
0.999166
0.999106
0.99905
0.998997
0.99895
0.998907
0.998871
0.998842
0.99882
0.998807
0.998802
0.998807
0.99882
0.998842
0.998871
0.998907
0.99895
0.998998
0.99905
0.999107
0.999166
0.999228
0.999291
0.999354
0.999412
0.999469
0.999525
0.999579
0.999632
0.999682
0.999729
0.999771
0.999808
0.999837
0.999858
0.999869
0.999868
0.999857
0.999836
0.999806
0.999769
0.999726
0.99968
0.999629
0.999577
0.999522
0.999466
0.99941
0.999351
0.999288
0.999225
0.999163
0.999104
0.999048
0.998995
0.998948
0.998905
0.99887
0.998841
0.998819
0.998806
0.998802
0.998807
0.998821
0.998843
0.998873
0.998909
0.998952
0.999
0.999053
0.999109
0.999169
0.99923
0.999293
0.999356
0.999414
0.999471
0.999526
0.99958
0.999633
0.999683
0.99973
0.999772
0.999808
0.999837
0.999858
0.999869
)
;

boundaryField
{
    top
    {
        type            calculated;
        value           uniform 1;
    }
    bottom
    {
        type            calculated;
        value           uniform 0.148957;
    }
    frontAndBack
    {
        type            empty;
    }
    left_cyc
    {
        type            cyclic;
    }
    right_cyc
    {
        type            cyclic;
    }
}


// ************************************************************************* //
