/*--------------------------------*- C++ -*----------------------------------*\
| =========                 |                                                 |
| \\      /  F ield         | OpenFOAM: The Open Source CFD Toolbox           |
|  \\    /   O peration     | Version:  2.3.0                                 |
|   \\  /    A nd           | Web:      www.OpenFOAM.org                      |
|    \\/     M anipulation  |                                                 |
\*---------------------------------------------------------------------------*/
FoamFile
{
    version     2.0;
    format      ascii;
    class       volScalarField;
    location    "22000";
    object      p_rgh;
}
// * * * * * * * * * * * * * * * * * * * * * * * * * * * * * * * * * * * * * //

dimensions      [0 2 -2 0 0 0 0];

internalField   nonuniform List<scalar> 
765
(
-1753.44
-1762.41
-1770.95
-1779.9
-1790.34
-1803.46
-1819.95
-1838.75
-1857.9
-1873.59
-1879.12
-1868.77
-1851.28
-1831.82
-1813.6
-1798.23
-1786.14
-1776.35
-1767.64
-1759.01
-1749.74
-1739.55
-1728.3
-1715.85
-1701.94
-1686.21
-1668.05
-1646.5
-1619.97
-1586.19
-1541.51
-1481.77
-1411.5
-1331.19
-1237.4
-1174.63
-1191.43
-1274.13
-1364.81
-1439.58
-1507.34
-1560.65
-1600.45
-1631.01
-1655.34
-1675.41
-1692.53
-1707.5
-1720.81
-1732.78
-1743.61
-1722.57
-1732.34
-1741.6
-1751
-1761.47
-1774.09
-1789.37
-1807.92
-1829.03
-1849.89
-1859.34
-1842.91
-1821.45
-1801.03
-1783.68
-1769.06
-1757.27
-1747.27
-1738
-1728.6
-1718.53
-1707.16
-1694.56
-1680.73
-1665.54
-1648.73
-1629.88
-1608.26
-1582.71
-1551.94
-1514.75
-1472.76
-1428.44
-1394.88
-1395.09
-1392.32
-1393.77
-1392.93
-1404.53
-1446.48
-1489.68
-1530.16
-1564.69
-1593.2
-1617.03
-1637.45
-1655.44
-1671.59
-1686.24
-1699.59
-1711.74
-1679.17
-1689.9
-1700.21
-1710.49
-1721.38
-1733.85
-1749.44
-1771.6
-1801.21
-1835.25
-1852.24
-1823.32
-1789.85
-1762.66
-1742.87
-1728.84
-1717.08
-1706.46
-1696.19
-1685.73
-1674.76
-1663.16
-1650.3
-1636.23
-1621.07
-1604.81
-1587.51
-1569.1
-1549.37
-1528.36
-1498.39
-1463.47
-1423.93
-1370.57
-1347.82
-1338.82
-1341.45
-1353.99
-1389.7
-1441.47
-1476.48
-1512.02
-1536.92
-1557.26
-1576.42
-1594.36
-1611.26
-1627.09
-1641.84
-1655.49
-1667.85
-1650.64
-1661.62
-1672.39
-1682.89
-1693.21
-1704.12
-1718.95
-1743.06
-1780.5
-1828.37
-1852.97
-1811.32
-1765.5
-1732.84
-1712.46
-1699.83
-1689.32
-1678.95
-1668.33
-1657.46
-1646.39
-1635.15
-1623.77
-1612.16
-1600.33
-1588.34
-1575.76
-1561.76
-1545.02
-1523.78
-1486.07
-1431.82
-1377.99
-1337.04
-1304.3
-1285.03
-1290.28
-1316.2
-1352.5
-1395.06
-1454.94
-1504.09
-1532.94
-1552.01
-1567.47
-1580.75
-1593
-1604.91
-1616.66
-1628.15
-1639.47
-1649.43
-1659.16
-1668.86
-1677.97
-1685.99
-1693.69
-1705.47
-1728.63
-1771.5
-1830.95
-1861.47
-1809.76
-1753.72
-1718.33
-1700.29
-1690.7
-1683.19
-1674.78
-1665.38
-1655.61
-1645.98
-1636.82
-1628.25
-1620.2
-1612.39
-1604.17
-1594.35
-1581.14
-1562.04
-1534.71
-1491.6
-1427.2
-1345.11
-1287.65
-1246.99
-1223.79
-1229.99
-1261.41
-1308.71
-1373.52
-1455.41
-1511.74
-1546.6
-1570.36
-1586.77
-1598.35
-1607.33
-1615.26
-1623.09
-1631.3
-1640.08
-1669.33
-1677.26
-1684.94
-1691.3
-1695.56
-1699.13
-1705.94
-1726.82
-1773.43
-1840.88
-1874.72
-1817.15
-1753.69
-1716.84
-1702.48
-1697.81
-1694.36
-1689.33
-1682.4
-1674.53
-1666.73
-1659.63
-1653.48
-1648.13
-1643.02
-1637.02
-1628.29
-1614.2
-1591.4
-1556.59
-1504.81
-1430.99
-1333.95
-1257.77
-1199.86
-1167.92
-1176.27
-1219.78
-1286.65
-1370.92
-1461.72
-1527.66
-1571.56
-1601.33
-1620.26
-1631.88
-1639.26
-1644.72
-1649.8
-1655.4
-1661.91
-1699.8
-1705.78
-1710.7
-1713.42
-1713.46
-1712.79
-1716.86
-1737.67
-1785.37
-1853.59
-1888.15
-1830
-1765.49
-1727.65
-1714.14
-1713.32
-1713.83
-1712.9
-1709.32
-1703.92
-1697.88
-1692.16
-1687.27
-1683.2
-1679.33
-1674.24
-1665.53
-1649.81
-1622.94
-1580.84
-1518.92
-1434.89
-1330.6
-1233.35
-1152.96
-1109.77
-1120.92
-1180.82
-1271.1
-1371.38
-1469.06
-1545.33
-1598.77
-1634.51
-1656.54
-1669.09
-1676.05
-1680.44
-1684.27
-1688.61
-1693.85
-1732.76
-1736.32
-1738.12
-1737.85
-1736.5
-1734.92
-1739.59
-1759.58
-1803.18
-1865.41
-1898.91
-1844.19
-1785.45
-1750.36
-1736.79
-1735.23
-1737.07
-1738.32
-1737.92
-1735.46
-1731.51
-1726.93
-1722.4
-1718.2
-1713.89
-1708
-1697.79
-1679.21
-1647.59
-1598.38
-1526.16
-1432.33
-1327.13
-1209.45
-1104.5
-1047.95
-1062.47
-1141.89
-1256.83
-1367.4
-1470.66
-1556.99
-1619.33
-1661.05
-1687.05
-1701.88
-1710.05
-1715.11
-1719.29
-1723.63
-1728.27
-1762.39
-1764.58
-1765.46
-1765.19
-1763.97
-1763.95
-1769.6
-1787.39
-1823.68
-1875.57
-1906.18
-1858.31
-1809.45
-1779.73
-1766.86
-1763.79
-1764.64
-1765.61
-1765.53
-1764.25
-1761.65
-1757.95
-1753.42
-1748.15
-1741.7
-1732.67
-1718.39
-1694.88
-1657.63
-1602
-1521.2
-1419.08
-1314.76
-1177.62
-1049.1
-978.755
-997.034
-1096.21
-1234.89
-1354.17
-1461.4
-1555.67
-1625.45
-1673.1
-1704.48
-1723.97
-1735.9
-1743.75
-1749.7
-1754.71
-1759.01
-1785.32
-1788.88
-1791.22
-1792.49
-1793.38
-1795.41
-1801.5
-1816.08
-1843.78
-1883.43
-1909.49
-1870.92
-1833.57
-1810.43
-1799.21
-1794.9
-1793.5
-1792.6
-1791.02
-1788.26
-1784.29
-1779.12
-1772.73
-1764.81
-1754.6
-1740.49
-1719.86
-1689.12
-1644.55
-1582.03
-1494.22
-1387.61
-1283.72
-1127.85
-979.681
-897.971
-919.395
-1033.24
-1189.32
-1319.18
-1430.56
-1530.5
-1607.6
-1662.33
-1701.19
-1727.68
-1745.55
-1758
-1767.27
-1774.6
-1780.56
-1787.07
-1795.39
-1802.52
-1808.56
-1813.85
-1819.25
-1826.53
-1838.56
-1858.56
-1886.55
-1906.93
-1878.63
-1852.08
-1834.76
-1824.57
-1818.13
-1812.87
-1807.36
-1800.95
-1793.4
-1784.64
-1774.62
-1763.3
-1749.79
-1733.23
-1711.83
-1683.07
-1643.92
-1591.89
-1523.44
-1430.59
-1315.01
-1208.15
-1046.23
-890.179
-802.418
-825.809
-944.642
-1109.98
-1252.33
-1360.71
-1467.58
-1550.47
-1611.73
-1658.67
-1693.59
-1719.33
-1738.72
-1754.01
-1766.65
-1777.5
-1732.91
-1750.57
-1766.81
-1781.75
-1795.47
-1808.22
-1820.71
-1834.36
-1851.03
-1871.16
-1886.1
-1866.46
-1846.72
-1830.97
-1817.76
-1805.19
-1792.08
-1777.9
-1762.48
-1745.72
-1727.5
-1707.71
-1686.49
-1664.29
-1639.08
-1609.2
-1572.46
-1525.78
-1466.05
-1387.75
-1291.02
-1180.87
-1075.69
-921.772
-777.577
-691.749
-715.293
-828.355
-983.237
-1119.41
-1220.69
-1328.59
-1418.81
-1488.47
-1542.94
-1585.47
-1619.4
-1647.39
-1671.41
-1693.04
-1713.72
-1549.69
-1579.05
-1606.53
-1632.47
-1657.11
-1680.51
-1702.71
-1723.87
-1744.26
-1763.33
-1774.9
-1759.47
-1739.47
-1718.61
-1696.96
-1674.22
-1650.29
-1625.13
-1598.62
-1570.47
-1540.32
-1508.05
-1474.46
-1441.3
-1409.04
-1372.78
-1331.07
-1280
-1216.49
-1134.79
-1043.2
-965.833
-882.518
-764.644
-649.876
-576.328
-596.979
-691.094
-810.614
-917.068
-991.163
-1073.42
-1166.96
-1239.56
-1298.61
-1345.49
-1384.81
-1419.37
-1451.58
-1484.99
-1518.2
-1151.68
-1185.75
-1218.33
-1249.56
-1279.39
-1307.49
-1333.41
-1356.7
-1377
-1393.4
-1401.17
-1390.17
-1372.2
-1350.75
-1326.42
-1299.6
-1270.77
-1240.34
-1208.57
-1175.43
-1140.69
-1104.03
-1065.72
-1026.26
-985.565
-944.944
-901.114
-852.711
-803.536
-754.634
-706.727
-664.16
-607.901
-529.4
-450.174
-397.022
-412.226
-479.114
-560.177
-631.631
-678.092
-723.391
-772.293
-820.24
-869.905
-916.678
-958.869
-999.142
-1039.12
-1078.07
-1115.78
-427.466
-458.232
-489.707
-521.98
-555.141
-589.101
-623.37
-656.733
-686.76
-709.273
-717.171
-704.11
-678.486
-646.899
-612.913
-578.545
-544.723
-511.773
-479.7
-448.392
-417.784
-387.846
-358.143
-329.172
-304.075
-284.635
-272.463
-269.569
-279.597
-306.879
-353.042
-408.389
-457.796
-486.424
-495.955
-493.119
-494.84
-494.129
-477.423
-440.507
-385.866
-333.921
-294.329
-273.658
-269.058
-275.293
-290.374
-311.723
-338.294
-367.747
-397.386
)
;

boundaryField
{
    top
    {
        type            fixedValue;
        value           uniform 0;
    }
    bottom
    {
        type            fixedFluxPressure;
        gradient        uniform 0;
        value           nonuniform List<scalar> 
51
(
-1753.44
-1762.41
-1770.95
-1779.9
-1790.34
-1803.46
-1819.95
-1838.75
-1857.9
-1873.59
-1879.12
-1868.77
-1851.28
-1831.82
-1813.6
-1798.23
-1786.14
-1776.35
-1767.64
-1759.01
-1749.74
-1739.55
-1728.3
-1715.85
-1701.94
-1686.21
-1668.05
-1646.5
-1619.97
-1586.19
-1541.51
-1481.77
-1411.5
-1331.19
-1237.4
-1174.63
-1191.43
-1274.13
-1364.81
-1439.58
-1507.34
-1560.65
-1600.45
-1631.01
-1655.34
-1675.41
-1692.53
-1707.5
-1720.81
-1732.78
-1743.61
)
;
    }
    frontAndBack
    {
        type            empty;
    }
    left_cyc
    {
        type            cyclic;
    }
    right_cyc
    {
        type            cyclic;
    }
}


// ************************************************************************* //
