/*--------------------------------*- C++ -*----------------------------------*\
| =========                 |                                                 |
| \\      /  F ield         | OpenFOAM: The Open Source CFD Toolbox           |
|  \\    /   O peration     | Version:  2.3.0                                 |
|   \\  /    A nd           | Web:      www.OpenFOAM.org                      |
|    \\/     M anipulation  |                                                 |
\*---------------------------------------------------------------------------*/
FoamFile
{
    version     2.0;
    format      ascii;
    class       surfaceScalarField;
    location    "22000";
    object      phi;
}
// * * * * * * * * * * * * * * * * * * * * * * * * * * * * * * * * * * * * * //

dimensions      [0 3 -1 0 0 0 0];

internalField   nonuniform List<scalar> 
5988
(
3.62429e-08
-3.18049e-08
6.74984e-08
-3.12554e-08
9.77442e-08
-3.02458e-08
1.26553e-07
-2.88087e-08
1.53539e-07
-2.69863e-08
1.78368e-07
-2.48284e-08
2.00756e-07
-2.23886e-08
2.20472e-07
-1.97157e-08
2.37311e-07
-1.68392e-08
2.51059e-07
-1.37485e-08
2.61436e-07
-1.03766e-08
2.68035e-07
-6.59915e-09
2.70294e-07
-2.25911e-09
2.67521e-07
2.77282e-09
2.59033e-07
8.48853e-09
2.44424e-07
1.46085e-08
2.23849e-07
2.05759e-08
1.98128e-07
2.57208e-08
1.6884e-07
2.92879e-08
1.38023e-07
3.08169e-08
1.07614e-07
3.04087e-08
7.91393e-08
2.84751e-08
5.33119e-08
2.58273e-08
2.99587e-08
2.33532e-08
8.25559e-09
2.17031e-08
-1.2958e-08
2.12136e-08
-3.49287e-08
2.19707e-08
-5.87677e-08
2.3839e-08
-8.51831e-08
2.64154e-08
-1.14165e-07
2.89822e-08
-1.44802e-07
3.06364e-08
-1.75431e-07
3.06293e-08
-2.04068e-07
2.86374e-08
-2.28721e-07
2.46527e-08
-2.47971e-07
1.92504e-08
-2.61153e-07
1.31818e-08
-2.68251e-07
7.09747e-09
-2.69757e-07
1.5062e-09
-2.6638e-07
-3.37717e-09
-2.58791e-07
-7.58893e-09
-2.47518e-07
-1.12726e-08
-2.32937e-07
-1.45811e-08
-2.15311e-07
-1.76261e-08
-1.94851e-07
-2.04602e-08
-1.71768e-07
-2.30828e-08
-1.4631e-07
-2.54579e-08
-1.18776e-07
-2.75346e-08
-8.95156e-08
-2.92601e-08
-5.89293e-08
-3.05863e-08
-2.74556e-08
-3.14737e-08
4.43649e-09
-3.18921e-08
3.62605e-08
-3.1824e-08
6.75335e-08
-3.1273e-08
9.77937e-08
-3.02603e-08
1.26612e-07
-2.88187e-08
1.53603e-07
-2.69905e-08
1.78428e-07
-2.48255e-08
2.00805e-07
-2.23769e-08
2.20498e-07
-1.9693e-08
2.373e-07
-1.68021e-08
2.50992e-07
-1.36918e-08
2.61285e-07
-1.02924e-08
2.67763e-07
-6.47802e-09
2.69854e-07
-2.09137e-09
2.66861e-07
2.99273e-09
2.58107e-07
8.75466e-09
2.43209e-07
1.48971e-08
2.22359e-07
2.085e-08
1.96424e-07
2.59357e-08
1.67022e-07
2.94021e-08
1.362e-07
3.0822e-08
1.05884e-07
3.03156e-08
7.75631e-08
2.8321e-08
5.1899e-08
2.56641e-08
2.86729e-08
2.32261e-08
7.03347e-09
2.16395e-08
-1.41908e-08
2.12243e-08
-3.62449e-08
2.20541e-08
-6.02248e-08
2.398e-08
-8.68062e-08
2.65814e-08
-1.1593e-07
2.91241e-08
-1.46635e-07
3.07048e-08
-1.7723e-07
3.05953e-08
-2.05723e-07
2.84924e-08
-2.30139e-07
2.44164e-08
-2.49107e-07
1.89678e-08
-2.62002e-07
1.28953e-08
-2.68844e-07
6.84203e-09
-2.70145e-07
1.30022e-09
-2.66613e-07
-3.53178e-09
-2.58913e-07
-7.69946e-09
-2.47564e-07
-1.1349e-08
-2.32932e-07
-1.46325e-08
-2.15272e-07
-1.76595e-08
-1.94792e-07
-2.04804e-08
-1.71699e-07
-2.30926e-08
-1.4624e-07
-2.54593e-08
-1.18711e-07
-2.75292e-08
-8.94617e-08
-2.92492e-08
-5.88904e-08
-3.05713e-08
-2.74347e-08
-3.14558e-08
-3.18728e-08
5.478e-08
-7.98899e-08
1.0248e-07
-7.89559e-08
1.49474e-07
-7.72389e-08
1.95463e-07
-7.47979e-08
2.40176e-07
-7.16992e-08
2.83341e-07
-6.79936e-08
3.24644e-07
-6.36917e-08
3.63673e-07
-5.8745e-08
3.99872e-07
-5.30376e-08
4.3251e-07
-4.63869e-08
4.6068e-07
-3.85465e-08
4.83287e-07
-2.9206e-08
4.99031e-07
-1.80026e-08
5.06378e-07
-4.57441e-09
5.0363e-07
1.12367e-08
4.89217e-07
2.90211e-08
4.6213e-07
4.76632e-08
4.22401e-07
6.54496e-08
3.71766e-07
7.99221e-08
3.13648e-07
8.89351e-08
2.51965e-07
9.20922e-08
1.90308e-07
9.0132e-08
1.31022e-07
8.51131e-08
7.47644e-08
7.96108e-08
2.07793e-08
7.56883e-08
-3.24995e-08
7.44924e-08
-8.68574e-08
7.63286e-08
-1.43736e-07
8.07177e-08
-2.03627e-07
8.63062e-08
-2.65503e-07
9.08581e-08
-3.26682e-07
9.18151e-08
-3.83407e-07
8.73543e-08
-4.31792e-07
7.70229e-08
-4.68697e-07
6.15579e-08
-4.92813e-07
4.33662e-08
-5.04394e-07
2.47624e-08
-5.04612e-07
7.31588e-09
-4.95108e-07
-7.99821e-09
-4.77561e-07
-2.09234e-08
-4.53457e-07
-3.16933e-08
-4.2405e-07
-4.06794e-08
-3.90396e-07
-4.82354e-08
-3.53364e-07
-5.46575e-08
-3.13647e-07
-6.01778e-08
-2.71766e-07
-6.4964e-08
-2.28107e-07
-6.91166e-08
-1.82972e-07
-7.26691e-08
-1.36633e-07
-7.55994e-08
-8.93681e-08
-7.78513e-08
-4.14826e-08
-7.93592e-08
6.69467e-09
-8.00694e-08
5.48249e-08
-7.99542e-08
1.0257e-07
-7.90184e-08
1.49608e-07
-7.72976e-08
1.9564e-07
-7.48506e-08
2.40392e-07
-7.17428e-08
2.8359e-07
-6.80235e-08
3.24914e-07
-6.37009e-08
3.63944e-07
-5.87235e-08
4.00114e-07
-5.29719e-08
4.32683e-07
-4.62603e-08
4.60729e-07
-3.83388e-08
4.83145e-07
-2.88939e-08
4.98615e-07
-1.75611e-08
5.0559e-07
-3.98248e-09
5.02365e-07
1.19798e-08
4.87387e-07
2.9875e-08
4.59687e-07
4.85496e-08
4.19375e-07
6.62475e-08
3.68298e-07
8.04799e-08
3.09937e-07
8.91824e-08
2.48221e-07
9.20314e-08
1.86695e-07
8.98478e-08
1.27611e-07
8.47477e-08
7.15343e-08
7.93028e-08
1.76451e-08
7.55286e-08
-3.56501e-08
7.45195e-08
-9.01324e-08
7.65363e-08
-1.47206e-07
8.10538e-08
-2.07289e-07
8.66645e-08
-2.69257e-07
9.10921e-08
-3.30348e-07
9.1795e-08
-3.86773e-07
8.70208e-08
-4.34665e-07
7.63846e-08
-4.70968e-07
6.07196e-08
-4.94478e-07
4.24776e-08
-5.05514e-07
2.39308e-08
-5.05282e-07
6.6106e-09
-4.95433e-07
-8.54913e-09
-4.77636e-07
-2.13284e-08
-4.5336e-07
-3.19756e-08
-4.23845e-07
-4.0864e-08
-3.90133e-07
-4.83449e-08
-3.53081e-07
-5.47109e-08
-3.13371e-07
-6.01911e-08
-2.71514e-07
-6.49496e-08
-2.27889e-07
-6.90835e-08
-1.82795e-07
-7.26236e-08
-1.36498e-07
-7.55456e-08
-8.92777e-08
-7.7792e-08
-4.14372e-08
-7.92964e-08
-8.00049e-08
6.13804e-08
-1.33767e-07
1.14754e-07
-1.3233e-07
1.67184e-07
-1.29669e-07
2.18232e-07
-1.25846e-07
2.67455e-07
-1.20922e-07
3.14394e-07
-1.14933e-07
3.58571e-07
-1.07869e-07
3.99478e-07
-9.96517e-08
4.36584e-07
-9.01435e-08
4.6935e-07
-7.91528e-08
4.97254e-07
-6.64504e-08
5.19828e-07
-5.17807e-08
5.36702e-07
-3.48761e-08
5.47592e-07
-1.54646e-08
5.52054e-07
6.77531e-09
5.48779e-07
3.22956e-08
5.35111e-07
6.13311e-08
5.07837e-07
9.2724e-08
4.64705e-07
1.23054e-07
4.06017e-07
1.47623e-07
3.35643e-07
1.62467e-07
2.59278e-07
1.66497e-07
1.81519e-07
1.62872e-07
1.04741e-07
1.56389e-07
2.92906e-08
1.51138e-07
-4.56837e-08
1.49467e-07
-1.21361e-07
1.52006e-07
-1.98409e-07
1.57765e-07
-2.76091e-07
1.63989e-07
-3.51527e-07
1.66294e-07
-4.19723e-07
1.60011e-07
-4.75082e-07
1.42713e-07
-5.1451e-07
1.16451e-07
-5.38402e-07
8.54504e-08
-5.49367e-07
5.43306e-08
-5.50618e-07
2.60136e-08
-5.44532e-07
1.22998e-09
-5.32151e-07
-2.03793e-08
-5.13838e-07
-3.92362e-08
-4.89889e-07
-5.56424e-08
-4.60702e-07
-6.98666e-08
-4.26763e-07
-8.21744e-08
-3.88604e-07
-9.28164e-08
-3.46767e-07
-1.02014e-07
-3.01783e-07
-1.09949e-07
-2.54154e-07
-1.16745e-07
-2.04358e-07
-1.22465e-07
-1.52851e-07
-1.27106e-07
-1.00078e-07
-1.30624e-07
-4.64797e-08
-1.32958e-07
7.50151e-09
-1.34051e-07
6.1421e-08
-1.33874e-07
1.14835e-07
-1.32432e-07
1.673e-07
-1.29763e-07
2.18376e-07
-1.25927e-07
2.67617e-07
-1.20983e-07
3.1456e-07
-1.14967e-07
3.58722e-07
-1.07863e-07
3.9959e-07
-9.95918e-08
4.3663e-07
-9.00123e-08
4.693e-07
-7.89303e-08
4.97077e-07
-6.61152e-08
5.19493e-07
-5.13106e-08
5.36182e-07
-3.42495e-08
5.4686e-07
-1.46608e-08
5.51059e-07
7.78063e-09
5.47404e-07
3.353e-08
5.33173e-07
6.27812e-08
5.05159e-07
9.42616e-08
4.61209e-07
1.24429e-07
4.01813e-07
1.48579e-07
3.31025e-07
1.62819e-07
2.54542e-07
1.66331e-07
1.76847e-07
1.62443e-07
1.00183e-07
1.55966e-07
2.48049e-08
1.50907e-07
-5.01821e-08
1.49507e-07
-1.2595e-07
1.52304e-07
-2.0311e-07
1.58214e-07
-2.8082e-07
1.64374e-07
-3.56062e-07
1.66335e-07
-4.23754e-07
1.59487e-07
-4.78351e-07
1.41617e-07
-5.16966e-07
1.15e-07
-5.4016e-07
8.39139e-08
-5.50614e-07
5.29308e-08
-5.51525e-07
2.4842e-08
-5.45195e-07
2.81034e-10
-5.3261e-07
-2.11343e-08
-5.14119e-07
-3.98198e-08
-4.90019e-07
-5.60754e-08
-4.60712e-07
-7.01708e-08
-4.26685e-07
-8.2372e-08
-3.88468e-07
-9.29284e-08
-3.46599e-07
-1.0206e-07
-3.01604e-07
-1.09945e-07
-2.53982e-07
-1.16705e-07
-2.04207e-07
-1.22399e-07
-1.5273e-07
-1.27022e-07
-9.99938e-08
-1.30528e-07
-4.64358e-08
-1.32854e-07
-1.33944e-07
6.41916e-08
-1.90109e-07
1.19887e-07
-1.88025e-07
1.7437e-07
-1.84152e-07
2.27081e-07
-1.78557e-07
2.77462e-07
-1.71303e-07
3.24964e-07
-1.62435e-07
3.69047e-07
-1.51952e-07
4.09196e-07
-1.39801e-07
4.44927e-07
-1.25875e-07
4.758e-07
-1.10026e-07
5.01428e-07
-9.20792e-08
5.21491e-07
-7.18433e-08
5.35727e-07
-4.91119e-08
5.43905e-07
-2.36427e-08
5.45769e-07
4.91116e-09
5.41034e-07
3.70307e-08
5.29386e-07
7.29794e-08
5.09923e-07
1.12187e-07
4.79778e-07
1.53198e-07
4.34428e-07
1.92974e-07
3.71742e-07
2.25152e-07
2.94813e-07
2.43426e-07
2.10094e-07
2.47591e-07
1.22566e-07
2.43918e-07
3.44755e-08
2.39229e-07
-5.36309e-08
2.37573e-07
-1.41657e-07
2.40033e-07
-2.288e-07
2.44908e-07
-3.12264e-07
2.47453e-07
-3.86499e-07
2.40529e-07
-4.4534e-07
2.18852e-07
-4.86907e-07
1.8428e-07
-5.14217e-07
1.4376e-07
-5.31696e-07
1.02929e-07
-5.41666e-07
6.43015e-08
-5.44796e-07
2.91436e-08
-5.41378e-07
-2.18794e-09
-5.31697e-07
-3.00613e-08
-5.15998e-07
-5.49351e-08
-4.94516e-07
-7.71238e-08
-4.67527e-07
-9.68558e-08
-4.35369e-07
-1.14332e-07
-3.98446e-07
-1.2974e-07
-3.57211e-07
-1.43249e-07
-3.1216e-07
-1.55e-07
-2.6382e-07
-1.65086e-07
-2.12735e-07
-1.73549e-07
-1.59463e-07
-1.80378e-07
-1.04565e-07
-1.85523e-07
-4.86058e-08
-1.88917e-07
7.84563e-09
-1.90502e-07
6.42175e-08
-1.90246e-07
1.19939e-07
-1.88153e-07
1.74442e-07
-1.84266e-07
2.27162e-07
-1.78647e-07
2.7754e-07
-1.71361e-07
3.2502e-07
-1.62447e-07
3.69062e-07
-1.51905e-07
4.09147e-07
-1.39677e-07
4.4479e-07
-1.25655e-07
4.75548e-07
-1.09689e-07
5.01037e-07
-9.16041e-08
5.20935e-07
-7.1209e-08
5.34984e-07
-4.82979e-08
5.4295e-07
-2.26272e-08
5.44576e-07
6.15501e-09
5.39575e-07
3.85308e-08
5.27625e-07
7.47313e-08
5.07754e-07
1.14132e-07
4.76957e-07
1.55226e-07
4.30721e-07
1.94815e-07
3.67166e-07
2.26374e-07
2.89686e-07
2.43811e-07
2.04758e-07
2.47371e-07
1.17199e-07
2.43525e-07
2.91218e-08
2.38984e-07
-5.89879e-08
2.37616e-07
-1.47025e-07
2.40341e-07
-2.34105e-07
2.45294e-07
-3.17278e-07
2.47547e-07
-3.90854e-07
2.39911e-07
-4.48786e-07
2.17419e-07
-4.89513e-07
1.82344e-07
-5.16249e-07
1.41736e-07
-5.33361e-07
1.01026e-07
-5.43043e-07
6.26126e-08
-5.45914e-07
2.77133e-08
-5.42265e-07
-3.3682e-09
-5.32378e-07
-3.10214e-08
-5.16497e-07
-5.57004e-08
-4.94858e-07
-7.77152e-08
-4.67735e-07
-9.72938e-08
-4.35469e-07
-1.14638e-07
-3.98463e-07
-1.29935e-07
-3.57169e-07
-1.43353e-07
-3.12082e-07
-1.55031e-07
-2.63726e-07
-1.65062e-07
-2.12641e-07
-1.73484e-07
-1.59381e-07
-1.80282e-07
-1.04504e-07
-1.85405e-07
-4.85721e-08
-1.88786e-07
-1.90365e-07
6.47381e-08
-2.46929e-07
1.20805e-07
-2.44091e-07
1.75464e-07
-2.38812e-07
2.28075e-07
-2.31167e-07
2.78013e-07
-2.21241e-07
3.24681e-07
-2.09103e-07
3.67519e-07
-1.94789e-07
4.06009e-07
-1.78291e-07
4.39692e-07
-1.59557e-07
4.68163e-07
-1.38497e-07
4.91076e-07
-1.14992e-07
5.08136e-07
-8.89035e-08
5.19095e-07
-6.0071e-08
5.23751e-07
-2.82987e-08
5.21995e-07
6.66695e-09
5.13918e-07
4.51076e-08
4.99786e-07
8.71114e-08
4.79659e-07
1.32314e-07
4.52916e-07
1.79941e-07
4.17485e-07
2.28404e-07
3.68627e-07
2.7401e-07
3.02203e-07
3.09849e-07
2.20583e-07
3.29211e-07
1.305e-07
3.34001e-07
3.69585e-08
3.3277e-07
-5.73496e-08
3.31881e-07
-1.50392e-07
3.33075e-07
-2.391e-07
3.33616e-07
-3.1786e-07
3.26213e-07
-3.80285e-07
3.02954e-07
-4.25603e-07
2.6417e-07
-4.58736e-07
2.17413e-07
-4.83827e-07
1.68851e-07
-5.02512e-07
1.21614e-07
-5.15219e-07
7.70082e-08
-5.21797e-07
3.57221e-08
-5.22e-07
-1.98512e-09
-5.1579e-07
-3.62713e-08
-5.03306e-07
-6.74196e-08
-4.84762e-07
-9.56675e-08
-4.60419e-07
-1.21199e-07
-4.30585e-07
-1.44166e-07
-3.95623e-07
-1.64703e-07
-3.55952e-07
-1.8292e-07
-3.1205e-07
-1.98901e-07
-2.6445e-07
-2.12686e-07
-2.13727e-07
-2.24273e-07
-1.60489e-07
-2.33616e-07
-1.05368e-07
-2.40643e-07
-4.90146e-08
-2.4527e-07
7.9121e-09
-2.47429e-07
6.47462e-08
-2.4708e-07
1.20823e-07
-2.4423e-07
1.75485e-07
-2.38928e-07
2.28087e-07
-2.3125e-07
2.78003e-07
-2.21276e-07
3.24631e-07
-2.09075e-07
3.67408e-07
-1.94681e-07
4.05816e-07
-1.78085e-07
4.39393e-07
-1.59232e-07
4.67734e-07
-1.3803e-07
4.90494e-07
-1.14364e-07
5.07377e-07
-8.80924e-08
5.18137e-07
-5.90574e-08
5.22573e-07
-2.7063e-08
5.20583e-07
8.14486e-09
5.1227e-07
4.68431e-08
4.97903e-07
8.90985e-08
4.77515e-07
1.3452e-07
4.50434e-07
1.82307e-07
4.14464e-07
2.30786e-07
3.64731e-07
2.76107e-07
2.97361e-07
3.11182e-07
2.15124e-07
3.29608e-07
1.24775e-07
3.33874e-07
3.11503e-08
3.32609e-07
-6.31458e-08
3.31912e-07
-1.56067e-07
3.33262e-07
-2.44429e-07
3.33655e-07
-3.22456e-07
3.25574e-07
-3.83911e-07
3.01366e-07
-4.2844e-07
2.61948e-07
-4.61106e-07
2.15011e-07
-4.85889e-07
1.66518e-07
-5.04324e-07
1.19461e-07
-5.16796e-07
7.5085e-08
-5.23138e-07
3.40553e-08
-5.23109e-07
-3.39721e-09
-5.16684e-07
-3.7447e-08
-5.04005e-07
-6.8379e-08
-4.8529e-07
-9.64301e-08
-4.608e-07
-1.21784e-07
-4.30842e-07
-1.44595e-07
-3.95779e-07
-1.64997e-07
-3.56031e-07
-1.83101e-07
-3.12074e-07
-1.98988e-07
-2.64438e-07
-2.12698e-07
-2.13696e-07
-2.24226e-07
-1.60452e-07
-2.33526e-07
-1.05336e-07
-2.40521e-07
-4.89939e-08
-2.45128e-07
-2.47277e-07
6.35086e-08
-3.02668e-07
1.18421e-07
-2.99004e-07
1.71795e-07
-2.92185e-07
2.22936e-07
-2.82309e-07
2.71184e-07
-2.69489e-07
3.15919e-07
-2.53838e-07
3.56572e-07
-2.35442e-07
3.92636e-07
-2.14356e-07
4.23673e-07
-1.90594e-07
4.49308e-07
-1.64132e-07
4.6923e-07
-1.34915e-07
4.83187e-07
-1.0286e-07
4.90977e-07
-6.7861e-08
4.92466e-07
-2.9788e-08
4.8763e-07
1.15034e-08
4.76616e-07
5.61214e-08
4.59737e-07
1.03991e-07
4.37336e-07
1.54715e-07
4.09673e-07
2.07605e-07
3.76473e-07
2.61604e-07
3.35669e-07
3.14815e-07
2.82454e-07
3.63064e-07
2.12524e-07
3.99141e-07
1.28388e-07
4.18137e-07
3.67232e-08
4.24434e-07
-5.68297e-08
4.25434e-07
-1.47359e-07
4.23604e-07
-2.28877e-07
4.15134e-07
-2.9503e-07
3.92367e-07
-3.44939e-07
3.52863e-07
-3.8369e-07
3.0292e-07
-4.15506e-07
2.49229e-07
-4.41937e-07
1.95283e-07
-4.63052e-07
1.42729e-07
-4.78559e-07
9.25154e-08
-4.8811e-07
4.52731e-08
-4.91421e-07
1.32554e-09
-4.88387e-07
-3.93057e-08
-4.79063e-07
-7.67432e-08
-4.63603e-07
-1.11128e-07
-4.42221e-07
-1.42581e-07
-4.15185e-07
-1.71202e-07
-3.82822e-07
-1.97065e-07
-3.45526e-07
-2.20217e-07
-3.03756e-07
-2.40671e-07
-2.58037e-07
-2.58404e-07
-2.08956e-07
-2.73354e-07
-1.57148e-07
-2.85424e-07
-1.03288e-07
-2.94503e-07
-4.80778e-08
-3.00481e-07
7.76105e-09
-3.03268e-07
6.34983e-08
-3.02817e-07
1.18405e-07
-2.99137e-07
1.71765e-07
-2.92288e-07
2.22881e-07
-2.82366e-07
2.7109e-07
-2.69485e-07
3.15768e-07
-2.53753e-07
3.56345e-07
-2.35259e-07
3.92313e-07
-2.14053e-07
4.23232e-07
-1.9015e-07
4.48727e-07
-1.63526e-07
4.68488e-07
-1.34125e-07
4.82262e-07
-1.01866e-07
4.89849e-07
-6.66451e-08
4.9112e-07
-2.83336e-08
4.86055e-07
1.32096e-08
4.74814e-07
5.80845e-08
4.57713e-07
1.06199e-07
4.35097e-07
1.57137e-07
4.07212e-07
2.10191e-07
3.73724e-07
2.64274e-07
3.32419e-07
3.17411e-07
2.78358e-07
3.65242e-07
2.0751e-07
4.00456e-07
1.22788e-07
4.18597e-07
3.08934e-08
4.24503e-07
-6.26239e-08
4.2543e-07
-1.52836e-07
4.23474e-07
-2.33653e-07
4.14473e-07
-2.98861e-07
3.90781e-07
-3.48017e-07
3.50522e-07
-3.86342e-07
3.00274e-07
-4.17899e-07
2.46568e-07
-4.44113e-07
1.92732e-07
-4.6501e-07
1.40359e-07
-4.80294e-07
9.03688e-08
-4.89616e-07
4.33771e-08
-4.92699e-07
-3.13749e-10
-4.8945e-07
-4.06969e-08
-4.79928e-07
-7.79006e-08
-4.6429e-07
-1.12068e-07
-4.42751e-07
-1.43323e-07
-4.1558e-07
-1.71766e-07
-3.83105e-07
-1.97472e-07
-3.45717e-07
-2.20489e-07
-3.03876e-07
-2.4083e-07
-2.58105e-07
-2.58469e-07
-2.08988e-07
-2.73343e-07
-1.57158e-07
-2.85356e-07
-1.03286e-07
-2.94393e-07
-4.80709e-08
-3.00343e-07
-3.03118e-07
6.08249e-08
-3.56051e-07
1.13339e-07
-3.51518e-07
1.64237e-07
-3.43084e-07
2.12803e-07
-3.30874e-07
2.58359e-07
-3.15046e-07
3.00283e-07
-2.95761e-07
3.38014e-07
-2.73173e-07
3.71063e-07
-2.47406e-07
3.99018e-07
-2.18548e-07
4.21537e-07
-1.86651e-07
4.38348e-07
-1.51726e-07
4.49244e-07
-1.13756e-07
4.54081e-07
-7.26984e-08
4.52794e-07
-2.85012e-08
4.45425e-07
1.88732e-08
4.32154e-07
6.93915e-08
4.13295e-07
1.2285e-07
3.89216e-07
1.78794e-07
3.60296e-07
2.36525e-07
3.26824e-07
2.95076e-07
2.88542e-07
3.53096e-07
2.43311e-07
4.08295e-07
1.86502e-07
4.55951e-07
1.15257e-07
4.89382e-07
3.34029e-08
5.06289e-07
-5.1525e-08
5.10362e-07
-1.31632e-07
5.03712e-07
-1.99774e-07
4.83275e-07
-2.53564e-07
4.46157e-07
-2.9689e-07
3.96189e-07
-3.33968e-07
3.39998e-07
-3.66378e-07
2.81639e-07
-3.94183e-07
2.23088e-07
-4.17052e-07
1.65598e-07
-4.34604e-07
1.10067e-07
-4.46477e-07
5.71462e-08
-4.52384e-07
7.23206e-09
-4.52175e-07
-3.95143e-08
-4.45838e-07
-8.30803e-08
-4.33459e-07
-1.23507e-07
-4.15197e-07
-1.60843e-07
-3.91277e-07
-1.95121e-07
-3.6199e-07
-2.26352e-07
-3.27695e-07
-2.54511e-07
-2.88829e-07
-2.79537e-07
-2.45902e-07
-3.01332e-07
-1.99493e-07
-3.19762e-07
-1.50246e-07
-3.34672e-07
-9.88513e-08
-3.45898e-07
-4.60401e-08
-3.53292e-07
7.43202e-09
-3.5674e-07
6.07973e-08
-3.56182e-07
1.1329e-07
-3.51629e-07
1.6416e-07
-3.43158e-07
2.12686e-07
-3.30892e-07
2.58189e-07
-3.14988e-07
3.00043e-07
-2.95608e-07
3.37687e-07
-2.72903e-07
3.70631e-07
-2.46997e-07
3.9846e-07
-2.17979e-07
4.20834e-07
-1.85899e-07
4.37481e-07
-1.50772e-07
4.48194e-07
-1.1258e-07
4.52833e-07
-7.12841e-08
4.51336e-07
-2.6836e-08
4.43749e-07
2.07963e-08
4.30263e-07
7.15701e-08
4.11196e-07
1.25267e-07
3.86917e-07
1.81416e-07
3.57805e-07
2.39303e-07
3.24136e-07
2.97943e-07
2.85591e-07
3.55956e-07
2.39876e-07
4.10957e-07
1.82283e-07
4.5805e-07
1.10281e-07
4.90598e-07
2.80455e-08
5.06739e-07
-5.68204e-08
5.10296e-07
-1.36424e-07
5.03078e-07
-2.03756e-07
4.81805e-07
-2.56831e-07
4.43856e-07
-2.9975e-07
3.93441e-07
-3.36596e-07
3.3712e-07
-3.68813e-07
2.78785e-07
-3.96425e-07
2.20343e-07
-4.19091e-07
1.63025e-07
-4.36431e-07
1.0771e-07
-4.48087e-07
5.5033e-08
-4.53777e-07
5.37603e-09
-4.5336e-07
-4.11142e-08
-4.46828e-07
-8.44328e-08
-4.3427e-07
-1.24626e-07
-4.15848e-07
-1.61745e-07
-3.91788e-07
-1.95827e-07
-3.62379e-07
-2.26881e-07
-3.27983e-07
-2.54885e-07
-2.89034e-07
-2.79779e-07
-2.46041e-07
-3.01462e-07
-1.99583e-07
-3.19801e-07
-1.50299e-07
-3.3464e-07
-9.88776e-08
-3.45814e-07
-4.60464e-08
-3.53175e-07
-3.56607e-07
5.69645e-08
-4.06044e-07
1.06073e-07
-4.00627e-07
1.5354e-07
-3.90551e-07
1.98644e-07
-3.75978e-07
2.4071e-07
-3.57112e-07
2.79129e-07
-3.3418e-07
3.1336e-07
-3.07404e-07
3.42943e-07
-2.76989e-07
3.67498e-07
-2.43104e-07
3.86725e-07
-2.05877e-07
4.00396e-07
-1.65397e-07
4.08357e-07
-1.21717e-07
4.10523e-07
-7.48651e-08
4.06892e-07
-2.48699e-08
3.97556e-07
2.82096e-08
3.8272e-07
8.42271e-08
3.62694e-07
1.42875e-07
3.37852e-07
2.03636e-07
3.08603e-07
2.65773e-07
2.75352e-07
3.28328e-07
2.38369e-07
3.9008e-07
1.97309e-07
4.49355e-07
1.50076e-07
5.03183e-07
9.33322e-08
5.46126e-07
2.72985e-08
5.72322e-07
-4.19624e-08
5.79623e-07
-1.06291e-07
5.68041e-07
-1.6073e-07
5.37714e-07
-2.06281e-07
4.91708e-07
-2.46304e-07
4.36212e-07
-2.8242e-07
3.76114e-07
-3.14757e-07
3.13976e-07
-3.42995e-07
2.51327e-07
-3.66723e-07
1.89325e-07
-3.85535e-07
1.28879e-07
-3.99069e-07
7.06799e-08
-4.07035e-07
1.51988e-08
-4.09256e-07
-3.72942e-08
-4.0566e-07
-8.66757e-08
-3.96274e-07
-1.32894e-07
-3.81198e-07
-1.75919e-07
-3.60606e-07
-2.15713e-07
-3.34744e-07
-2.52214e-07
-3.03934e-07
-2.85321e-07
-2.6858e-07
-3.14892e-07
-2.29165e-07
-3.40747e-07
-1.8625e-07
-3.62676e-07
-1.40469e-07
-3.80453e-07
-9.25108e-08
-3.93856e-07
-4.31124e-08
-4.0269e-07
6.95913e-09
-4.06811e-07
5.69218e-08
-4.06145e-07
1.05996e-07
-4.00704e-07
1.53422e-07
-3.90583e-07
1.98474e-07
-3.75944e-07
2.40476e-07
-3.5699e-07
2.78816e-07
-3.33948e-07
3.12953e-07
-3.07039e-07
3.42425e-07
-2.76469e-07
3.66852e-07
-2.42406e-07
3.85932e-07
-2.0498e-07
3.99442e-07
-1.64281e-07
4.07226e-07
-1.20364e-07
4.09205e-07
-7.32624e-08
4.05376e-07
-2.30076e-08
3.95839e-07
3.03334e-08
3.80805e-07
8.6604e-08
3.60588e-07
1.45484e-07
3.35565e-07
2.06439e-07
3.06147e-07
2.68721e-07
2.72735e-07
3.31355e-07
2.35585e-07
3.93106e-07
1.94285e-07
4.52258e-07
1.46613e-07
5.05722e-07
8.92794e-08
5.47932e-07
2.28555e-08
5.73163e-07
-4.63364e-08
5.79488e-07
-1.10182e-07
5.66924e-07
-1.64045e-07
5.35667e-07
-2.09221e-07
4.89033e-07
-2.49036e-07
4.33256e-07
-2.84991e-07
3.73074e-07
-3.17165e-07
3.10959e-07
-3.4523e-07
2.48409e-07
-3.68773e-07
1.86568e-07
-3.87391e-07
1.26328e-07
-4.00725e-07
6.83665e-08
-4.08491e-07
1.31416e-08
-4.10515e-07
-3.90901e-08
-4.06733e-07
-8.82144e-08
-3.97173e-07
-1.34186e-07
-3.81939e-07
-1.76979e-07
-3.61205e-07
-2.1656e-07
-3.35218e-07
-2.52868e-07
-3.04301e-07
-2.85803e-07
-2.68856e-07
-3.15224e-07
-2.29366e-07
-3.40952e-07
-1.86391e-07
-3.62776e-07
-1.4056e-07
-3.80471e-07
-9.25624e-08
-3.93812e-07
-4.31306e-08
-4.02606e-07
-4.06708e-07
5.2153e-08
-4.51814e-07
9.70457e-08
-4.45519e-07
1.40314e-07
-4.33819e-07
1.81248e-07
-4.16912e-07
2.19196e-07
-3.9506e-07
2.53571e-07
-3.68555e-07
2.83867e-07
-3.377e-07
3.0966e-07
-3.02782e-07
3.30611e-07
-2.64055e-07
3.46466e-07
-2.21731e-07
3.57049e-07
-1.7598e-07
3.62261e-07
-1.26928e-07
3.62077e-07
-7.46817e-08
3.56553e-07
-1.93455e-08
3.45829e-07
3.89338e-08
3.30139e-07
9.99165e-08
3.09804e-07
1.63211e-07
2.85206e-07
2.28234e-07
2.56777e-07
2.94202e-07
2.24986e-07
3.60118e-07
1.90307e-07
4.24758e-07
1.531e-07
4.86563e-07
1.13122e-07
5.43162e-07
6.90132e-08
5.90235e-07
2.00762e-08
6.21259e-07
-3.07764e-08
6.30475e-07
-7.87516e-08
6.16016e-07
-1.21794e-07
5.80756e-07
-1.61056e-07
5.30971e-07
-1.97684e-07
4.72839e-07
-2.31719e-07
4.10149e-07
-2.62752e-07
3.45009e-07
-2.90308e-07
2.78882e-07
-3.13921e-07
2.12939e-07
-3.33171e-07
1.48129e-07
-3.47686e-07
8.5195e-08
-3.57165e-07
2.46773e-08
-3.61393e-07
-3.30659e-08
-3.60251e-07
-8.78179e-08
-3.53703e-07
-1.39441e-07
-3.41793e-07
-1.87829e-07
-3.24638e-07
-2.32868e-07
-3.02436e-07
-2.74416e-07
-2.75464e-07
-3.12294e-07
-2.44082e-07
-3.46273e-07
-2.08741e-07
-3.76088e-07
-1.6997e-07
-4.01447e-07
-1.28377e-07
-4.22046e-07
-8.46342e-08
-4.37599e-07
-3.94657e-08
-4.47859e-07
6.37004e-09
-4.52647e-07
5.20978e-08
-4.51873e-07
9.69452e-08
-4.45551e-07
1.40161e-07
-4.338e-07
1.81035e-07
-4.16818e-07
2.18911e-07
-3.94866e-07
2.53203e-07
-3.68239e-07
2.834e-07
-3.37237e-07
3.0908e-07
-3.02149e-07
3.29904e-07
-2.6323e-07
3.45618e-07
-2.20694e-07
3.56047e-07
-1.7471e-07
3.61094e-07
-1.25411e-07
3.60737e-07
-7.29055e-08
3.55034e-07
-1.73047e-08
3.44131e-07
4.12368e-08
3.28266e-07
1.02469e-07
3.07764e-07
1.65986e-07
2.8301e-07
2.31193e-07
2.5444e-07
2.97291e-07
2.22524e-07
3.63271e-07
1.87736e-07
4.27894e-07
1.50419e-07
4.89575e-07
1.10271e-07
5.4587e-07
6.58885e-08
5.92314e-07
1.67279e-08
6.22323e-07
-3.40822e-08
6.30298e-07
-8.17933e-08
6.14635e-07
-1.24585e-07
5.78459e-07
-1.63703e-07
5.2815e-07
-2.00223e-07
4.69776e-07
-2.34145e-07
4.06996e-07
-2.65049e-07
3.41864e-07
-2.92459e-07
2.75819e-07
-3.15913e-07
2.10022e-07
-3.34993e-07
1.45407e-07
-3.49331e-07
8.27042e-08
-3.58629e-07
2.24399e-08
-3.62679e-07
-3.50402e-08
-3.61364e-07
-8.95289e-08
-3.54654e-07
-1.40897e-07
-3.42592e-07
-1.89041e-07
-3.25299e-07
-2.33853e-07
-3.02973e-07
-2.75194e-07
-2.75891e-07
-3.12885e-07
-2.44414e-07
-3.467e-07
-2.08991e-07
-3.76375e-07
-1.70151e-07
-4.01616e-07
-1.285e-07
-4.22122e-07
-8.47069e-08
-4.37605e-07
-3.9494e-08
-4.47819e-07
-4.52586e-07
4.65752e-08
-4.92688e-07
8.66005e-08
-4.85545e-07
1.25057e-07
-4.72275e-07
1.61265e-07
-4.5312e-07
1.94605e-07
-4.284e-07
2.2453e-07
-3.9848e-07
2.50575e-07
-3.63745e-07
2.72361e-07
-3.24567e-07
2.89597e-07
-2.81291e-07
3.0208e-07
-2.34215e-07
3.09691e-07
-1.8359e-07
3.12385e-07
-1.29623e-07
3.10198e-07
-7.2495e-08
3.03241e-07
-1.23886e-08
2.91704e-07
5.04708e-08
2.75858e-07
1.15763e-07
2.56049e-07
1.8302e-07
2.32685e-07
2.51598e-07
2.06236e-07
3.20651e-07
1.77237e-07
3.89118e-07
1.46296e-07
4.55699e-07
1.14094e-07
5.18764e-07
8.1243e-08
5.76013e-07
4.78695e-08
6.23608e-07
1.3677e-08
6.55452e-07
-2.09179e-08
6.6507e-07
-5.49179e-08
6.50016e-07
-8.81384e-08
6.13976e-07
-1.20859e-07
5.63692e-07
-1.52812e-07
5.04792e-07
-1.83342e-07
4.40679e-07
-2.11777e-07
3.73445e-07
-2.37528e-07
3.04633e-07
-2.60075e-07
2.35485e-07
-2.78961e-07
1.67015e-07
-2.9379e-07
1.00024e-07
-3.04232e-07
3.512e-08
-3.10035e-07
-2.7263e-08
-3.11027e-07
-8.68264e-08
-3.07114e-07
-1.43354e-07
-2.98282e-07
-1.96661e-07
-2.84593e-07
-2.46557e-07
-2.66187e-07
-2.92822e-07
-2.43293e-07
-3.35188e-07
-2.16223e-07
-3.73342e-07
-1.85383e-07
-4.06929e-07
-1.51261e-07
-4.35569e-07
-1.14428e-07
-4.5888e-07
-7.55227e-08
-4.76504e-07
-3.52403e-08
-4.88141e-07
5.68743e-09
-4.93575e-07
4.65107e-08
-4.92696e-07
8.64827e-08
-4.85523e-07
1.2488e-07
-4.72197e-07
1.61021e-07
-4.52959e-07
1.94286e-07
-4.28131e-07
2.24124e-07
-3.98077e-07
2.5007e-07
-3.63183e-07
2.71745e-07
-3.23824e-07
2.8886e-07
-2.80344e-07
3.01211e-07
-2.33044e-07
3.08679e-07
-1.82178e-07
3.11224e-07
-1.27956e-07
3.08883e-07
-7.05648e-08
3.01771e-07
-1.01924e-08
2.90081e-07
5.29268e-08
2.74089e-07
1.18461e-07
2.54143e-07
1.85931e-07
2.30658e-07
2.54678e-07
2.04106e-07
3.23843e-07
1.75026e-07
3.92351e-07
1.44031e-07
4.58889e-07
1.11807e-07
5.21799e-07
7.89483e-08
5.78728e-07
4.55462e-08
6.25716e-07
1.13124e-08
6.56557e-07
-2.32735e-08
6.64883e-07
-5.72289e-08
6.4859e-07
-9.04297e-08
6.1166e-07
-1.23142e-07
5.60863e-07
-1.55064e-07
5.01698e-07
-1.85532e-07
4.37464e-07
-2.13879e-07
3.70211e-07
-2.39521e-07
3.01461e-07
-2.61942e-07
2.32442e-07
-2.80688e-07
1.64154e-07
-2.95368e-07
9.73842e-08
-3.05656e-07
3.27278e-08
-3.11302e-07
-2.93934e-08
-3.1214e-07
-8.86912e-08
-3.08079e-07
-1.44957e-07
-2.99107e-07
-1.98013e-07
-2.85286e-07
-2.47673e-07
-2.66761e-07
-2.93719e-07
-2.43759e-07
-3.35888e-07
-2.16593e-07
-3.73866e-07
-1.85668e-07
-4.073e-07
-1.51472e-07
-4.35812e-07
-1.14574e-07
-4.5902e-07
-7.56115e-08
-4.76568e-07
-3.52765e-08
-4.88154e-07
-4.93564e-07
4.03799e-08
-5.28124e-07
7.50156e-08
-5.2018e-07
1.08173e-07
-5.05432e-07
1.39218e-07
-4.84165e-07
1.67577e-07
-4.56759e-07
1.92752e-07
-4.23656e-07
2.14329e-07
-3.85321e-07
2.3198e-07
-3.42218e-07
2.45469e-07
-2.9478e-07
2.54647e-07
-2.43393e-07
2.59448e-07
-1.88391e-07
2.59888e-07
-1.30063e-07
2.56058e-07
-6.86649e-08
2.48123e-07
-4.45402e-09
2.36324e-07
6.22705e-08
2.20971e-07
1.31115e-07
2.02447e-07
2.01545e-07
1.81194e-07
2.72851e-07
1.57727e-07
3.44118e-07
1.32636e-07
4.14208e-07
1.06619e-07
4.81717e-07
8.04952e-08
5.44887e-07
5.51646e-08
6.01344e-07
3.12812e-08
6.47492e-07
8.74669e-09
6.77986e-07
-1.33297e-08
6.87147e-07
-3.60999e-08
6.72786e-07
-6.03143e-08
6.38191e-07
-8.58741e-08
5.89251e-07
-1.12025e-07
5.30944e-07
-1.3787e-07
4.66524e-07
-1.62615e-07
3.9819e-07
-1.85589e-07
3.27607e-07
-2.06219e-07
2.56115e-07
-2.24008e-07
1.84804e-07
-2.38525e-07
1.14541e-07
-2.49404e-07
4.59992e-08
-2.56349e-07
-2.0318e-08
-2.59137e-07
-8.40381e-08
-2.57621e-07
-1.4487e-07
-2.51727e-07
-2.02555e-07
-2.4146e-07
-2.56824e-07
-2.26907e-07
-3.07375e-07
-2.0824e-07
-3.53855e-07
-1.8572e-07
-3.95862e-07
-1.59699e-07
-4.32951e-07
-1.30615e-07
-4.64653e-07
-9.89909e-08
-4.90504e-07
-6.54188e-08
-5.10076e-07
-3.05491e-08
-5.23011e-07
4.92953e-09
-5.29053e-07
4.03096e-08
-5.28076e-07
7.48867e-08
-5.201e-07
1.07981e-07
-5.05291e-07
1.38956e-07
-4.83935e-07
1.67238e-07
-4.56413e-07
1.92327e-07
-4.23166e-07
2.13808e-07
-3.84664e-07
2.31355e-07
-3.4137e-07
2.4473e-07
-2.9372e-07
2.53787e-07
-2.42101e-07
2.58462e-07
-1.86853e-07
2.58772e-07
-1.28267e-07
2.54811e-07
-6.66039e-08
2.46748e-07
-2.12931e-09
2.34826e-07
6.4849e-08
2.19361e-07
1.33926e-07
2.00737e-07
2.04555e-07
1.79403e-07
2.76012e-07
1.55876e-07
3.4737e-07
1.30754e-07
4.17473e-07
1.04739e-07
4.84904e-07
7.86613e-08
5.47877e-07
5.3418e-08
6.03971e-07
2.96342e-08
6.495e-07
7.16013e-09
6.79031e-07
-1.49266e-08
6.8697e-07
-3.77725e-08
6.71436e-07
-6.20878e-08
6.35975e-07
-8.77245e-08
5.86499e-07
-1.13909e-07
5.27882e-07
-1.39746e-07
4.63301e-07
-1.6445e-07
3.94915e-07
-1.87358e-07
3.24369e-07
-2.079e-07
2.52985e-07
-2.25585e-07
1.81839e-07
-2.39986e-07
1.11785e-07
-2.5074e-07
4.34818e-08
-2.57555e-07
-2.25786e-08
-2.60211e-07
-8.60346e-08
-2.58565e-07
-1.46604e-07
-2.52545e-07
-2.04033e-07
-2.42159e-07
-2.5806e-07
-2.27494e-07
-3.08384e-07
-2.08724e-07
-3.54658e-07
-1.86111e-07
-3.96479e-07
-1.60005e-07
-4.33406e-07
-1.30845e-07
-4.64972e-07
-9.91527e-08
-4.90713e-07
-6.55185e-08
-5.10202e-07
-3.05908e-08
-5.23082e-07
-5.29098e-07
3.36865e-08
-5.57686e-07
6.25135e-08
-5.49007e-07
8.99858e-08
-5.32904e-07
1.15528e-07
-5.09707e-07
1.38625e-07
-4.79857e-07
1.58838e-07
-4.43868e-07
1.75809e-07
-4.02292e-07
1.89269e-07
-3.55679e-07
1.99039e-07
-3.0455e-07
2.05025e-07
-2.49378e-07
2.07216e-07
-1.90583e-07
2.05683e-07
-1.2853e-07
2.0057e-07
-6.35515e-08
1.92092e-07
4.02354e-09
1.80536e-07
7.38266e-08
1.66253e-07
1.45398e-07
1.49658e-07
2.1814e-07
1.31227e-07
2.91282e-07
1.11503e-07
3.63842e-07
9.11075e-08
4.34603e-07
7.07584e-08
5.02066e-07
5.1279e-08
5.64366e-07
3.35416e-08
6.19081e-07
1.81739e-08
6.62859e-07
4.95892e-09
6.91201e-07
-7.50211e-09
6.99608e-07
-2.11049e-08
6.86389e-07
-3.70064e-08
6.54092e-07
-5.51832e-08
6.07428e-07
-7.49087e-08
5.50669e-07
-9.5307e-08
4.86922e-07
-1.15577e-07
4.18459e-07
-1.35022e-07
3.47053e-07
-1.53041e-07
2.74134e-07
-1.69104e-07
2.00867e-07
-1.82749e-07
1.28186e-07
-1.93575e-07
5.68257e-08
-2.01245e-07
-1.2648e-08
-2.05489e-07
-7.97944e-08
-2.06107e-07
-1.44252e-07
-2.02972e-07
-2.05689e-07
-1.96036e-07
-2.63761e-07
-1.85327e-07
-3.18083e-07
-1.70964e-07
-3.68219e-07
-1.53149e-07
-4.13677e-07
-1.32176e-07
-4.53923e-07
-1.08427e-07
-4.88402e-07
-8.2362e-08
-5.16568e-07
-5.45169e-08
-5.37921e-07
-2.54823e-08
-5.52046e-07
4.11093e-09
-5.58646e-07
3.36137e-08
-5.57579e-07
6.23799e-08
-5.48866e-07
8.97877e-08
-5.32699e-07
1.1526e-07
-5.09407e-07
1.38281e-07
-4.79434e-07
1.58412e-07
-4.43296e-07
1.75293e-07