/*--------------------------------*- C++ -*----------------------------------*\
| =========                 |                                                 |
| \\      /  F ield         | OpenFOAM: The Open Source CFD Toolbox           |
|  \\    /   O peration     | Version:  2.3.0                                 |
|   \\  /    A nd           | Web:      www.OpenFOAM.org                      |
|    \\/     M anipulation  |                                                 |
\*---------------------------------------------------------------------------*/
FoamFile
{
    version     2.0;
    format      ascii;
    class       volScalarField;
    location    "22000";
    object      T;
}
// * * * * * * * * * * * * * * * * * * * * * * * * * * * * * * * * * * * * * //

dimensions      [0 0 0 1 0 0 0];

internalField   nonuniform List<scalar> 
765
(
31.4902
31.6142
31.8315
32.1304
32.5013
32.9348
33.4099
33.8456
34.27
34.6786
35.0444
35.3208
35.4457
35.3648
35.1173
34.7677
34.3663
33.9447
33.5112
33.0411
32.596
32.2097
31.8931
31.6554
31.5076
31.4641
31.5366
31.709
31.9682
32.3036
32.706
33.1618
33.6212
34.0527
34.4715
34.8638
35.193
35.4044
35.4329
35.2632
34.9588
34.5784
34.1637
33.735
33.2872
32.821
32.4025
32.0489
31.7693
31.574
31.4752
23.1577
23.4523
23.966
24.6706
25.5452
26.5726
27.7304
28.9704
30.2036
31.3781
32.414
33.1978
33.5619
33.3241
32.6194
31.6317
30.4821
29.2624
28.0299
26.8315
25.7682
24.8561
24.1097
23.5483
23.1977
23.0939
23.2666
23.6751
24.2868
25.0774
26.029
27.1253
28.3423
29.5778
30.7857
31.9047
32.8334
33.4392
33.5236
33.0332
32.1731
31.0924
29.899
28.6619
27.4313
26.3028
25.3121
24.4784
23.8191
23.3568
23.1219
17.2521
17.6491
18.3378
19.2758
20.4338
21.7949
23.3486
25.0774
26.9011
28.7006
30.2984
31.498
32.0534
31.6898
30.6126
29.0893
27.3192
25.4895
23.7312
22.1335
20.7265
19.5202
18.5285
17.7771
17.3051
17.1651
17.398
17.9475
18.7646
19.8137
21.0725
22.5294
24.1749
25.9583
27.7863
29.512
30.941
31.8657
31.9949
31.2468
29.9272
28.26
26.4413
24.6341
22.9442
21.4371
20.1258
19.0207
18.1415
17.5207
17.2039
13.5328
14.0012
14.8075
15.8893
17.2032
18.7309
20.4763
22.4556
24.6061
26.7741
28.7329
30.2048
30.8729
30.437
29.1188
27.2452
25.1022
22.9308
20.9012
19.1065
17.5312
16.1679
15.029
14.1521
13.5956
13.4307
13.7057
14.3524
15.3025
16.5022
17.9206
19.5515
21.4053
23.483
25.665
27.7632
29.5233
30.6495
30.8038
29.8986
28.2751
26.2394
24.0582
21.9399
20.0205
18.3307
16.8562
15.5975
14.5793
13.8503
13.4762
11.3366
11.8793
12.8044
14.0195
15.4553
17.0816
18.91
20.9851
23.2524
25.5573
27.6566
29.2325
29.932
29.4782
28.0701
26.0591
23.7755
21.481
19.3486
17.4753
15.8081
14.3286
13.0575
12.0556
11.4115
11.2213
11.5395
12.2867
13.3667
14.6964
16.2251
17.9442
19.8834
22.0654
24.3746
26.615
28.5045
29.7019
29.8616
28.9065
27.1652
24.9871
22.6736
20.4448
18.4352
16.6601
15.081
13.6957
12.5449
11.7052
11.2717
10.0278
10.6628
11.7372
13.118
14.6978
16.4217
18.2956
20.3754
22.6166
24.8858
26.949
28.4862
29.1535
28.7231
27.3536
25.3789
23.1316
20.8681
18.7439
16.8325
15.0796
13.4658
12.0312
10.8721
10.1186
9.89735
10.269
11.1421
12.385
13.8736
15.5251
17.316
19.2814
21.4472
23.7226
25.9265
27.779
28.9379
29.0884
28.1706
26.4674
24.3256
22.0471
19.8401
17.8158
15.9823
14.2927
12.755
11.4384
10.4597
9.95273
9.16267
9.90811
11.1634
12.7489
14.5114
16.3611
18.2828
20.3187
22.4473
24.5693
26.479
27.8845
28.4826
28.0987
26.851
25.0276
22.9318
20.793
18.7347
16.7934
14.9313
13.1459
11.508
10.1578
9.27279
9.01467
9.44995
10.4747
11.9168
13.6043
15.4131
17.2928
19.2621
21.3446
23.4861
25.5362
27.2418
28.2927
28.4261
27.5988
26.036
24.0487
21.9117
19.8037
17.8002
15.8984
14.0667
12.337
10.8167
9.67024
9.07544
8.47862
9.34451
10.7955
12.6051
14.5741
16.576
18.5636
20.5345
22.5066
24.4186
26.1083
27.3372
27.8575
27.5239
26.435
24.8271
22.9483
20.982
19.0124
17.0351
15.0385
13.0569
11.1953
9.63806
8.61021
8.31118
8.81647
10.0056
11.6641
13.5722
15.5636
17.5564
19.5268
21.4961
23.4503
25.2793
26.7785
27.694
27.8098
27.0897
25.72
23.9548
22.0179
20.0462
18.0764
16.0834
14.0839
12.1392
10.397
9.06874
8.37783
7.83204
8.81809
10.4523
12.4674
14.6277
16.7687
18.804
20.711
22.5297
24.2312
25.7009
26.7573
27.2047
26.9177
25.9831
24.59
22.929
21.1329
19.2497
17.2508
15.1341
12.9701
10.9032
9.15369
7.98626
7.64287
8.2219
9.56896
11.427
13.5383
15.7005
17.7902
19.7521
21.6109
23.3787
24.9855
26.2799
27.0653
27.165
26.5466
25.367
23.8246
22.0878
20.2498
18.3185
16.2526
14.0957
11.9521
10.0059
8.50552
7.71612
7.12374
8.19901
9.95848
12.1105
14.4023
16.6468
18.7245
20.591
22.2922
23.8206
25.1028
26.0102
26.3944
26.1478
25.3469
24.138
22.6581
20.9953
19.1713
17.1492
14.94
12.6485
10.4442
8.56477
7.29626
6.91694
7.55415
9.01301
11.005
13.2531
15.5371
17.7056
19.6678
21.4465
23.0654
24.4855
25.6036
26.276
26.3618
25.8316
24.8158
23.4621
21.8878
20.15
18.2418
16.1126
13.8412
11.5624
9.48007
7.86013
6.99532
6.28593
7.38886
9.17526
11.3524
13.6729
15.9468
18.0361
19.8777
21.5028
22.9099
24.0535
24.847
25.1823
24.9672
24.269
23.1976
21.8468
20.2723
18.4848
16.4583
14.221
11.8993
9.66913
7.76352
6.46641
6.07274
6.73172
8.21937
10.237
12.5122
14.8274
17.0212
18.978
20.7068
22.2249
23.51
24.4952
25.0804
25.1552
24.6933
23.8019
22.5862
21.1237
19.4488
17.5551
15.4068
13.1049
10.7983
8.69087
7.04296
6.15227
5.27472
6.31719
7.99264
10.034
12.2237
14.3928
16.4094
18.1989
19.7594
21.0793
22.125
22.8374
23.1371
22.9451
22.3206
21.3465
20.0875
18.5832
16.8491
14.8876
12.7465
10.5502
8.45682
6.67075
5.44786
5.07208
5.6992
7.09864
8.9891
11.1279
13.3243
15.4305
17.3292
19.0023
20.4443
21.634
22.525
23.0473
23.1141
22.7015
21.8985
20.7799
19.3989
17.7828
15.9401
13.8737
11.6849
9.51344
7.53886
5.99147
5.14681
4.06075
4.93497
6.33064
8.0318
9.87201
11.7271
13.5013
15.1251
16.5543
17.7576
18.7002
19.3356
19.6023
19.4317
18.8761
18.0009
16.8561
15.4788
13.8998
12.1588
10.3169
8.46472
6.71787
5.23085
4.20759
3.88981
4.41872
5.5874
7.16089
8.94873
10.8082
12.632
14.3341
15.8627
17.1821
18.2609
19.0591
19.5231
19.5824
19.2156
18.4977
17.4862
16.2241
14.7439
13.078
11.2764
9.41537
7.59648
5.95277
4.66262
3.95234
2.62624
3.21914
4.15779
5.29802
6.53759
7.81081
9.08067
10.3074
11.415
12.3586
13.1004
13.6004
13.8106
13.6763
13.2393
12.5507
11.6518
10.5806
9.37922
8.11403
6.84043
5.58906
4.41783
3.41909
2.72671
2.50956
2.87015
3.65899
4.71438
5.91366
7.17438
8.44619
9.70484
10.8772
11.9071
12.7552
13.3833
13.7483
13.7949
13.506
12.941
12.1451
11.157
10.0144
8.76522
7.49497
6.22715
5.00549
3.90396
3.03496
2.55202
0.960664
1.17645
1.51203
1.91205
2.34171
2.78749
3.26235
3.76887
4.24504
4.6608
4.99285
5.21858
5.31384
5.253
5.05553
4.74651
4.34874
3.88519
3.3837
2.89644
2.44678
2.01327
1.60399
1.24858
0.997566
0.917764
1.04993
1.33458
1.70812
2.12538
2.56192
3.01535
3.51662
4.01194
4.46077
4.83776
5.12032
5.28543
5.30653
5.17569
4.92097
4.56579
4.13254
3.64484
3.1348
2.67382
2.23356
1.80981
1.42184
1.10975
0.933341
)
;

boundaryField
{
    top
    {
        type            fixedValue;
        value           uniform 0;
    }
    bottom
    {
        type            fixedValue;
        value           uniform 36.5;
    }
    frontAndBack
    {
        type            empty;
    }
    left_cyc
    {
        type            cyclic;
    }
    right_cyc
    {
        type            cyclic;
    }
}


// ************************************************************************* //
