/*--------------------------------*- C++ -*----------------------------------*\
| =========                 |                                                 |
| \\      /  F ield         | OpenFOAM: The Open Source CFD Toolbox           |
|  \\    /   O peration     | Version:  2.3.0                                 |
|   \\  /    A nd           | Web:      www.OpenFOAM.org                      |
|    \\/     M anipulation  |                                                 |
\*---------------------------------------------------------------------------*/
FoamFile
{
    version     2.0;
    format      ascii;
    class       volScalarField;
    location    "22000";
    object      T;
}
// * * * * * * * * * * * * * * * * * * * * * * * * * * * * * * * * * * * * * //

dimensions      [0 0 0 1 0 0 0];

internalField   nonuniform List<scalar> 
765
(
36.4557
36.4315
36.3106
36.0405
35.7275
35.4536
35.2121
34.9939
34.7931
34.6062
34.4294
34.2572
34.0841
33.9049
33.7145
33.5124
33.2961
33.0647
32.82
32.5665
32.3114
32.0651
31.8398
31.6496
31.5089
31.4316
31.4316
31.5089
31.6496
31.8397
32.065
32.3113
32.5664
32.8199
33.0646
33.296
33.5124
33.7144
33.9048
34.0841
34.2572
34.4294
34.6062
34.7931
34.9939
35.2121
35.4536
35.7276
36.0405
36.3106
36.4315
36.4157
36.311
35.9222
35.1165
34.2576
33.4765
32.784
32.1503
31.5577
31.0029
30.4799
29.9739
29.4679
28.9653
28.4531
27.9165
27.3504
26.7562
26.1404
25.515
24.8971
24.3086
23.7759
23.3282
22.9968
22.8138
22.8138
22.9967
23.3281
23.7757
24.3084
24.8969
25.5148
26.1402
26.756
27.3502
27.9163
28.4529
28.9651
29.4678
29.9739
30.4799
31.0029
31.5578
32.1503
32.7841
33.4766
34.2578
35.1166
35.9224
36.311
36.3221
36.1328
35.4727
34.282
33.0084
31.8314
30.7645
29.7688
28.8333
27.9652
27.1631
26.4105
25.685
24.9636
24.2281
23.4666
22.675
21.8559
21.0177
20.1748
19.3473
18.5611
17.8484
17.2472
16.7998
16.5514
16.5514
16.7997
17.2471
17.8482
18.5608
19.347
20.1746
21.0175
21.8556
22.6748
23.4664
24.2279
24.9634
25.6849
26.4104
27.163
27.9652
28.8334
29.7689
30.7647
31.8315
33.0086
34.2823
35.473
36.1329
36.1709
35.9032
35.0191
33.6083
32.0799
30.6384
29.3069
28.0641
26.912
25.8552
24.8865
23.9881
23.1304
22.281
21.4212
20.5395
19.6316
18.6985
17.7467
16.7881
15.8413
14.9328
14.0988
13.3861
12.8498
12.5504
12.5503
12.8497
13.3859
14.0987
14.9326
15.8411
16.7879
17.7465
18.6983
19.6314
20.5393
21.421
22.2809
23.1303
23.988
24.8865
25.8553
26.9121
28.0642
29.3072
30.6387
32.0802
33.6088
35.0195
35.9034
35.9827
35.66
34.6678
33.1649
31.5238
29.9511
28.4892
27.1373
25.8978
24.7658
23.7265
22.7586
21.8406
20.9369
20.026
19.0948
18.1358
17.146
16.1269
15.0855
14.0373
13.0099
12.0464
11.207
10.567
10.2079
10.2079
10.5669
11.2069
12.0463
13.0098
14.0372
15.0853
16.1267
17.1459
18.1356
19.0946
20.0259
20.9368
21.8405
22.7585
23.7265
24.7659
25.8979
27.1376
28.4895
29.9515
31.5242
33.1654
34.6682
35.6603
35.7849
35.4481
34.4487
32.9705
31.3387
29.7544
28.2815
26.931
25.7007
24.5772
23.5387
22.5615
21.6247
20.708
19.784
18.8346
17.847
16.8123
15.7251
14.5873
13.4117
12.2289
11.0931
10.0847
9.30654
8.86925
8.86925
9.30652
10.0846
11.093
12.2288
13.4116
14.5872
15.7251
16.8122
17.847
18.8345
19.784
20.7079
21.6247
22.5615
23.5388
24.5773
25.701
26.9313
28.2818
29.7548
31.3392
32.9711
34.4492
35.4484
35.5924
35.2679
34.3453
32.9993
31.4764
29.9694
28.571
27.2931
26.1302
25.0636
24.0676
23.1161
22.1895
21.2699
20.3408
19.3755
18.3543
17.2613
16.0845
14.8206
13.4809
12.1011
10.7492
9.53038
8.58126
8.04802
8.04802
8.58126
9.53038
10.7492
12.1011
13.4809
14.8206
16.0846
17.2613
18.3544
19.3755
20.3408
21.2699
22.1896
23.1163
24.0678
25.0638
26.1305
27.2935
28.5714
29.97
31.4771
32.9999
34.3458
35.2682
35.4084
35.1114
34.2986
33.1335
31.8099
30.4756
29.2114
28.0437
26.9708
25.9755
25.0325
24.1111
23.2034
22.2809
21.3366
20.3404
19.2673
18.095
16.806
15.3929
13.8663
12.2673
10.6776
9.22741
8.08897
7.44856
7.44857
8.08899
9.22745
10.6777
12.2674
13.8665
15.393
16.8062
18.0952
19.2675
20.3406
21.3368
22.2811
23.2036
24.1114
25.0328
25.9759
26.9712
28.0441
29.2119
30.4762
31.8106
33.1341
34.2991
35.1117
35.2265
34.9666
34.2801
33.3118
32.2077
31.0737
29.9707
28.9261
27.9442
27.0138
26.1158
25.2283
24.3337
23.4075
22.426
21.3756
20.2283
18.9586
17.5458
15.9802
14.2723
12.4666
10.6545
8.98491
7.66092
6.90971
6.90973
7.66097
8.985
10.6547
12.4668
14.2726
15.9804
17.5462
18.9589
20.2287
21.3759
22.4263
23.4079
24.3341
25.2287
26.1162
27.0142
27.9446
28.9266
29.9712
31.0743
32.2084
33.3123
34.2806
34.9668
35.0131
34.7937
34.2313
33.4456
32.542
31.5928
30.6399
29.7048
28.7939
27.9028
27.0196
26.1291
25.2157
24.2595
23.2313
22.1114
20.8766
19.5037
17.9736
16.2775
14.4272
12.468
10.4938
8.6603
7.188
6.3376
6.33763
7.18808
8.66045
10.494
12.4683
14.4276
16.2779
17.974
19.5042
20.8771
22.1119
23.2318
24.2599
25.2162
26.1296
27.02
27.9033
28.7944
29.7053
30.6405
31.5934
32.5426
33.4461
34.2317
34.7939
34.6517
34.4686
34.008
33.3636
32.6093
31.7939
30.9451
30.0776
29.1971
28.3034
27.3915
26.4532
25.4783
24.4537
23.3602
22.1687
20.8515
19.392
17.7766
16.0002
14.0763
12.049
10.0085
8.10604
6.56324
5.65727
5.65731
6.56336
8.10623
10.0088
12.0494
14.0767
16.0007
17.7771
19.3926
20.8521
22.1693
23.3608
24.4543
25.4789
26.4538
27.3921
28.304
29.1977
30.0782
30.9457
31.7944
32.6099
33.3641
34.0084
34.4688
33.7897
33.6312
33.2332
32.6676
31.9884
31.2321
30.4189
29.5577
28.6528
27.7067
26.7205
25.6935
24.6229
23.5029
22.3243
21.0773
19.7202
18.2332
16.6101
14.8503
12.9679
11.0033
9.03658
7.20309
5.70695
4.81671
4.81676
5.7071
7.20332
9.03688
11.0037
12.9683
14.8508
16.6107
18.2339
19.7209
21.078
22.3251
23.5036
24.6236
25.6942
26.7212
27.7074
28.6535
29.5584
30.4195
31.2327
31.9889
32.6681
33.2336
33.6314
31.5245
31.3765
30.9993
30.4519
29.7806
29.0194
28.1853
27.2829
26.315
25.2885
24.2126
23.0956
21.9424
20.754
19.5279
18.2612
16.9644
15.58
14.0987
12.5194
10.8549
9.13867
7.43435
5.85015
4.55347
3.77448
3.77454
4.55361
5.85037
7.43464
9.13904
10.8554
12.5199
14.0993
15.5807
16.9651
18.262
19.5287
20.7549
21.9432
23.0964
24.2134
25.2893
26.3157
27.2836
28.1859
29.02
29.7812
30.4524
30.9997
31.3767
25.9932
25.8524
25.4882
24.9549
24.2955
23.5396
22.7029
21.7913
20.8115
19.7777
18.7077
17.6174
16.5174
15.4131
14.3045
13.1901
12.074
10.9831
9.88886
8.73054
7.5239
6.29511
5.08565
3.96584
3.04809
2.4932
2.49324
3.0482
3.96601
5.08587
6.2954
7.52424
8.73095
9.88932
10.9836
12.0746
13.1908
14.3052
15.4138
16.5182
17.6182
18.7085
19.7785
20.8123
21.792
22.7036
23.5402
24.296
24.9554
25.4886
25.8526
14.2459
14.1366
13.8529
13.4413
12.9373
12.362
11.729
11.0492
10.3346
9.60218
8.87024
8.1532
7.45988
6.79368
6.1539
5.53791
4.94423
4.37555
3.83148
3.33438
2.85675
2.38619
1.92737
1.50164
1.15009
0.93551
0.935528
1.15013
1.50171
1.92746
2.38631
2.8569
3.33455
3.8317
4.37579
4.94452
5.53825
6.15428
6.79411
7.46034
8.15368
8.87075
9.6027
10.3351
11.0497
11.7295
12.3624
12.9377
13.4417
13.8532
14.1367
)
;

boundaryField
{
    top
    {
        type            fixedValue;
        value           uniform 0;
    }
    bottom
    {
        type            fixedValue;
        value           uniform 36.5;
    }
    frontAndBack
    {
        type            empty;
    }
    left_cyc
    {
        type            cyclic;
    }
    right_cyc
    {
        type            cyclic;
    }
}


// ************************************************************************* //
