/*--------------------------------*- C++ -*----------------------------------*\
| =========                 |                                                 |
| \\      /  F ield         | OpenFOAM: The Open Source CFD Toolbox           |
|  \\    /   O peration     | Version:  2.3.0                                 |
|   \\  /    A nd           | Web:      www.OpenFOAM.org                      |
|    \\/     M anipulation  |                                                 |
\*---------------------------------------------------------------------------*/
FoamFile
{
    version     2.0;
    format      ascii;
    class       volVectorField;
    location    "22000";
    object      U;
}
// * * * * * * * * * * * * * * * * * * * * * * * * * * * * * * * * * * * * * //

dimensions      [0 1 -1 0 0 0 0];

internalField   nonuniform List<vector> 
3060
(
(1.42224 0 -2.31553)
(4.01546 0 -2.23267)
(6.49154 0 -2.06953)
(8.77543 0 -1.82597)
(10.7946 0 -1.50323)
(12.4821 0 -1.10766)
(13.7835 0 -0.656932)
(14.6665 0 -0.187735)
(15.135 0 0.242442)
(15.244 0 0.572824)
(15.0828 0 0.768266)
(14.7467 0 0.839004)
(14.2786 0 0.825972)
(13.6835 0 0.76845)
(12.9338 0 0.691485)
(11.9985 0 0.613439)
(10.8655 0 0.565199)
(9.54486 0 0.563717)
(8.06557 0 0.575034)
(6.50892 0 0.550951)
(4.99213 0 0.484979)
(3.61456 0 0.391417)
(2.4408 0 0.291967)
(1.48239 0 0.207594)
(0.697151 0 0.152439)
(0.00732391 0 0.133072)
(-0.680739 0 0.151255)
(-1.46087 0 0.205303)
(-2.41148 0 0.288811)
(-3.57598 0 0.387866)
(-4.9444 0 0.481621)
(-6.45325 0 0.548331)
(-8.00409 0 0.573559)
(-9.4797 0 0.56271)
(-10.7972 0 0.5631)
(-11.9263 0 0.609658)
(-12.8565 0 0.686518)
(-13.5994 0 0.762425)
(-14.1855 0 0.818304)
(-14.6417 0 0.829022)
(-14.9632 0 0.755717)
(-15.1076 0 0.558196)
(-14.9804 0 0.227315)
(-14.4949 0 -0.201833)
(-13.5967 0 -0.669082)
(-12.2825 0 -1.11721)
(-10.5852 0 -1.50975)
(-8.5596 0 -1.82915)
(-6.27283 0 -2.06907)
(-3.79773 0 -2.22822)
(-1.2097 0 -2.30666)
(1.41461 0 -2.30424)
(3.99796 0 -2.22099)
(6.46378 0 -2.05705)
(8.73679 0 -1.81237)
(10.7443 0 -1.4884)
(12.4198 0 -1.09192)
(13.7092 0 -0.641296)
(14.5814 0 -0.174173)
(15.0422 0 0.251439)
(15.148 0 0.575677)
(14.9881 0 0.765615)
(14.6548 0 0.83304)
(14.1882 0 0.818673)
(13.5916 0 0.760927)
(12.8363 0 0.684223)
(11.8928 0 0.607741)
(10.7504 0 0.563138)
(9.42081 0 0.564335)
(7.93582 0 0.574255)
(6.38134 0 0.546657)
(4.87495 0 0.478031)
(3.51356 0 0.383308)
(2.35846 0 0.284413)
(1.41675 0 0.201989)
(0.642703 0 0.149543)
(-0.0433544 0 0.133153)
(-0.735594 0 0.154307)
(-1.52725 0 0.211038)
(-2.49477 0 0.296439)
(-3.6779 0 0.395961)
(-5.06222 0 0.488469)
(-6.58109 0 0.552481)
(-8.13364 0 0.574198)
(-9.60321 0 0.562162)
(-10.9116 0 0.565408)
(-12.0314 0 0.615578)
(-12.9533 0 0.693907)
(-13.6908 0 0.770003)
(-14.2754 0 0.82555)
(-14.733 0 0.834767)
(-15.0572 0 0.7579)
(-15.2024 0 0.554618)
(-15.0713 0 0.217472)
(-14.5772 0 -0.216198)
(-13.6675 0 -0.685401)
(-12.3408 0 -1.13351)
(-10.6309 0 -1.52501)
(-8.59331 0 -1.84308)
(-6.29536 0 -2.08179)
(-3.80981 0 -2.24004)
(-1.21182 0 -2.318)
(1.17827 0 -3.63762)
(3.33558 0 -3.54121)
(5.43337 0 -3.35376)
(7.43785 0 -3.08066)
(9.32375 0 -2.73193)
(11.0784 0 -2.32481)
(12.7047 0 -1.88634)
(14.2203 0 -1.45296)
(15.6481 0 -1.06228)
(16.9973 0 -0.735185)
(18.2442 0 -0.460211)
(19.3283 0 -0.195907)
(20.175 0 0.107835)
(20.7116 0 0.492127)
(20.8671 0 0.973696)
(20.5611 0 1.51999)
(19.7018 0 2.02934)
(18.2725 0 2.41156)
(16.3169 0 2.63528)
(13.9369 0 2.68134)
(11.3178 0 2.56317)
(8.66867 0 2.30093)
(6.17061 0 1.96082)
(3.91929 0 1.6373)
(1.90291 0 1.41081)
(0.0263683 0 1.32827)
(-1.84692 0 1.40478)
(-3.85412 0 1.626)
(-6.09214 0 1.94602)
(-8.57581 0 2.28518)
(-11.2126 0 2.54882)
(-13.823 0 2.66941)
(-16.1987 0 2.62613)
(-18.153 0 2.40509)
(-19.5823 0 2.02477)
(-20.4426 0 1.5161)
(-20.7482 0 0.967825)
(-20.59 0 0.482635)
(-20.0489 0 0.094444)
(-19.1965 0 -0.212851)
(-18.1058 0 -0.479975)
(-16.8519 0 -0.756637)
(-15.4953 0 -1.08392)
(-14.0598 0 -1.47321)
(-12.5369 0 -1.90403)
(-10.9042 0 -2.33917)
(-9.14454 0 -2.7424)
(-7.25536 0 -3.08679)
(-5.24969 0 -3.35513)
(-3.15303 0 -3.53744)
(-0.99934 0 -3.62834)
(1.17296 0 -3.62547)
(3.32422 0 -3.52891)
(5.41618 0 -3.34115)
(7.41525 0 -3.06779)
(9.2965 0 -2.71912)
(11.0477 0 -2.31281)
(12.6724 0 -1.87635)
(14.1882 0 -1.44634)
(15.6176 0 -1.05973)
(16.9678 0 -0.735682)
(18.213 0 -0.460916)
(19.2912 0 -0.19325)
(20.1272 0 0.117008)
(20.6482 0 0.509868)
(20.7824 0 0.999684)
(20.4481 0 1.54914)
(19.555 0 2.0531)
(18.0939 0 2.426)
(16.1102 0 2.6381)
(13.7126 0 2.67204)
(11.0911 0 2.54278)
(8.4537 0 2.27258)
(5.97732 0 1.93119)
(3.74935 0 1.61362)
(1.75005 0 1.39802)
(-0.120501 0 1.32861)
(-2.00037 0 1.41819)
(-4.02506 0 1.65012)
(-6.28651 0 1.97575)
(-8.79146 0 2.31321)
(-11.4392 0 2.56862)
(-14.0463 0 2.67808)
(-16.4036 0 2.62258)
(-18.3293 0 2.39)
(-19.7263 0 2.00044)
(-20.5528 0 1.48667)
(-20.83 0 0.941894)
(-20.6506 0 0.465024)
(-20.0938 0 0.085336)
(-19.2309 0 -0.215599)
(-18.1341 0 -0.479583)
(-16.8785 0 -0.756696)
(-15.523 0 -1.08722)
(-14.0888 0 -1.48063)
(-12.5659 0 -1.91479)
(-10.9313 0 -2.35185)
(-9.16791 0 -2.75577)
(-7.27384 0 -3.10009)
(-5.26258 0 -3.36804)
(-3.15996 0 -3.54993)
(-1.00016 0 -3.64055)
(1.12159 0 -5.78815)
(3.18001 0 -5.65316)
(5.19684 0 -5.39251)
(7.14899 0 -5.01726)
(9.01893 0 -4.54581)
(10.7953 0 -4.00569)
(12.4714 0 -3.43379)
(14.04 0 -2.87153)
(15.4862 0 -2.35166)
(16.7834 0 -1.88129)
(17.8976 0 -1.4365)
(18.7989 0 -0.975308)
(19.4703 0 -0.457795)
(19.9094 0 0.145071)
(20.126 0 0.849693)
(20.1327 0 1.66286)
(19.9111 0 2.59358)
(19.3655 0 3.63813)
(18.3399 0 4.6502)
(16.6802 0 5.31457)
(14.3451 0 5.5177)
(11.5231 0 5.32338)
(8.51722 0 4.85784)
(5.56453 0 4.32054)
(2.75294 0 3.91066)
(0.0443138 0 3.7554)
(-2.66086 0 3.89757)
(-5.46305 0 4.29676)
(-8.40345 0 4.82831)
(-11.3992 0 5.29448)
(-14.2178 0 5.49421)
(-16.5569 0 5.29958)
(-18.2236 0 4.64567)
(-19.2532 0 3.63786)
(-19.7993 0 2.59092)
(-20.018 0 1.65645)
(-20.0071 0 0.839571)
(-19.7859 0 0.13093)
(-19.3421 0 -0.476115)
(-18.6657 0 -0.997587)
(-17.7592 0 -1.46208)
(-16.6396 0 -1.90903)
(-15.3369 0 -2.37996)
(-13.8851 0 -2.89846)
(-12.3111 0 -3.45768)
(-10.6302 0 -4.02524)
(-8.84976 0 -4.56001)
(-6.97708 0 -5.0253)
(-5.02376 0 -5.39368)
(-3.00755 0 -5.64688)
(-0.951628 0 -5.77397)
(1.11732 0 -5.76993)
(3.17149 0 -5.63493)
(5.18433 0 -5.37428)
(7.13293 0 -4.99925)
(8.99989 0 -4.52861)
(10.7739 0 -3.99028)
(12.448 0 -3.4214)
(14.0146 0 -2.8631)
(15.4578 0 -2.3469)
(16.7501 0 -1.87809)
(17.8575 0 -1.43152)
(18.7506 0 -0.965286)
(19.4129 0 -0.44028)
(19.8429 0 0.17158)
(20.0507 0 0.885743)
(20.0485 0 1.70862)
(19.8139 0 2.64985)
(19.2447 0 3.70104)
(18.1836 0 4.69974)
(16.4786 0 5.3306)
(14.1049 0 5.50253)
(11.2653 0 5.28443)
(8.26316 0 4.8079)
(5.32525 0 4.27659)
(2.5273 0 3.88582)
(-0.176185 0 3.75604)
(-2.88691 0 3.92351)
(-5.7029 0 4.34129)
(-8.65772 0 4.87798)
(-11.6563 0 5.33226)
(-14.4558 0 5.50769)
(-16.7555 0 5.28161)
(-18.3768 0 4.59445)
(-19.3713 0 3.57454)
(-19.8943 0 2.53475)
(-20.1001 0 1.61076)
(-20.0801 0 0.803551)
(-19.8501 0 0.104415)
(-19.3969 0 -0.493722)
(-18.7113 0 -1.00784)
(-17.7963 0 -1.46749)
(-16.6698 0 -1.91289)
(-15.3622 0 -2.3856)
(-13.9072 0 -2.90789)
(-12.3311 0 -3.47108)
(-10.648 0 -4.04158)
(-8.86505 0 -4.57801)
(-6.98923 0 -5.04394)
(-5.03222 0 -5.41237)
(-3.01193 0 -5.66538)
(-0.951708 0 -5.79228)
(1.07427 0 -7.86695)
(3.04843 0 -7.70673)
(4.99042 0 -7.39851)
(6.88167 0 -6.95683)
(8.70624 0 -6.40378)
(10.4501 0 -5.76883)
(12.0986 0 -5.08673)
(13.6328 0 -4.39205)
(15.0266 0 -3.70979)
(16.2489 0 -3.04582)
(17.2708 0 -2.38439)
(18.0727 0 -1.69647)
(18.6465 0 -0.952526)
(18.9925 0 -0.130003)
(19.1163 0 0.785614)
(19.0233 0 1.8047)
(18.7175 0 2.93646)
(18.2165 0 4.17287)
(17.5233 0 5.47822)
(16.5284 0 6.78927)
(14.9654 0 7.84721)
(12.6604 0 8.22584)
(9.74412 0 7.98488)
(6.54439 0 7.45284)
(3.29416 0 6.97567)
(0.0593595 0 6.78422)
(-3.17283 0 6.95662)
(-6.41653 0 7.41949)
(-9.61052 0 7.94688)
(-12.5289 0 8.19507)
(-14.8444 0 7.83313)
(-16.4187 0 6.78785)
(-17.4176 0 5.4776)
(-18.1092 0 4.1702)
(-18.6069 0 2.93073)
(-18.9094 0 1.79509)
(-18.9986 0 0.771821)
(-18.8705 0 -0.148181)
(-18.52 0 -0.975137)
(-17.9417 0 -1.7232)
(-17.1351 0 -2.41449)
(-16.1086 0 -3.07805)
(-14.8817 0 -3.74253)
(-13.4835 0 -4.42339)
(-11.945 0 -5.11483)
(-10.2926 0 -5.79208)
(-8.54541 0 -6.42081)
(-6.71848 0 -6.96647)
(-4.82606 0 -7.39981)
(-2.88427 0 -7.69893)
(-0.911783 0 -7.84957)
(1.07072 0 -7.84475)
(3.04183 0 -7.68468)
(4.98095 0 -7.37674)
(6.86955 0 -6.93564)
(8.69169 0 -6.3837)
(10.4331 0 -5.75056)
(12.0789 0 -5.07095)
(13.6094 0 -4.37899)
(14.9981 0 -3.69872)
(16.2137 0 -3.0348)
(17.2274 0 -2.37069)
(18.0205 0 -1.67735)
(18.585 0 -0.925872)
(18.9218 0 -0.0944674)
(19.0364 0 0.830726)
(18.9338 0 1.8599)
(18.6185 0 3.00183)
(18.109 0 4.24636)
(17.4037 0 5.55662)
(16.3814 0 6.86337)
(14.7693 0 7.88267)
(12.4148 0 8.20803)
(9.47044 0 7.93503)
(6.26632 0 7.4)
(3.02011 0 6.94375)
(-0.212484 0 6.78499)
(-3.44691 0 6.98976)
(-6.69434 0 7.4726)
(-9.88296 0 7.99552)
(-12.7718 0 8.21023)
(-15.0371 0 7.79446)
(-16.5627 0 6.71252)
(-17.5352 0 5.39883)
(-18.2149 0 4.0965)
(-18.7041 0 2.86529)
(-18.9968 0 1.73984)
(-19.0764 0 0.726594)
(-18.9389 0 -0.183903)
(-18.5789 0 -1.00209)
(-17.9912 0 -1.74276)
(-17.1755 0 -2.42881)
(-16.1408 0 -3.08989)
(-14.907 0 -3.75461)
(-13.5035 0 -4.43756)
(-11.9613 0 -5.13175)
(-10.306 0 -5.81142)
(-8.55632 0 -6.44182)
(-6.72684 0 -6.98841)
(-4.83168 0 -7.42213)
(-2.88694 0 -7.72133)
(-0.91136 0 -7.87189)
(1.02279 0 -9.79373)
(2.90297 0 -9.6146)
(4.75523 0 -9.27019)
(6.56242 0 -8.77647)
(8.30815 0 -8.15655)
(9.97586 0 -7.43929)
(11.5469 0 -6.65628)
(12.9986 0 -5.83662)
(14.3037 0 -4.99997)
(15.4333 0 -4.15091)
(16.3625 0 -3.27881)
(17.0749 0 -2.36419)
(17.5634 0 -1.38731)
(17.8277 0 -0.333257)
(17.8718 0 0.806736)
(17.7021 0 2.03683)
(17.3283 0 3.35993)
(16.7653 0 4.77921)
(16.0207 0 6.29059)
(15.0962 0 7.85778)
(13.9482 0 9.36427)
(12.3476 0 10.5476)
(9.96526 0 10.9804)
(6.92267 0 10.7666)
(3.55498 0 10.3896)
(0.0698574 0 10.2158)
(-3.41465 0 10.3674)
(-6.78208 0 10.7305)
(-9.83101 0 10.9469)
(-12.2298 0 10.5324)
(-13.8435 0 9.36236)
(-14.9944 0 7.8585)
(-15.9176 0 6.28964)
(-16.6603 0 4.7745)
(-17.2206 0 3.35094)
(-17.5912 0 2.02342)
(-17.7574 0 0.78878)
(-17.7094 0 -0.355891)
(-17.4409 0 -1.41454)
(-16.9482 0 -2.3956)
(-16.2316 0 -3.31353)
(-15.2983 0 -4.18766)
(-14.1647 0 -5.03709)
(-12.8557 0 -5.87218)
(-11.4004 0 -6.68834)
(-9.82605 0 -7.46603)
(-8.15551 0 -8.17637)
(-6.40766 0 -8.78798)
(-4.59931 0 -9.27225)
(-2.74698 0 -9.60634)
(-0.867937 0 -9.77461)
(1.01973 0 -9.76918)
(2.89758 0 -9.5903)
(4.74756 0 -9.2463)
(6.55248 0 -8.75326)
(8.29586 0 -8.13441)
(9.96086 0 -7.41862)
(11.5285 0 -6.63732)
(12.9756 0 -5.81912)
(14.2748 0 -4.98289)
(15.3971 0 -4.13237)
(16.3178 0 -3.25645)
(17.0211 0 -2.33577)
(17.5002 0 -1.35108)
(17.7551 0 -0.28813)
(17.7897 0 0.861246)
(17.6106 0 2.10086)
(17.2277 0 3.43358)
(16.6559 0 4.86242)
(15.902 0 6.38205)
(14.9678 0 7.95153)
(13.7995 0 9.44736)
(12.1513 0 10.5887)
(9.71099 0 10.9618)
(6.63608 0 10.7227)
(3.25696 0 10.3585)
(-0.230865 0 10.2165)
(-3.71212 0 10.3993)
(-7.06726 0 10.7737)
(-10.0823 0 10.9628)
(-12.4224 0 10.4878)
(-13.9898 0 9.27765)
(-15.1213 0 7.76401)
(-16.0348 0 6.19788)
(-16.7679 0 4.69109)
(-17.3194 0 3.27707)
(-17.6808 0 1.95914)
(-17.8374 0 0.733965)
(-17.7797 0 -0.401397)
(-17.5016 0 -1.45126)
(-16.9993 0 -2.42464)
(-16.2735 0 -3.33666)
(-15.3315 0 -4.20716)
(-14.1904 0 -5.05528)
(-12.8754 0 -5.89089)
(-11.4155 0 -6.70852)
(-9.83761 0 -7.48785)
(-8.16428 0 -8.19954)
(-6.41399 0 -8.81203)
(-4.6033 0 -9.29677)
(-2.74863 0 -9.63103)
(-0.867233 0 -9.79928)
(0.96489 0 -11.6301)
(2.73782 0 -11.4327)
(4.48412 0 -11.0527)
(6.18667 0 -10.5063)
(7.82822 0 -9.81629)
(9.39054 0 -9.0099)
(10.8533 0 -8.11586)
(12.1935 0 -7.15992)
(13.3854 0 -6.16012)
(14.4039 0 -5.12326)
(15.228 0 -4.04512)
(15.8435 0 -2.91444)
(16.2441 0 -1.71843)
(16.4288 0 -0.446635)
(16.4007 0 0.907498)
(16.165 0 2.3465)
(15.7299 0 3.86927)
(15.1077 0 5.4703)
(14.3137 0 7.13802)
(13.3635 0 8.85655)
(12.2603 0 10.5896)
(10.9469 0 12.2112)
(9.19227 0 13.4102)
(6.66023 0 13.8674)
(3.50805 0 13.8363)
(0.0741498 0 13.7616)
(-3.36219 0 13.8164)
(-6.52306 0 13.8404)
(-9.07458 0 13.3949)
(-10.8446 0 12.2099)
(-12.1624 0 10.5918)
(-13.2655 0 8.85681)
(-14.2142 0 7.13469)
(-15.0063 0 5.46291)
(-15.626 0 3.85744)
(-16.0584 0 2.32993)
(-16.2909 0 0.886012)
(-16.3155 0 -0.473067)
(-16.1271 0 -1.7496)
(-15.7227 0 -2.94979)
(-15.1034 0 -4.08372)
(-14.2756 0 -5.16377)
(-13.2535 0 -6.20084)
(-12.0581 0 -7.19893)
(-10.7147 0 -8.15113)
(-9.24893 0 -9.0395)
(-7.68404 0 -9.83842)
(-6.04053 0 -10.5194)
(-4.33681 0 -11.0554)
(-2.59027 0 -11.4241)
(-0.81816 0 -11.6094)
(0.962134 0 -11.6034)
(2.73312 0 -11.4063)
(4.47743 0 -11.0266)
(6.17783 0 -10.4808)
(7.81692 0 -9.79144)
(9.37623 0 -8.98587)
(10.8352 0 -8.09254)
(12.1703 0 -7.13679)
(13.356 0 -6.13606)
(14.367 0 -5.09662)
(15.1826 0 -4.01393)
(15.7892 0 -2.8768)
(16.1804 0 -1.67283)
(16.3558 0 -0.392062)
(16.3182 0 0.971538)
(16.0731 0 2.42007)
(15.6288 0 3.95205)
(14.9978 0 5.5615)
(14.1956 0 7.23639)
(13.2375 0 8.96039)
(12.1246 0 10.6936)
(10.7907 0 12.299)
(8.98749 0 13.4504)
(6.3965 0 13.8588)
(3.21365 0 13.8186)
(-0.22951 0 13.7618)
(-3.65537 0 13.8339)
(-6.78412 0 13.8468)
(-9.27559 0 13.3511)
(-10.9986 0 12.12)
(-12.2966 0 10.4867)
(-13.3902 0 8.75243)
(-14.3309 0 7.03589)
(-15.1146 0 5.37131)
(-15.7254 0 3.77428)
(-16.1483 0 2.25596)
(-16.3713 0 0.821507)
(-16.3863 0 -0.52819)
(-16.1883 0 -1.79586)
(-15.7745 0 -2.98823)
(-15.146 0 -4.11586)
(-14.3096 0 -5.19151)
(-13.2799 0 -6.22612)
(-12.0781 0 -7.22336)
(-10.7297 0 -8.17576)
(-9.25993 0 -9.06477)
(-7.69196 0 -9.86437)
(-6.04593 0 -10.5459)
(-4.33999 0 -11.0822)
(-2.59142 0 -11.4509)
(-0.81734 0 -11.6363)
(0.899061 0 -13.3502)
(2.54917 0 -13.135)
(4.17252 0 -12.7199)
(5.75154 0 -12.121)
(7.26829 0 -11.3602)
(8.70389 0 -10.4635)
(10.038 0 -9.45735)
(11.2486 0 -8.36582)
(12.3131 0 -7.20656)
(13.2099 0 -5.98884)
(13.9213 0 -4.71361)
(14.4355 0 -3.37613)
(14.7465 0 -1.96958)
(14.8531 0 -0.488012)
(14.7577 0 1.07189)
(14.4653 0 2.71002)
(13.9835 0 4.42261)
(13.3228 0 6.20189)
(12.4968 0 8.03459)
(11.5208 0 9.90124)
(10.4088 0 11.7746)
(9.1624 0 13.6097)
(7.69759 0 15.2689)
(5.75913 0 16.438)
(3.12294 0 16.9724)
(0.0711975 0 17.0949)
(-2.98585 0 16.9621)
(-5.63898 0 16.4294)
(-7.59588 0 15.2702)
(-9.06771 0 13.6145)
(-10.3153 0 11.7773)
(-11.4268 0 9.90038)
(-12.4017 0 8.02975)
(-13.2261 0 6.19259)
(-13.8848 0 4.40843)
(-14.3642 0 2.69069)
(-14.6539 0 1.04729)
(-14.7462 0 -0.517836)
(-14.6363 0 -2.0043)
(-14.3219 0 -3.41509)
(-13.8043 0 -4.75579)
(-13.0894 0 -6.03284)
(-12.1893 0 -7.25066)
(-11.1217 0 -8.40805)
(-9.90798 0 -9.49564)
(-8.57109 0 -10.4957)
(-7.13308 0 -11.3845)
(-5.61446 0 -12.1356)
(-4.03427 0 -12.7233)
(-2.41062 0 -13.1261)
(-0.761171 0 -13.3283)
(0.896499 0 -13.3217)
(2.54483 0 -13.1067)
(4.16626 0 -12.6918)
(5.74312 0 -12.0931)
(7.25727 0 -11.3325)
(8.68964 0 -10.4359)
(10.0196 0 -9.42948)
(11.2251 0 -8.33697)
(12.2833 0 -7.17561)
(13.1727 0 -5.9543)
(13.876 0 -4.6738)
(14.3816 0 -3.32945)
(14.6836 0 -1.91472)
(14.7811 0 -0.424095)
(14.6765 0 1.14528)
(14.3749 0 2.79284)
(13.8841 0 4.51442)
(13.2148 0 6.30179)
(12.3807 0 8.14115)
(11.397 0 10.0125)
(10.2777 0 11.8883)
(9.02122 0 13.7202)
(7.53285 0 15.3578)
(5.54307 0 16.4825)
(2.86056 0 16.9831)
(-0.205832 0 17.0943)
(-3.24647 0 16.9496)
(-5.85171 0 16.3819)
(-7.75835 0 15.1787)
(-9.20748 0 13.5028)
(-10.4453 0 11.6629)
(-11.5494 0 9.78841)
(-12.5165 0 7.92263)
(-13.3326 0 6.09217)
(-13.9825 0 4.3161)
(-14.4528 0 2.6073)
(-14.7332 0 0.97327)
(-14.8161 0 -0.58247)
(-14.697 0 -2.05999)
(-14.3734 0 -3.46274)
(-13.8469 0 -4.7967)
(-13.1238 0 -6.06862)
(-12.2162 0 -7.28295)
(-11.1422 0 -8.4383)
(-9.92326 0 -9.5249)
(-8.58219 0 -10.5246)
(-7.14088 0 -11.4134)
(-5.61961 0 -12.1644)
(-4.0372 0 -12.7521)
(-2.4116 0 -13.1548)
(-0.760356 0 -13.3569)
(0.825334 0 -14.9397)
(2.33751 0 -14.7062)
(3.82235 0 -14.2552)
(5.26191 0 -13.6023)
(6.63795 0 -12.769)
(7.93169 0 -11.7802)
(9.12364 0 -10.6614)
(10.1938 0 -9.43602)
(11.1224 0 -8.12246)
(11.8915 0 -6.7326)
(12.4866 0 -5.27178)
(12.8978 0 -3.74045)
(13.1202 0 -2.13666)
(13.1527 0 -0.458354)
(12.9977 0 1.2948)
(12.66 0 3.12008)
(12.1467 0 5.01106)
(11.4678 0 6.95717)
(10.6352 0 8.94317)
(9.66269 0 10.9494)
(8.56371 0 12.9528)
(7.35249 0 14.9254)
(6.02263 0 16.8109)
(4.46531 0 18.4341)
(2.46313 0 19.506)
(0.0619784 0 19.8691)
(-2.34578 0 19.5087)
(-4.36378 0 18.4418)
(-5.93065 0 16.821)
(-7.2634 0 14.9324)
(-8.47501 0 12.9556)
(-9.57379 0 10.9479)
(-10.5455 0 8.93717)
(-11.3769 0 6.94627)
(-12.0542 0 4.99488)
(-12.5655 0 3.09837)
(-12.9009 0 1.26748)
(-13.0532 0 -0.491147)
(-13.0178 0 -2.17452)
(-12.7924 0 -3.78265)
(-12.378 0 -5.31722)
(-11.7798 0 -6.77983)
(-11.0076 0 -8.16971)
(-10.076 0 -9.48128)
(-9.00296 0 -10.7025)
(-7.80836 0 -11.815)
(-6.51232 0 -12.7954)
(-5.13448 0 -13.6184)
(-3.69378 0 -14.2594)
(-2.20861 0 -14.6972)
(-0.69706 0 -14.9166)
(0.822904 0 -14.9095)
(2.33333 0 -14.6761)
(3.81626 0 -14.225)
(5.25358 0 -13.572)
(6.62692 0 -12.7384)
(7.91731 0 -11.7488)
(9.10508 0 -10.6289)
(10.1701 0 -9.40146)
(11.0926 0 -8.0848)
(11.8547 0 -6.69048)
(12.4421 0 -5.22375)
(12.8452 0 -3.68514)
(13.0591 0 -2.07294)
(13.083 0 -0.38547)
(12.9193 0 1.37716)
(12.5729 0 3.21178)
(12.0512 0 5.1115)
(11.364 0 7.0653)
(10.5237 0 9.0575)
(9.54391 0 11.0682)
(8.43803 0 13.0741)
(7.22037 0 15.0467)
(5.87951 0 16.9256)
(4.29607 0 18.5219)
(2.25401 0 19.5503)
(-0.163171 0 19.8675)
(-2.55308 0 19.4611)
(-4.53083 0 18.3512)
(-6.07245 0 16.7047)
(-7.39456 0 14.81)
(-8.59965 0 12.8334)
(-9.69142 0 10.8284)
(-10.6557 0 8.82214)
(-11.4793 0 6.83747)
(-12.1483 0 4.89377)
(-12.6509 0 3.00596)
(-12.9775 0 1.18434)
(-13.121 0 -0.564905)
(-13.0768 0 -2.23923)
(-12.8428 0 -3.83908)
(-12.4201 0 -5.3665)
(-11.814 0 -6.82332)
(-11.0347 0 -8.20883)
(-10.0969 0 -9.51733)
(-9.01866 0 -10.7365)
(-7.81981 0 -11.8477)
(-6.52034 0 -12.8273)
(-5.13974 0 -13.6498)
(-3.69677 0 -14.2903)
(-2.20964 0 -14.7278)
(-0.696327 0 -14.9469)
(0.744288 0 -16.384)
(2.10474 0 -16.132)
(3.43749 0 -15.6443)
(4.72448 0 -14.9366)
(5.94765 0 -14.03)
(7.08888 0 -12.9492)
(8.13006 0 -11.7195)
(9.0534 0 -10.3646)
(9.84214 0 -8.90428)
(10.4816 0 -7.35303)
(10.9601 0 -5.71993)
(11.27 0 -4.0097)
(11.4076 0 -2.22443)
(11.3727 0 -0.365484)
(11.168 0 1.56469)
(10.7987 0 3.56099)
(10.272 0 5.61474)
(9.59735 0 7.7131)
(8.78631 0 9.8389)
(7.85214 0 11.9711)
(6.80907 0 14.0865)
(5.67331 0 16.1622)
(4.46687 0 18.1634)
(3.17675 0 19.9875)
(1.71539 0 21.3544)
(0.0496671 0 21.8808)
(-1.62058 0 21.3661)
(-3.08958 0 20.0037)
(-4.38321 0 18.177)
(-5.59052 0 16.1704)
(-6.72661 0 14.0896)
(-7.76964 0 11.9693)
(-8.70328 0 9.83207)
(-9.51338 0 7.70095)
(-10.1867 0 5.59692)
(-10.7117 0 3.53729)
(-11.0791 0 1.53506)
(-11.2815 0 -0.400859)
(-11.3139 0 -2.26507)
(-11.1735 0 -4.05482)
(-10.8608 0 -5.76836)
(-10.3794 0 -7.40326)
(-9.73707 0 -8.95449)
(-8.94548 0 -10.4127)
(-8.0194 0 -11.7633)
(-6.97569 0 -12.9864)
(-5.83225 0 -14.0584)
(-4.60736 0 -14.9541)
(-3.31927 0 -15.6492)
(-1.98621 0 -16.1228)
(-0.626393 0 -16.3598)
(0.74197 0 -16.3521)
(2.10066 0 -16.1)
(3.43145 0 -15.6121)
(4.71617 0 -14.9038)
(5.93659 0 -13.9963)
(7.07444 0 -12.9141)
(8.11151 0 -11.6823)
(9.02991 0 -10.3245)
(9.81288 0 -8.86024)
(10.4458 0 -7.3038)
(10.9172 0 -5.66424)
(11.2196 0 -3.94635)
(11.3494 0 -2.15245)
(11.3066 0 -0.284249)
(11.094 0 1.6554)
(10.7167 0 3.66093)
(10.1824 0 5.72318)
(9.5004 0 7.82888)
(8.68244 0 9.96043)
(7.74187 0 12.0966)
(6.69293 0 14.2142)
(5.55227 0 16.2904)
(4.34154 0 18.2886)
(3.04226 0 20.0966)
(1.56303 0 21.4203)
(-0.11262 0 21.8784)
(-1.77189 0 21.2961)
(-3.2231 0 19.8921)
(-4.50785 0 18.0504)
(-5.71084 0 16.0411)
(-6.84188 0 13.961)
(-7.87892 0 11.843)
(-8.80605 0 9.70972)
(-9.60911 0 7.58438)
(-10.2749 0 5.48767)
(-10.7922 0 3.43651)
(-11.1516 0 1.44342)
(-11.3459 0 -0.483115)
(-11.3702 0 -2.33819)
(-11.2219 0 -4.11943)
(-10.9015 0 -5.82544)
(-10.4128 0 -7.45398)
(-9.7639 0 -9.0001)
(-8.96644 0 -10.4544)
(-8.03533 0 -11.802)
(-6.98742 0 -13.023)
(-5.84055 0 -14.0935)
(-4.61284 0 -14.988)
(-3.32242 0 -15.6822)
(-1.98738 0 -16.1553)
(-0.625784 0 -16.3919)
(0.656722 0 -17.6702)
(1.85332 0 -17.3995)
(3.02239 0 -16.875)
(4.14619 0 -16.1125)
(5.20727 0 -15.1335)
(6.18862 0 -13.9627)
(7.07382 0 -12.626)
(7.84743 0 -11.1482)
(8.4955 0 -9.5507)
(9.00628 0 -7.85061)
(9.37095 0 -6.06029)
(9.584 0 -4.18804)
(9.64332 0 -2.2394)
(9.54987 0 -0.218792)
(9.30727 0 1.86881)
(8.92142 0 4.01608)
(8.40026 0 6.2123)
(7.75367 0 8.44266)
(6.99348 0 10.6881)
(6.13367 0 12.9255)
(5.19064 0 15.1293)
(4.18456 0 17.2727)
(3.14631 0 19.3213)
(2.11041 0 21.1864)
(1.08044 0 22.6157)
(0.0382401 0 23.1822)
(-1.00484 0 22.6302)
(-2.03579 0 21.2048)
(-3.07167 0 19.3357)
(-4.10976 0 17.2813)
(-5.11589 0 15.1325)
(-6.05879 0 12.9234)
(-6.91815 0 10.6806)
(-7.67756 0 8.4295)
(-8.32306 0 6.19313)
(-8.84282 0 3.9907)
(-9.22697 0 1.8372)
(-9.46761 0 -0.256403)
(-9.55886 0 -2.2825)
(-9.49715 0 -4.23576)
(-9.28156 0 -6.11143)
(-8.91425 0 -7.90362)
(-8.40078 0 -9.6037)
(-7.75003 0 -11.199)
(-6.97382 0 -12.6724)
(-6.08621 0 -14.0022)
(-5.10276 0 -15.1638)
(-4.04003 0 -16.1315)
(-2.91519 0 -16.8806)
(-1.74586 0 -17.3901)
(-0.549922 0 -17.6448)
(0.654527 0 -17.6365)
(1.84934 0 -17.3656)
(3.01645 0 -16.8406)
(4.13797 0 -16.0772)
(5.19632 0 -15.0967)
(6.17439 0 -13.9238)
(7.05566 0 -12.5844)
(7.82464 0 -11.1029)
(8.46739 0 -9.50076)
(8.97224 0 -7.79486)
(9.33049 0 -5.9976)
(9.53678 0 -4.11739)
(9.58914 0 -2.15996)
(9.48867 0 -0.130044)
(9.2391 0 1.96697)
(8.84644 0 4.1233)
(8.31874 0 6.32774)
(7.66599 0 8.56504)
(6.90016 0 10.8157)
(6.03538 0 13.0565)
(5.08822 0 15.2616)
(4.07938 0 17.4043)
(3.04078 0 19.4492)
(2.00582 0 21.2997)
(0.975209 0 22.6869)
(-0.0680046 0 23.1795)
(-1.10989 0 22.5548)
(-2.1402 0 21.0891)
(-3.17693 0 19.2063)
(-4.21447 0 17.1485)
(-5.21765 0 14.9992)
(-6.1563 0 12.7915)
(-7.01056 0 10.552)
(-7.76421 0 8.3062)
(-8.40343 0 6.07675)
(-8.91652 0 3.88251)
(-9.29374 0 1.73799)
(-9.52727 0 -0.346307)
(-9.61137 0 -2.36322)
(-9.54257 0 -4.30781)
(-9.32009 0 -6.17563)
(-8.94624 0 -7.96098)
(-8.42672 0 -9.65532)
(-7.77056 0 -11.246)
(-6.98962 0 -12.7157)
(-6.09799 0 -14.0426)
(-5.11118 0 -15.202)
(-4.04567 0 -16.1679)
(-2.91851 0 -16.9158)
(-1.74718 0 -17.4245)
(-0.54945 0 -17.6786)
(0.563452 0 -18.7868)
(1.58568 0 -18.4977)
(2.58129 0 -17.9372)
(3.5333 0 -17.1215)
(4.42533 0 -16.0725)
(5.24181 0 -14.8158)
(5.96827 0 -13.3784)
(6.59159 0 -11.7863)
(7.1005 0 -10.0632)
(7.48599 0 -8.22853)
(7.74178 0 -6.29769)
(7.86456 0 -4.2821)
(7.85399 0 -2.19032)
(7.71245 0 -0.0294683)
(7.44481 0 2.19309)
(7.05807 0 4.46793)
(6.56119 0 6.78239)
(5.96502 0 9.11971)
(5.28248 0 11.4586)
(4.52897 0 13.7734)
(3.72331 0 16.0344)
(2.88966 0 18.2075)
(2.06313 0 20.2479)
(1.29256 0 22.0624)
(0.618198 0 23.4225)
(0.029562 0 23.9542)
(-0.557882 0 23.4357)
(-1.22992 0 22.0793)
(-1.99864 0 20.2614)
(-2.82424 0 18.2158)
(-3.65746 0 16.0373)
(-4.46275 0 13.771)
(-5.21574 0 11.4506)
(-5.89757 0 9.10569)
(-6.49279 0 6.76207)
(-6.98847 0 4.44113)
(-7.37377 0 2.15979)
(-7.63972 0 -0.0690102)
(-7.77936 0 -2.23555)
(-7.78784 0 -4.33214)
(-7.6628 0 -6.35129)
(-7.40462 0 -8.28409)
(-7.01667 0 -10.1188)
(-6.50528 0 -11.8397)
(-5.87953 0 -13.4272)
(-5.15081 0 -14.8575)
(-4.33234 0 -16.1047)
(-3.43876 0 -17.1417)
(-2.48579 0 -17.9434)
(-1.48996 0 -18.4881)
(-0.468401 0 -18.7602)
(0.561414 0 -18.7514)
(1.58189 0 -18.462)
(2.57557 0 -17.9007)
(3.52537 0 -17.0837)
(4.41478 0 -16.0328)
(5.22818 0 -14.7734)
(5.95098 0 -13.3326)
(6.57008 0 -11.7363)
(7.07421 0 -10.0079)
(7.45444 0 -8.16695)
(7.7046 0 -6.22881)
(7.82151 0 -4.20503)
(7.80496 0 -2.10437)
(7.65747 0 0.0657554)
(7.38402 0 2.29758)
(6.99173 0 4.58122)
(6.48967 0 6.90353)
(5.88884 0 9.24728)
(5.20229 0 11.5908)
(4.44564 0 13.908)
(3.63802 0 16.1689)
(2.80416 0 18.3394)
(1.98037 0 20.3731)
(1.21614 0 22.1704)
(0.549613 0 23.4891)
(-0.0352093 0 23.9516)
(-0.626755 0 23.3649)
(-1.3066 0 21.9687)
(-2.08142 0 20.1345)
(-2.90951 0 18.0826)
(-3.74234 0 15.9016)
(-4.54552 0 13.6354)
(-5.29525 0 11.3174)
(-5.97294 0 8.97708)
(-6.56337 0 6.63989)
(-7.05377 0 4.32674)
(-7.43339 0 2.05412)
(-7.69342 0 -0.165519)
(-7.82697 0 -2.32291)
(-7.82935 0 -4.41074)
(-7.69831 0 -6.4218)
(-7.43439 0 -8.34739)
(-7.04107 0 -10.1758)
(-6.52481 0 -11.8916)
(-5.89474 0 -13.4747)
(-5.16229 0 -14.9015)
(-4.34066 0 -16.1458)
(-3.44441 0 -17.1807)
(-2.48918 0 -17.9808)
(-1.4914 0 -18.5244)
(-0.468065 0 -18.7958)
(0.46522 0 -19.724)
(1.30402 0 -19.4173)
(2.1179 0 -18.8226)
(2.89113 0 -17.9566)
(3.60883 0 -16.842)
(4.25721 0 -15.5057)
(4.82384 0 -13.9758)
(5.29798 0 -12.2805)
(5.67086 0 -10.4451)
(5.936 0 -8.49192)
(6.0895 0 -6.43889)
(6.13012 0 -4.30027)
(6.05931 0 -2.08732)
(5.88101 0 0.190358)
(5.60144 0 2.52316)
(5.22886 0 4.89966)
(4.77341 0 7.30528)
(4.24711 0 9.72126)
(3.66407 0 12.124)
(3.04107 0 14.4845)
(2.39858 0 16.7683)
(1.76263 0 18.9337)
(1.16848 0 20.924)
(0.662893 0 22.6398)
(0.286803 0 23.8805)
(0.0230777 0 24.3528)
(-0.238925 0 23.8912)
(-0.611707 0 22.6539)
(-1.11469 0 20.9358)
(-1.70732 0 18.941)
(-2.34239 0 16.7706)
(-2.98422 0 14.4815)
(-3.60657 0 12.1153)
(-4.18888 0 9.70643)
(-4.71432 0 7.28396)
(-5.16872 0 4.87163)
(-5.54007 0 2.48842)
(-5.81822 0 0.149163)
(-5.9949 0 -2.13441)
(-6.06391 0 -4.35234)
(-6.02132 0 -6.49467)
(-5.86571 0 -8.54978)
(-5.59836 0 -10.5031)
(-5.22324 0 -12.3362)
(-4.74689 0 -14.0269)
(-4.17817 0 -15.5494)
(-3.52797 0 -16.8759)
(-2.80885 0 -17.978)
(-2.03473 0 -18.8294)
(-1.22066 0 -19.4075)
(-0.382511 0 -19.6962)
(0.463385 0 -19.6869)
(1.30052 0 -19.3798)
(2.11258 0 -18.7841)
(2.88375 0 -17.9164)
(3.59904 0 -16.7995)
(4.2446 0 -15.4601)
(4.80796 0 -13.9264)
(5.27838 0 -12.2262)
(5.6471 0 -10.3852)
(5.90773 0 -8.42529)
(6.05646 0 -6.3647)
(6.09219 0 -4.21776)
(6.01648 0 -1.99594)
(5.83341 0 0.290871)
(5.54932 0 2.63268)
(5.1726 0 5.0176)
(4.71352 0 7.43056)
(4.18422 0 9.85232)
(3.599 0 12.2587)
(2.97486 0 14.6205)
(2.33263 0 16.9027)
(1.69888 0 19.063)
(1.10984 0 21.0433)
(0.612988 0 22.7387)
(0.247237 0 23.9393)
(-0.0115168 0 24.3505)
(-0.278925 0 23.8284)
(-0.662061 0 22.5522)
(-1.17355 0 20.8146)
(-1.77107 0 18.8101)
(-2.40816 0 16.6349)
(-3.0501 0 14.3442)
(-3.67119 0 11.9793)
(-4.2512 0 9.57422)
(-4.77352 0 7.15751)
(-5.22418 0 4.75248)
(-5.59127 0 2.3776)
(-5.86479 0 0.0472457)
(-6.03659 0 -2.22731)
(-6.10058 0 -4.43649)
(-6.05298 0 -6.57061)
(-5.8925 0 -8.61825)
(-5.62054 0 -10.5649)
(-5.24117 0 -12.3924)
(-4.761 0 -14.0782)
(-4.18894 0 -15.5967)
(-3.53586 0 -16.9199)
(-2.81427 0 -18.0194)
(-2.03804 0 -18.8688)
(-1.22213 0 -19.4456)
(-0.382295 0 -19.7335)
(0.362665 0 -20.4732)
(1.01019 0 -20.1504)
(1.63531 0 -19.5243)
(2.22404 0 -18.6124)
(2.76339 0 -17.4386)
(3.24162 0 -16.0308)
(3.64852 0 -14.4192)
(3.9757 0 -12.6334)
(4.21675 0 -10.7012)
(4.36754 0 -8.64719)
(4.42629 0 -6.49183)
(4.39372 0 -4.25193)
(4.27293 0 -1.94123)
(4.06935 0 0.42839)
(3.79051 0 2.84522)
(3.44587 0 5.29593)
(3.04664 0 7.76411)
(2.60579 0 10.229)
(2.13831 0 12.6646)
(1.66162 0 15.0389)
(1.19645 0 17.3129)
(0.768071 0 19.4384)
(0.408008 0 21.3507)
(0.153599 0 22.9488)
(0.0323277 0 24.0632)
(0.0178216 0 24.4757)
(0.00489413 0 24.0711)
(-0.113192 0 22.9598)
(-0.36486 0 21.3603)
(-0.723089 0 19.4444)
(-1.15025 0 17.3143)
(-1.61451 0 15.0351)
(-2.09041 0 12.6552)
(-2.55713 0 10.2134)
(-2.99716 0 7.74188)
(-3.39548 0 5.26685)
(-3.73909 0 2.80926)
(-4.01675 0 0.385806)
(-4.21899 0 -1.98989)
(-4.33828 0 -4.30574)
(-4.3692 0 -6.5495)
(-4.30865 0 -8.70706)
(-4.15596 0 -10.7613)
(-3.91295 0 -12.6913)
(-3.58382 0 -14.4723)
(-3.17507 0 -16.0765)
(-2.69521 0 -17.474)
(-2.15458 0 -18.635)
(-1.56505 0 -19.5316)
(-0.939769 0 -20.1404)
(-0.29283 0 -20.4443)
(0.361085 0 -20.4345)
(1.00711 0 -20.1112)
(1.6306 0 -19.484)
(2.21749 0 -18.5702)
(2.75472 0 -17.3936)
(3.2305 0 -15.9824)
(3.6346 0 -14.3664)
(3.95862 0 -12.5755)
(4.19622 0 -10.6373)
(4.34331 0 -8.57634)
(4.39822 0 -6.41329)
(4.36179 0 -4.16507)
(4.23725 0 -1.84561)
(4.03016 0 0.532903)
(3.74818 0 2.95836)
(3.40089 0 5.41699)
(2.99962 0 7.89188)
(2.55751 0 10.3617)
(2.08969 0 12.8001)
(1.61382 0 15.1743)
(1.15092 0 17.445)
(0.726698 0 19.5631)
(0.373281 0 21.4623)
(0.128252 0 23.0377)
(0.0169983 0 24.1139)
(0.00704747 0 24.4736)
(-0.010866 0 24.0167)
(-0.139047 0 22.8681)
(-0.399954 0 21.2466)
(-0.76465 0 19.3179)
(-1.19582 0 17.1807)
(-1.66221 0 14.8983)
(-2.1388 0 12.5184)
(-2.60507 0 10.0794)
(-3.04372 0 7.61283)
(-3.43991 0 5.14446)
(-3.78076 0 2.69471)
(-4.05517 0 0.279779)
(-4.2538 0 -2.08714)
(-4.36924 0 -4.39436)
(-4.3962 0 -6.6299)
(-4.33172 0 -8.77985)
(-4.17524 0 -10.8272)
(-3.92868 0 -12.7511)
(-3.59632 0 -14.5269)
(-3.18469 0 -16.1267)
(-2.70232 0 -17.5205)
(-2.15952 0 -18.6786)
(-1.56811 0 -19.5729)
(-0.94117 0 -20.1801)
(-0.292715 0 -20.4832)
(0.256332 0 -21.0269)
(0.705769 0 -20.69)
(1.13611 0 -20.0365)
(1.53559 0 -19.0847)
(1.89349 0 -17.8596)
(2.20039 0 -16.3908)
(2.44845 0 -14.7099)
(2.63157 0 -12.8487)
(2.74563 0 -10.837)
(2.7886 0 -8.70148)
(2.76063 0 -6.46508)
(2.6641 0 -4.14691)
(2.50363 0 -1.76296)
(2.28588 0 0.672772)
(2.01951 0 3.14662)
(1.71489 0 5.64352)
(1.38398 0 8.14536)
(1.04028 0 10.6296)
(0.698999 0 13.0681)
(0.377246 0 15.4264)
(0.0945267 0 17.6621)
(-0.12678 0 19.7228)
(-0.261314 0 21.5403)
(-0.283418 0 23.0178)
(-0.180976 0 24.016)
(0.0132041 0 24.3768)
(0.208641 0 24.0217)
(0.313774 0 23.026)
(0.29423 0 21.5475)
(0.161625 0 19.7271)
(-0.0582755 0 17.6623)
(-0.339922 0 15.4217)
(-0.660792 0 13.0579)
(-1.00129 0 10.6132)
(-1.34422 0 8.12231)
(-1.67436 0 5.61355)
(-1.97814 0 3.10967)
(-2.24358 0 0.629061)
(-2.46028 0 -1.81289)
(-2.61958 0 -4.20214)
(-2.71479 0 -6.52431)
(-2.74133 0 -8.76303)
(-2.69682 0 -10.8988)
(-2.58114 0 -12.9084)
(-2.39639 0 -14.7648)
(-2.14678 0 -16.4381)
(-1.83849 0 -17.8964)
(-1.47949 0 -19.1082)
(-1.0793 0 -20.0442)
(-0.648803 0 -20.6798)
(-0.19985 0 -20.9971)
(0.255062 0 -20.9868)
(0.703237 0 -20.6494)
(1.13221 0 -19.9945)
(1.53016 0 -19.0406)
(1.88631 0 -17.8126)
(2.19121 0 -16.34)
(2.437 0 -14.6545)
(2.61761 0 -12.7878)