/*--------------------------------*- C++ -*----------------------------------*\
| =========                 |                                                 |
| \\      /  F ield         | OpenFOAM: The Open Source CFD Toolbox           |
|  \\    /   O peration     | Version:  2.3.0                                 |
|   \\  /    A nd           | Web:      www.OpenFOAM.org                      |
|    \\/     M anipulation  |                                                 |
\*---------------------------------------------------------------------------*/
FoamFile
{
    version     2.0;
    format      ascii;
    class       volVectorField;
    location    "22000";
    object      U;
}
// * * * * * * * * * * * * * * * * * * * * * * * * * * * * * * * * * * * * * //

dimensions      [0 1 -1 0 0 0 0];

internalField   nonuniform List<vector> 
765
(
(46.1617 0 0.555782)
(46.2945 0 -0.0285655)
(47.704 0 -0.805607)
(50.5669 0 -1.66721)
(54.6493 0 -2.32361)
(58.9431 0 -2.27615)
(61.3811 0 -0.920455)
(58.8765 0 2.06786)
(47.8959 0 6.53249)
(25.7364 0 11.3249)
(-5.71096 0 13.2994)
(-34.983 0 9.77203)
(-53.0486 0 4.84869)
(-60.6949 0 0.826778)
(-61.0601 0 -1.56517)
(-57.652 0 -2.42377)
(-53.2199 0 -2.15703)
(-49.4792 0 -1.3762)
(-47.1171 0 -0.516334)
(-46.1839 0 0.201178)
(-46.4248 0 0.719935)
(-47.5036 0 1.07402)
(-49.1418 0 1.35575)
(-51.1937 0 1.65057)
(-53.618 0 2.03881)
(-56.4634 0 2.61174)
(-59.8704 0 3.48174)
(-64.0637 0 4.73671)
(-69.2006 0 6.26223)
(-75.0896 0 7.29286)
(-79.763 0 5.60364)
(-78.0916 0 -0.683983)
(-67.7771 0 -9.5494)
(-50.7965 0 -18.4395)
(-29.0471 0 -24.6173)
(-6.86965 0 -25.7146)
(15.3626 0 -25.5387)
(37.5082 0 -22.9307)
(58.0913 0 -15.0819)
(72.6746 0 -6.06093)
(79.8114 0 2.36738)
(78.2175 0 6.76413)
(72.678 0 7.01701)
(67.0402 0 5.62972)
(62.3054 0 4.18077)
(58.4622 0 3.08938)
(55.3025 0 2.3548)
(52.6329 0 1.86904)
(50.3512 0 1.52922)
(48.4417 0 1.25224)
(46.9799 0 0.957477)
(81.2392 0 0.0819977)
(82.9397 0 -1.6391)
(85.7401 0 -3.69107)
(89.5625 0 -5.61083)
(93.8432 0 -6.47772)
(97.2309 0 -4.8694)
(97.3135 0 0.845605)
(90.4 0 11.9216)
(72.0188 0 28.0667)
(38.418 0 45.2416)
(-8.53634 0 52.1137)
(-52.2343 0 39.7246)
(-80.1943 0 22.0097)
(-94.0826 0 7.40137)
(-98.0336 0 -1.74523)
(-96.3954 0 -5.87182)
(-92.4572 0 -6.41164)
(-88.2138 0 -5.023)
(-84.704 0 -2.96739)
(-82.2864 0 -0.990427)
(-80.9288 0 0.573747)
(-80.4082 0 1.65651)
(-80.4214 0 2.36916)
(-80.6441 0 2.85509)
(-80.7681 0 3.23194)
(-80.4757 0 3.58479)
(-79.4095 0 3.96283)
(-77.1436 0 4.29011)
(-73.1327 0 4.13675)
(-66.9263 0 2.20958)
(-57.7486 0 -4.21149)
(-45.5269 0 -15.1269)
(-32.2427 0 -22.2493)
(-21.0247 0 -24.2978)
(-11.9574 0 -25.9983)
(-2.95203 0 -26.8651)
(6.24006 0 -26.6707)
(15.2298 0 -25.4316)
(24.7774 0 -23.7322)
(37.2202 0 -20.6963)
(50.5428 0 -10.4871)
(61.686 0 -1.00608)
(69.6629 0 3.27238)
(74.9618 0 4.2693)
(78.2253 0 4.16012)
(79.9617 0 3.80231)
(80.6724 0 3.44494)
(80.752 0 3.09747)
(80.539 0 2.69669)
(80.3405 0 2.14957)
(80.4673 0 1.32621)
(85.555 0 -1.94874)
(87.9752 0 -4.4422)
(90.8331 0 -7.19939)
(93.8851 0 -9.40519)
(96.529 0 -9.56335)
(97.6161 0 -5.4197)
(95.2327 0 5.74321)
(86.5475 0 26.2866)
(67.9247 0 56.0637)
(36.0101 0 87.936)
(-7.97968 0 100.494)
(-48.9621 0 77.7033)
(-75.9113 0 44.8568)
(-90.6405 0 17.9357)
(-96.7 0 0.804583)
(-97.577 0 -7.5956)
(-95.7692 0 -9.91702)
(-92.8772 0 -8.80658)
(-89.8379 0 -6.26548)
(-87.1088 0 -3.53124)
(-84.8424 0 -1.22521)
(-83.0098 0 0.422578)
(-81.4486 0 1.39689)
(-79.886 0 1.77772)
(-77.9632 0 1.63735)
(-75.2408 0 1.00806)
(-71.2016 0 -0.105276)
(-65.2991 0 -1.73444)
(-57.1726 0 -4.04132)
(-47.1799 0 -7.56893)
(-35.9689 0 -13.5879)
(-28.4923 0 -22.4674)
(-22.5105 0 -29.494)
(-16.145 0 -33.2276)
(-9.26232 0 -35.1112)
(-2.26446 0 -35.8914)
(4.78631 0 -35.727)
(11.7658 0 -34.5858)
(18.4885 0 -32.1652)
(24.6682 0 -27.3725)
(30.6069 0 -18.8648)
(40.3325 0 -10.9616)
(51.3083 0 -6.05938)
(60.6533 0 -3.07733)
(67.8891 0 -1.04442)
(72.9862 0 0.39194)
(76.4299 0 1.32616)
(78.7658 0 1.77497)
(80.4811 0 1.72891)
(81.9828 0 1.14421)
(83.5969 0 -0.0614362)
(76.6083 0 -4.2017)
(78.5882 0 -6.84921)
(80.4394 0 -9.56214)
(81.8585 0 -11.2954)
(82.3282 0 -10.2126)
(81.0201 0 -3.56574)
(76.6875 0 12.0282)
(67.6302 0 39.6222)
(51.6964 0 79.3498)
(26.8912 0 121.966)
(-5.86429 0 138.582)
(-36.6427 0 108.305)
(-58.1884 0 64.3887)
(-71.4866 0 28.4568)
(-78.6663 0 5.25648)
(-81.7828 0 -6.79948)
(-82.3594 0 -11.1153)
(-81.4821 0 -10.9332)
(-79.8618 0 -8.68588)
(-77.9329 0 -5.90688)
(-75.9409 0 -3.42116)
(-73.9901 0 -1.60288)
(-72.0703 0 -0.594664)
(-70.0478 0 -0.439945)
(-67.6611 0 -1.18073)
(-64.5263 0 -2.87796)
(-60.1562 0 -5.56822)
(-54.0419 0 -9.16427)
(-45.9077 0 -13.3784)
(-36.3864 0 -17.7992)
(-26.1813 0 -22.4603)
(-20.3595 0 -28.3674)
(-16.183 0 -34.4072)
(-11.8279 0 -38.353)
(-6.93402 0 -40.8263)
(-1.71697 0 -41.9633)
(3.59706 0 -41.7065)
(8.70834 0 -40.0713)
(13.3924 0 -37.1069)
(17.5805 0 -32.4536)
(21.9035 0 -26.1224)
(30.0655 0 -20.6917)
(40.2025 0 -16.1507)
(49.3122 0 -11.7146)
(56.653 0 -7.66333)
(62.0196 0 -4.38095)
(65.833 0 -2.06671)
(68.6093 0 -0.740368)
(70.7998 0 -0.34309)
(72.742 0 -0.816258)
(74.6495 0 -2.12312)
(60.9637 0 -5.81024)
(61.8139 0 -8.19182)
(62.148 0 -10.3926)
(61.6964 0 -11.2386)
(60.1003 0 -8.72004)
(56.8826 0 0.149758)
(51.4383 0 19.0312)
(43.1227 0 51.2024)
(31.2492 0 96.7872)
(15.4962 0 145.217)
(-3.2166 0 163.836)
(-21.253 0 129.798)
(-35.7306 0 79.7151)
(-46.3474 0 38.3062)
(-53.6208 0 10.9968)
(-58.2466 0 -3.94842)
(-60.8533 0 -10.1921)
(-62.0086 0 -11.2382)
(-62.1505 0 -9.73469)
(-61.6067 0 -7.37101)
(-60.6217 0 -5.09363)
(-59.3638 0 -3.38439)
(-57.9216 0 -2.49331)
(-56.2869 0 -2.58877)
(-54.3316 0 -3.84447)
(-51.7923 0 -6.44963)
(-48.2838 0 -10.5217)
(-43.3648 0 -15.8917)
(-36.7181 0 -21.8367)
(-28.837 0 -26.952)
(-20.1973 0 -29.9002)
(-14.2778 0 -33.0048)
(-11.0289 0 -38.2555)
(-7.99246 0 -42.3518)
(-4.68419 0 -45.111)
(-1.17022 0 -46.4024)
(2.41871 0 -46.1048)
(5.86199 0 -44.2517)
(9.04415 0 -40.9746)
(12.1145 0 -36.3505)
(15.7174 0 -31.8261)
(23.504 0 -29.1804)
(31.864 0 -25.2639)
(39.4251 0 -19.5555)
(45.3946 0 -13.6663)
(49.7174 0 -8.73246)
(52.7974 0 -5.22213)
(55.067 0 -3.15347)
(56.87 0 -2.35924)
(58.4179 0 -2.65038)
(59.7921 0 -3.86073)
(40.2502 0 -6.25634)
(39.7972 0 -8.07545)
(38.6405 0 -9.50106)
(36.6114 0 -9.32577)
(33.5458 0 -5.50661)
(29.3039 0 4.96402)
(23.8435 0 25.7042)
(17.3476 0 59.8488)
(10.3603 0 107.175)
(4.10714 0 156.479)
(-0.596841 0 175.119)
(-5.81003 0 140.98)
(-12.6121 0 89.6416)
(-19.6128 0 46.3288)
(-25.8455 0 17.0451)
(-30.9324 0 0.305189)
(-34.776 0 -7.45113)
(-37.472 0 -9.70647)
(-39.1814 0 -9.13941)
(-40.0752 0 -7.47456)
(-40.3226 0 -5.6959)
(-40.0813 0 -4.33365)
(-39.4841 0 -3.7037)
(-38.6128 0 -4.06822)
(-37.4653 0 -5.72212)
(-35.923 0 -8.98843)
(-33.74 0 -14.0903)
(-30.579 0 -20.8519)
(-26.1146 0 -28.2876)
(-20.531 0 -34.3988)
(-14.1412 0 -36.862)
(-8.70415 0 -37.4588)
(-6.50306 0 -40.9983)
(-4.64379 0 -44.8073)
(-2.73467 0 -47.7132)
(-0.693353 0 -49.1413)
(1.39962 0 -48.8063)
(3.39872 0 -46.782)
(5.22977 0 -43.4792)
(7.28236 0 -39.4888)
(10.3224 0 -37.2509)
(16.6967 0 -36.6175)
(22.6466 0 -32.45)
(27.8781 0 -25.4609)
(31.8134 0 -18.0636)
(34.5647 0 -11.8621)
(36.4755 0 -7.47001)
(37.8531 0 -4.85551)
(38.8958 0 -3.72864)
(39.6761 0 -3.76873)
(40.1619 0 -4.69901)
(15.8937 0 -5.47675)
(14.3522 0 -6.61955)
(12.1082 0 -7.25201)
(9.1105 0 -6.19716)
(5.36957 0 -1.46806)
(1.03397 0 9.80239)
(-3.47792 0 30.9696)
(-7.33339 0 64.7322)
(-8.96069 0 110.228)
(-6.06341 0 156.254)
(1.68439 0 173.371)
(8.08021 0 142.06)
(8.99899 0 93.6474)
(6.25955 0 51.5588)
(1.96837 0 22.2831)
(-2.5964 0 4.9282)
(-6.77873 0 -3.70826)
(-10.2793 0 -6.88276)
(-13.0195 0 -7.17351)
(-15.0171 0 -6.2649)
(-16.3394 0 -5.11709)
(-17.0876 0 -4.24922)
(-17.3876 0 -3.9865)
(-17.3663 0 -4.63321)
(-17.1109 0 -6.56503)
(-16.6265 0 -10.2174)
(-15.8129 0 -15.9281)
(-14.4789 0 -23.5776)
(-12.4015 0 -32.07)
(-9.62071 0 -39.0701)
(-6.17502 0 -41.6947)
(-3.14848 0 -40.4854)
(-2.30757 0 -42.5753)
(-1.67267 0 -46.058)
(-1.03462 0 -49.0181)
(-0.275356 0 -50.535)
(0.522702 0 -50.1743)
(1.24194 0 -48.0442)
(1.81864 0 -44.8324)
(2.61101 0 -41.6976)
(4.25504 0 -41.0744)
(7.65383 0 -41.4162)
(10.6396 0 -36.7492)
(13.1389 0 -28.8067)
(14.9015 0 -20.4191)
(16.0257 0 -13.448)
(16.7177 0 -8.5468)
(17.1306 0 -5.60144)
(17.3228 0 -4.20669)
(17.255 0 -3.94102)
(16.8218 0 -4.46192)
(-9.72252 0 -3.79613)
(-11.9169 0 -4.30186)
(-14.7281 0 -4.27073)
(-18.1144 0 -2.59281)
(-21.9118 0 2.57552)
(-25.6996 0 13.8179)
(-28.6495 0 34.0744)
(-29.3136 0 65.3602)
(-25.4165 0 106.1)
(-14.3474 0 145.906)
(3.45387 0 160.54)
(19.4754 0 133.927)
(27.6648 0 91.5692)
(29.5769 0 53.3707)
(27.8274 0 25.9049)
(24.4191 0 9.06112)
(20.5387 0 0.232662)
(16.8401 0 -3.47326)
(13.6323 0 -4.41371)
(11.0248 0 -4.1657)
(9.03075 0 -3.63341)
(7.60151 0 -3.29068)
(6.63405 0 -3.4289)
(5.98637 0 -4.34873)
(5.51846 0 -6.4652)
(5.13387 0 -10.2867)
(4.7875 0 -16.2307)
(4.47166 0 -24.2282)
(4.1769 0 -33.1508)
(3.7756 0 -40.5437)
(3.64381 0 -43.3136)
(2.7236 0 -41.159)
(1.86435 0 -42.611)
(1.12893 0 -46.0525)
(0.549923 0 -49.1139)
(0.112497 0 -50.7097)
(-0.28562 0 -50.3257)
(-0.777699 0 -48.0872)
(-1.43383 0 -44.8212)
(-2.15945 0 -42.0408)
(-3.33446 0 -42.1673)
(-3.82625 0 -42.8728)
(-4.19064 0 -37.9851)
(-4.53977 0 -29.6897)
(-4.811 0 -20.9331)
(-5.10147 0 -13.6759)
(-5.42224 0 -8.57699)
(-5.79834 0 -5.46437)
(-6.29233 0 -3.85688)
(-7.01726 0 -3.27203)
(-8.11725 0 -3.34392)
(-33.8227 0 -1.68413)
(-36.2247 0 -1.61507)
(-39.1866 0 -1.04796)
(-42.583 0 0.997891)
(-46.0726 0 6.1314)
(-48.9499 0 16.5419)
(-49.9808 0 34.582)
(-47.2307 0 61.5337)
(-38.1516 0 95.4232)
(-20.4526 0 127.419)
(4.65171 0 139.119)
(27.8975 0 118.066)
(42.3329 0 83.6315)
(48.846 0 51.4137)
(49.9604 0 27.4399)
(48.0735 0 12.2229)
(44.8548 0 3.88517)
(41.3251 0 0.0335073)
(38.0425 0 -1.35468)
(35.2558 0 -1.66688)
(33.0412 0 -1.70211)
(31.3756 0 -1.86272)
(30.1557 0 -2.38033)
(29.2107 0 -3.52256)
(28.3485 0 -5.71308)
(27.3932 0 -9.48556)
(26.1579 0 -15.2634)
(24.4173 0 -22.9597)
(21.8758 0 -31.4276)
(18.2234 0 -38.3248)
(14.2362 0 -40.8079)
(8.66549 0 -38.8367)
(6.11875 0 -40.7822)
(3.99333 0 -44.7327)
(2.18183 0 -48.0233)
(0.507849 0 -49.6995)
(-1.13274 0 -49.2962)
(-2.86906 0 -46.9322)
(-4.7625 0 -43.3382)
(-7.04701 0 -39.7669)
(-11.472 0 -39.6718)
(-16.3298 0 -40.4846)
(-20.1468 0 -35.9992)
(-23.2934 0 -28.2148)
(-25.4153 0 -19.8531)
(-26.8778 0 -12.8364)
(-27.9364 0 -7.84929)
(-28.8013 0 -4.73339)
(-29.6452 0 -2.99433)
(-30.6448 0 -2.12592)
(-31.9877 0 -1.76653)
(-53.6869 0 0.443563)
(-55.9622 0 1.06805)
(-58.7648 0 2.09169)
(-61.8807 0 4.29324)
(-64.8027 0 8.93987)
(-66.5737 0 17.7285)
(-65.6284 0 32.368)
(-59.7723 0 53.5706)
(-46.5282 0 79.4186)
(-24.2426 0 103.113)
(5.27541 0 111.785)
(33.0854 0 96.4101)
(52.1349 0 70.6609)
(62.5447 0 45.7786)
(66.3927 0 26.6852)
(66.1577 0 14.1626)
(63.828 0 6.98032)
(60.7418 0 3.34045)
(57.6812 0 1.66147)
(55.0343 0 0.840971)
(52.944 0 0.247654)
(51.4072 0 -0.411149)
(50.3047 0 -1.27476)
(49.407 0 -2.54962)
(48.4405 0 -4.64832)
(47.1409 0 -8.09019)
(45.1881 0 -13.2318)
(42.1884 0 -19.9063)
(37.6489 0 -26.9616)
(31.198 0 -32.397)
(23.6722 0 -34.1589)
(14.1842 0 -33.6831)
(10.5085 0 -37.4373)
(7.18232 0 -42.1528)
(4.03106 0 -45.6719)
(0.947504 0 -47.3875)
(-2.14287 0 -46.9728)
(-5.27761 0 -44.5164)
(-8.45382 0 -40.4119)
(-12.0475 0 -35.0248)
(-17.7913 0 -33.6362)
(-27.0612 0 -34.079)
(-34.1147 0 -30.712)
(-39.837 0 -24.4175)
(-43.6797 0 -17.3051)
(-46.1977 0 -11.1398)
(-47.8281 0 -6.64927)
(-48.9464 0 -3.75879)
(-49.8377 0 -2.023)
(-50.7608 0 -0.939394)
(-51.9791 0 -0.169517)
(-66.4991 0 2.31976)
(-68.4018 0 3.48384)
(-70.7381 0 4.89651)
(-73.2494 0 7.07393)
(-75.3462 0 10.8779)
(-75.9439 0 17.4496)
(-73.3476 0 27.8955)
(-65.348 0 42.5846)
(-49.7326 0 60.0612)
(-25.4745 0 75.7523)
(5.31809 0 81.5499)
(34.671 0 71.4647)
(56.0093 0 54.2984)
(68.8349 0 37.3054)
(74.7115 0 23.9296)
(75.9724 0 14.8587)
(74.6872 0 9.34952)
(72.3401 0 6.21342)
(69.8297 0 4.37693)
(67.6138 0 3.09107)
(65.8713 0 1.9469)
(64.6221 0 0.798477)
(63.7517 0 -0.358291)
(62.9829 0 -1.62615)
(61.9701 0 -3.408)
(60.3721 0 -6.20359)
(57.7624 0 -10.297)
(53.6589 0 -15.5102)
(47.5289 0 -20.7575)
(39.17 0 -24.3641)
(28.9445 0 -24.994)
(19.9509 0 -25.9968)
(15.4326 0 -32.9835)
(10.9833 0 -38.3112)
(6.26333 0 -41.8436)
(1.47451 0 -43.5017)
(-3.37442 0 -43.0942)
(-8.1475 0 -40.6814)
(-12.8136 0 -36.367)
(-17.2102 0 -30.1268)
(-21.9639 0 -25.3411)
(-33.0697 0 -24.984)
(-42.5686 0 -23.229)
(-50.2034 0 -18.9095)
(-55.5044 0 -13.5099)
(-58.9947 0 -8.66575)
(-61.1595 0 -5.06432)
(-62.4912 0 -2.68574)
(-63.3698 0 -1.1516)
(-64.1278 0 0.0360887)
(-65.0959 0 1.1818)
(-69.3656 0 3.61313)
(-70.6463 0 5.14243)
(-72.1055 0 6.72409)
(-73.5371 0 8.62164)
(-74.4346 0 11.2911)
(-73.8339 0 15.3372)
(-70.221 0 21.3464)
(-61.6577 0 29.5147)
(-46.3045 0 39.0615)
(-23.5224 0 47.5665)
(4.71128 0 50.7839)
(31.8269 0 45.3177)
(52.23 0 35.9935)
(65.1832 0 26.6467)
(71.8541 0 19.1269)
(74.2387 0 13.8059)
(74.1783 0 10.2871)
(73.006 0 7.93854)
(71.5174 0 6.18987)
(70.0993 0 4.64538)
(68.889 0 3.10549)
(67.9074 0 1.56267)
(67.0812 0 0.189149)
(66.2049 0 -0.927459)
(64.9911 0 -2.17241)
(63.0613 0 -4.05686)
(59.9035 0 -6.75079)
(55.0309 0 -10.0079)
(48.2063 0 -12.5307)
(40.3735 0 -12.9745)
(31.3961 0 -14.6829)
(26.2244 0 -20.5649)
(21.3195 0 -27.8461)
(15.3377 0 -32.9794)
(8.84257 0 -36.206)
(2.08415 0 -37.7007)
(-4.76476 0 -37.3304)
(-11.4291 0 -35.1444)
(-17.7946 0 -31.1907)
(-23.2186 0 -25.2381)
(-27.9639 0 -18.0514)
(-35.0621 0 -13.2026)
(-43.461 0 -12.9474)
(-51.0889 0 -11.827)
(-57.1323 0 -8.81455)
(-61.3313 0 -5.70957)
(-63.9622 0 -3.30806)
(-65.5798 0 -1.68573)
(-66.6315 0 -0.554212)
(-67.4574 0 0.619835)
(-68.3137 0 2.06546)
(-61.4557 0 5.47226)
(-61.6997 0 7.21692)
(-61.6477 0 9.01276)
(-61.2375 0 10.9056)
(-60.2237 0 12.9768)
(-58.0624 0 15.3287)
(-53.837 0 18.0539)
(-46.3203 0 21.1631)
(-34.303 0 24.4514)
(-17.3376 0 27.2935)
(3.317 0 28.4183)
(23.2612 0 26.5766)
(38.7008 0 23.449)
(49.1657 0 20.1489)
(55.4513 0 17.1434)
(58.8611 0 14.5425)
(60.5504 0 12.2918)
(61.3142 0 10.2878)
(61.5861 0 8.43186)
(61.5365 0 6.65274)
(61.1919 0 4.91884)
(60.5609 0 3.26653)
(59.6795 0 1.86067)
(58.7024 0 0.810829)
(57.7159 0 -0.0931274)
(56.4142 0 -1.04037)
(54.3861 0 -2.09257)
(51.2381 0 -3.38557)
(46.5166 0 -5.15449)
(41.5724 0 -7.47145)
(37.5242 0 -10.7997)
(33.2145 0 -16.0471)
(27.2021 0 -21.8018)
(19.66 0 -26.0498)
(11.3861 0 -28.7856)
(2.68398 0 -30.057)
(-6.13129 0 -29.7425)
(-14.6975 0 -27.887)
(-22.7387 0 -24.5871)
(-29.7646 0 -19.7178)
(-35.1365 0 -13.7775)
(-39.2169 0 -9.34717)
(-43.238 0 -6.5651)
(-48.5548 0 -4.476)
(-52.6299 0 -2.90502)
(-55.3466 0 -1.72457)
(-57.0615 0 -0.7169)
(-58.2073 0 0.206005)
(-59.1566 0 1.12777)
(-60.1209 0 2.28158)
(-60.9195 0 3.78655)
(-54.3633 0 3.11567)
(-52.2657 0 3.92591)
(-49.5239 0 4.71949)
(-46.132 0 5.51763)
(-42.0554 0 6.32568)
(-37.2263 0 7.12663)
(-31.5421 0 7.87677)
(-24.8759 0 8.5071)
(-17.1109 0 8.94087)
(-8.24301 0 9.14061)
(1.46849 0 9.16307)
(11.0302 0 9.09965)
(19.5702 0 8.83189)
(26.9825 0 8.33002)
(33.3202 0 7.65166)
(38.7176 0 6.877)
(43.2964 0 6.06883)
(47.1487 0 5.26218)
(50.3306 0 4.46616)
(52.8666 0 3.66907)
(54.7545 0 2.84737)
(55.9764 0 2.00149)
(56.5119 0 1.23014)
(56.4809 0 0.609219)
(56.0381 0 0.0381929)
(55.1909 0 -0.551654)
(53.8834 0 -1.16394)
(52.0746 0 -1.82947)
(49.6712 0 -2.70425)
(46.6898 0 -4.1175)
(43.0943 0 -6.54607)
(38.3145 0 -9.93936)
(31.5073 0 -13.5792)
(22.9682 0 -16.4179)
(13.3749 0 -18.3013)
(3.16132 0 -19.1795)
(-7.20408 0 -18.9612)
(-17.2264 0 -17.6785)
(-26.4652 0 -15.4215)
(-34.4195 0 -12.2229)
(-40.418 0 -8.51774)
(-44.6024 0 -5.49757)
(-47.9202 0 -3.51621)
(-50.727 0 -2.35725)
(-52.9012 0 -1.59435)
(-54.5352 0 -0.959015)
(-55.6783 0 -0.35483)
(-56.3832 0 0.227034)
(-56.6951 0 0.80254)
(-56.5608 0 1.46477)
(-55.8041 0 2.27449)
(-52.6206 0 2.93194)
(-50.3398 0 3.11716)
(-47.4104 0 3.28767)
(-43.8087 0 3.44782)
(-39.5005 0 3.59957)
(-34.4476 0 3.74148)
(-28.6221 0 3.86842)
(-22.029 0 3.97221)
(-14.7357 0 4.04451)
(-6.90389 0 4.08216)
(1.21713 0 4.09318)
(9.28583 0 4.07553)
(16.9755 0 4.02916)
(24.0651 0 3.94674)
(30.4218 0 3.83455)
(36.002 0 3.70165)
(40.8148 0 3.55574)
(44.8939 0 3.40086)
(48.2774 0 3.2373)
(50.997 0 3.06211)
(53.0721 0 2.87071)
(54.5156 0 2.66231)
(55.3716 0 2.44423)
(55.7462 0 2.20994)
(55.7154 0 1.93145)
(55.2991 0 1.60448)
(54.5194 0 1.21463)
(53.4121 0 0.695079)
(51.9384 0 -0.121681)
(49.9044 0 -1.44806)
(46.8249 0 -3.46289)
(41.9678 0 -6.07133)
(34.8069 0 -8.7418)
(25.6062 0 -10.8963)
(14.9995 0 -12.3807)
(3.55681 0 -13.0824)
(-8.0877 0 -12.9088)
(-19.2732 0 -11.8894)
(-29.3972 0 -10.133)
(-37.8757 0 -7.74927)
(-44.1212 0 -5.01168)
(-48.1932 0 -2.62627)
(-50.8168 0 -0.896219)
(-52.6211 0 0.216782)
(-53.9584 0 0.894063)
(-54.9647 0 1.35324)
(-55.6303 0 1.7164)
(-55.9227 0 2.02684)
(-55.8242 0 2.28907)
(-55.3037 0 2.51412)
(-54.2662 0 2.72926)
)
;

boundaryField
{
    top
    {
        type            directionMixed;
        refValue        uniform (0 0 0);
        refGradient     uniform (0 0 0);
        valueFraction   uniform (0 0 0 0 0 1);
        value           nonuniform List<vector> 
51
(
(-52.6206 0 0)
(-50.3398 0 0)
(-47.4104 0 0)
(-43.8087 0 0)
(-39.5005 0 0)
(-34.4476 0 0)
(-28.6221 0 0)
(-22.029 0 0)
(-14.7357 0 0)
(-6.90389 0 0)
(1.21713 0 0)
(9.28583 0 0)
(16.9755 0 0)
(24.0651 0 0)
(30.4218 0 0)
(36.002 0 0)
(40.8148 0 0)
(44.8939 0 0)
(48.2774 0 0)
(50.997 0 0)
(53.0721 0 0)
(54.5156 0 0)
(55.3716 0 0)
(55.7462 0 0)
(55.7154 0 0)
(55.2991 0 0)
(54.5194 0 0)
(53.4121 0 0)
(51.9384 0 0)
(49.9044 0 0)
(46.8249 0 0)
(41.9678 0 0)
(34.8069 0 0)
(25.6062 0 0)
(14.9995 0 0)
(3.55681 0 0)
(-8.0877 0 0)
(-19.2732 0 0)
(-29.3972 0 0)
(-37.8757 0 0)
(-44.1212 0 0)
(-48.1932 0 0)
(-50.8168 0 0)
(-52.6211 0 0)
(-53.9584 0 0)
(-54.9647 0 0)
(-55.6303 0 0)
(-55.9227 0 0)
(-55.8242 0 0)
(-55.3037 0 0)
(-54.2662 0 0)
)
;
    }
    bottom
    {
        type            fixedValue;
        value           uniform (0 0 0);
    }
    frontAndBack
    {
        type            empty;
    }
    left_cyc
    {
        type            cyclic;
    }
    right_cyc
    {
        type            cyclic;
    }
}


// ************************************************************************* //
