/*--------------------------------*- C++ -*----------------------------------*\
| =========                 |                                                 |
| \\      /  F ield         | OpenFOAM: The Open Source CFD Toolbox           |
|  \\    /   O peration     | Version:  2.3.0                                 |
|   \\  /    A nd           | Web:      www.OpenFOAM.org                      |
|    \\/     M anipulation  |                                                 |
\*---------------------------------------------------------------------------*/
FoamFile
{
    version     2.0;
    format      ascii;
    class       surfaceScalarField;
    location    "24000";
    object      phi;
}
// * * * * * * * * * * * * * * * * * * * * * * * * * * * * * * * * * * * * * //

dimensions      [0 3 -1 0 0 0 0];

internalField   nonuniform List<scalar> 
353
(
-0.412695
0.0251592
-0.443631
0.0309367
-0.480099
0.0364675
-0.515483
0.0353838
-0.52764
0.0121578
-0.486568
-0.0410719
-0.395154
-0.0914148
-0.270035
-0.125118
-0.122387
-0.147648
0.029572
-0.151959
0.180817
-0.151245
0.322253
-0.141436
-0.113057
-0.521694
0.0140007
-0.500815
0.0100583
-0.466629
0.00228097
-0.415399
-0.0158454
-0.344352
-0.0588898
-0.259583
-0.125841
-0.177735
-0.173262
-0.108952
-0.193902
-0.0496103
-0.20699
0.011216
-0.212785
0.0714792
-0.211508
0.132955
-0.202911
-0.187802
-0.454894
-0.019172
-0.40809
-0.0367462
-0.347074
-0.0587352
-0.277363
-0.0855561
-0.214761
-0.121491
-0.169802
-0.170801
-0.129181
-0.213883
-0.0843542
-0.238729
-0.0382359
-0.253108
0.00854384
-0.259565
0.0551466
-0.258111
0.101005
-0.24877
-0.231147
-0.380516
-0.0541596
-0.332984
-0.084279
-0.273342
-0.118377
-0.208757
-0.150141
-0.155529
-0.174719
-0.12179
-0.20454
-0.0931822
-0.242491
-0.0624412
-0.26947
-0.0287833
-0.286766
0.0063825
-0.294731
0.0411506
-0.292879
0.0737393
-0.281359
-0.30536
-0.0822781
-0.266869
-0.12277
-0.217871
-0.167375
-0.163209
-0.204803
-0.115207
-0.222721
-0.0848366
-0.23491
-0.0631485
-0.26418
-0.0421102
-0.290508
-0.0194786
-0.309397
0.00423975
-0.318449
0.0276627
-0.316302
-0.303331
-0.214304
-0.100102
-0.188958
-0.148116
-0.155188
-0.201145
-0.115229
-0.244762
-0.0762101
-0.26174
-0.05134
-0.25978
-0.0369137
-0.278606
-0.0244941
-0.302927
-0.0114119
-0.32248
0.00240411
-0.332265
0.0160105
-0.329908
-0.316023
-0.100942
-0.107255
-0.0896285
-0.159429
-0.0732914
-0.217482
-0.0526334
-0.26542
-0.0309564
-0.283417
-0.0185054
-0.272231
-0.0131388
-0.283972
-0.0090097
-0.307057
-0.0043653
-0.327124
0.000843031
-0.337474
0.00588572
-0.334951
-0.320342
0.0308317
-0.105027
0.0287515
-0.157349
0.0265888
-0.215319
0.0241103
-0.262942
0.0212456
-0.280552
0.0158488
-0.266834
0.00990927
-0.278033
0.0055029
-0.30265
0.00218947
-0.323811
-0.000593503
-0.334691
-0.00352373
-0.332021
-0.316617
0.17845
-0.0586223
0.168496
-0.0950735
0.154198
-0.14305
0.133754
-0.194875
0.106811
-0.235998
0.076274
-0.250016
0.0508067
-0.241367
0.033408
-0.260634
0.0203884
-0.289631
0.00892674
-0.312349
-0.00213771
-0.323626
-0.0133024
-0.320856
-0.304732
0.307685
-0.0477606
0.291121
-0.0785093
0.26599
-0.117919
0.229445
-0.158331
0.180946
-0.187499
0.12662
-0.19569
0.0842206
-0.198967
0.0584636
-0.234877
0.0371134
-0.26828
0.0165537
-0.291789
-0.0040755
-0.302997
-0.0247167
-0.300215
-0.283963
0.393679
-0.0337147
0.371227
-0.0560569
0.337189
-0.0838809
0.288781
-0.109923
0.22599
-0.124709
0.16307
-0.13277
0.119443
-0.15534
0.0875632
-0.202998
0.0571886
-0.237906
0.0257414
-0.260342
-0.0064501
-0.270805
-0.0384939
-0.268171
-0.252818
0.409873
-0.0168114
0.383108
-0.0292921
0.34424
-0.0450123
0.294349
-0.060032
0.239022
-0.0693816
0.192166
-0.0859139
0.159184
-0.122357
0.121752
-0.165566
0.0803955
-0.196549
0.0363167
-0.216263
-0.00908142
-0.225407
-0.0541504
-0.223102
-0.20967
0.369368
-0.00574815
0.351981
-0.011905
0.325766
-0.0187973
0.293223
-0.0274898
0.263329
-0.0394872
0.236043
-0.058628
0.201643
-0.0879577
0.155911
-0.119833
0.103305
-0.143944
0.0467349
-0.159693
-0.0116704
-0.167002
-0.0696162
-0.165156
-0.154416
0.363532
0.00145777
0.353085
-0.00145879
0.33905
-0.00476172
0.321094
-0.00953397
0.299163
-0.0175559
0.271463
-0.0309285
0.232747
-0.0492412
0.181352
-0.0684382
0.120952
-0.0835437
0.0549239
-0.0936653
-0.0136862
-0.098392
-0.081646
-0.0971966
-0.0902624
0.366025
0.359708
0.351093
0.339407
0.322419
0.295973
0.255879
0.201216
0.135174
0.0616479
-0.0153425
-0.0914556
)
;

boundaryField
{
    top
    {
        type            calculated;
        value           nonuniform List<scalar> 
13
(
0.00545964
0.00485827
0.00385325
0.002152
-0.000567877
-0.00448218
-0.00914737
-0.0137754
-0.017502
-0.020139
-0.0214015
-0.0210835
-0.0192505
)
;
    }
    bottom
    {
        type            calculated;
        value           uniform 0;
    }
    frontAndBack
    {
        type            empty;
        value           nonuniform 0();
    }
    left_cyc
    {
        type            cyclic;
        value           nonuniform 0();
    }
    right_cyc
    {
        type            cyclic;
        value           nonuniform 0();
    }
    procBoundary2to1
    {
        type            processor;
        value           nonuniform List<scalar> 
16
(
0.387535
0.532852
0.488067
0.415504
0.333478
0.232128
0.108094
-0.0330592
0.0659419
-0.18577
-0.318547
-0.407725
-0.426777
-0.380431
-0.370738
-0.370027
)
;
    }
    procBoundary2to3
    {
        type            processor;
        value           nonuniform List<scalar> 
16
(
0.43531
0.207699
0.14435
0.103128
-0.260535
0.0496347
0.028703
0.010205
-0.00724889
-0.0251873
-0.0454864
-0.0696384
-0.0972987
-0.12487
-0.1458
-0.162468
)
;
    }
}


// ************************************************************************* //
