/*--------------------------------*- C++ -*----------------------------------*\
| =========                 |                                                 |
| \\      /  F ield         | OpenFOAM: The Open Source CFD Toolbox           |
|  \\    /   O peration     | Version:  2.3.0                                 |
|   \\  /    A nd           | Web:      www.OpenFOAM.org                      |
|    \\/     M anipulation  |                                                 |
\*---------------------------------------------------------------------------*/
FoamFile
{
    version     2.0;
    format      ascii;
    class       volScalarField;
    location    "24000";
    object      T;
}
// * * * * * * * * * * * * * * * * * * * * * * * * * * * * * * * * * * * * * //

dimensions      [0 0 0 1 0 0 0];

internalField   nonuniform List<scalar> 
191
(
37.8062
37.0894
36.1958
35.1015
33.7865
32.1661
30.6901
29.5921
28.8268
28.4965
28.5904
29.0826
29.9887
28.9224
27.8091
26.4419
24.7034
22.6149
20.6609
19.0613
17.7399
16.722
16.1806
16.3354
17.0883
18.243
23.7849
22.7587
21.6144
20.3427
18.8794
17.248
15.5635
13.9812
12.7112
12.0206
12.2149
13.1736
14.6024
22.8673
22.1953
21.3649
20.283
18.8506
17.0634
15.0679
13.0956
11.486
10.6175
10.8555
12.068
13.8723
23.9888
23.4759
22.72
21.5947
19.981
17.8693
15.4529
13.0298
11.0422
9.98176
10.2653
11.7537
25.5397
25.0654
24.2819
23.0494
21.2395
18.813
15.9807
13.1157
10.7578
9.50864
9.83701
11.5955
26.9156
26.4274
25.5849
24.2436
22.269
19.5923
16.4081
13.1544
10.4619
9.03423
9.40657
11.4146
27.9228
27.38
26.4621
25.0282
22.9367
20.0963
16.6487
13.0857
10.111
8.51434
8.93227
11.1635
28.8897
28.48
27.8309
26.8202
25.3205
23.1764
20.2347
16.5984
12.8349
9.6644
7.92267
8.38456
10.7891
29.069
28.5137
27.7151
26.5791
25.0022
22.8185
19.8213
16.1075
12.2956
9.05283
7.2238
7.71682
10.2084
28.437
27.7119
26.7498
25.4867
23.8442
21.6364
18.6534
15.0561
11.3895
8.22871
6.39406
6.89674
9.36008
26.3918
25.5208
24.4463
23.1181
21.4695
19.318
16.5316
13.3139
10.0214
7.13036
5.40385
5.8839
8.17053
22.1279
21.2222
20.194
18.9811
17.4997
15.6462
13.3632
10.7572
8.07301
5.67991
4.21537
4.62807
6.54619
15.2242
14.501
13.7234
12.8478
11.8062
10.5255
8.98218
7.23953
5.43938
3.81186
2.79277
3.08312
4.40407
5.6775
5.33913
5.01922
4.68946
4.32162
3.88847
3.373
2.77724
2.13178
1.51665
1.11353
1.23012
1.74366
)
;

boundaryField
{
    top
    {
        type            fixedValue;
        value           uniform 0;
    }
    bottom
    {
        type            fixedValue;
        value           uniform 43.8;
    }
    frontAndBack
    {
        type            empty;
    }
    left_cyc
    {
        type            cyclic;
    }
    right_cyc
    {
        type            cyclic;
    }
    procBoundary2to1
    {
        type            processor;
        value           nonuniform List<scalar> 
16
(
38.3779
29.8623
24.7162
23.4499
24.362
25.8279
27.1852
28.229
28.229
29.1647
29.4676
28.9939
27.1144
22.9485
15.9393
6.03866
)
;
    }
    procBoundary2to3
    {
        type            processor;
        value           nonuniform List<scalar> 
16
(
31.2173
19.665
16.2517
15.8969
13.9776
13.9776
14.2298
14.4153
14.4644
14.2882
13.7606
12.7862
11.2761
9.10042
6.12929
2.38227
)
;
    }
}


// ************************************************************************* //
