/*--------------------------------*- C++ -*----------------------------------*\
| =========                 |                                                 |
| \\      /  F ield         | OpenFOAM: The Open Source CFD Toolbox           |
|  \\    /   O peration     | Version:  2.3.0                                 |
|   \\  /    A nd           | Web:      www.OpenFOAM.org                      |
|    \\/     M anipulation  |                                                 |
\*---------------------------------------------------------------------------*/
FoamFile
{
    version     2.0;
    format      ascii;
    class       volScalarField;
    location    "7000";
    object      p;
}
// * * * * * * * * * * * * * * * * * * * * * * * * * * * * * * * * * * * * * //

dimensions      [0 2 -2 0 0 0 0];

internalField   nonuniform List<scalar> 
191
(
-1363.69
-1427.82
-1478.57
-1516.24
-1544.93
-1567.68
-1586.44
-1602.49
-1616.6
-1629.22
-1640.63
-1651.02
-1308.75
-1340.63
-1367.24
-1388.72
-1406.67
-1422.09
-1435.52
-1447.53
-1458.46
-1468.55
-1477.97
-1486.86
-1256.34
-1271.63
-1288.67
-1298.55
-1305.01
-1311.73
-1318.45
-1325.12
-1331.73
-1338.26
-1344.74
-1351.27
-1143.15
-1170.17
-1192.91
-1202.34
-1205.94
-1209.31
-1212.55
-1215.85
-1219.31
-1222.99
-1226.94
-1231.21
-1024.67
-1037.42
-1071.07
-1088.13
-1094.63
-1098.67
-1101.9
-1104.36
-1106.4
-1108.29
-1110.23
-1112.36
-1114.74
-933.086
-942.746
-966.135
-977.405
-982.134
-985.882
-988.691
-990.629
-991.969
-992.961
-993.819
-994.684
-995.614
-847.755
-849.48
-858.045
-863.284
-866.072
-868.383
-870.085
-871.162
-871.743
-871.976
-871.996
-871.892
-871.7
-766.536
-754.197
-746.418
-745.88
-746.301
-746.545
-746.727
-746.659
-746.318
-745.721
-744.912
-743.931
-742.805
-685.837
-658.825
-633.943
-626.875
-624.416
-622.038
-620.217
-618.586
-616.982
-615.309
-613.529
-611.651
-609.687
-598.69
-563.79
-524.086
-508.339
-502.349
-496.846
-492.506
-488.797
-485.464
-482.336
-479.314
-476.381
-473.521
-503.968
-471.575
-416.525
-394.923
-384.295
-374.635
-366.821
-360.239
-354.522
-349.393
-344.672
-340.317
-336.268
-398.924
-362.913
-302.336
-277.214
-266.748
-257.45
-247.585
-238.058
-229.409
-221.616
-214.5
-208.037
-202.161
-300.437
-254.646
-186.73
-148.291
-145.164
-140.346
-134.881
-126.304
-116.15
-105.609
-95.1849
-85.7753
-77.4914
-192.304
-153.932
-98.1623
-54.907
-31.1736
-19.4711
-17.6215
-17.8619
-16.3137
-11.9603
-5.21271
3.04362
12.1384
-331.641
-254.07
-163.092
-79.931
-13.6859
30.2696
56.4652
71.7526
80.0915
83.2749
81.9925
78.2852
74.9461
)
;

boundaryField
{
    top
    {
        type            calculated;
        value           nonuniform List<scalar> 
13
(
-9.81
-9.81
-9.81
-9.81
-9.81
-9.81
-9.81
-9.81
-9.81
-9.81
-9.81
-9.81
-9.81
)
;
    }
    bottom
    {
        type            calculated;
        value           nonuniform List<scalar> 
12
(
-1434.54
-1502.32
-1556.49
-1596.97
-1627.99
-1652.63
-1672.9
-1690.16
-1705.24
-1718.65
-1730.7
-1741.61
)
;
    }
    frontAndBack
    {
        type            empty;
    }
    left_cyc
    {
        type            cyclic;
    }
    right_cyc
    {
        type            cyclic;
    }
    procBoundary3to0throughright_cyc
    {
        type            processorCyclic;
        value           nonuniform List<scalar> 
15
(
-1660.53
-1495.42
-1357.99
-1235.84
-1117.37
-996.606
-871.419
-741.539
-607.629
-470.665
-332.355
-196.611
-69.614
21.6274
71.3518
)
;
    }
    procBoundary3to2
    {
        type            processor;
        value           nonuniform List<scalar> 
16
(
-1291.56
-1277.09
-1222.9
-1133.19
-1133.19
-1023.29
-932.663
-846.574
-764.576
-682.94
-596.505
-502.765
-407.209
-326.411
-217.218
-389.73
)
;
    }
}


// ************************************************************************* //
