/*--------------------------------*- C++ -*----------------------------------*\
| =========                 |                                                 |
| \\      /  F ield         | OpenFOAM: The Open Source CFD Toolbox           |
|  \\    /   O peration     | Version:  2.3.0                                 |
|   \\  /    A nd           | Web:      www.OpenFOAM.org                      |
|    \\/     M anipulation  |                                                 |
\*---------------------------------------------------------------------------*/
FoamFile
{
    version     2.0;
    format      ascii;
    class       volScalarField;
    location    "7000";
    object      p_rgh;
}
// * * * * * * * * * * * * * * * * * * * * * * * * * * * * * * * * * * * * * //

dimensions      [0 2 -2 0 0 0 0];

internalField   nonuniform List<scalar> 
191
(
-1434.54
-1502.32
-1556.49
-1596.97
-1627.99
-1652.63
-1672.9
-1690.16
-1705.24
-1718.65
-1730.7
-1741.61
-1441.85
-1485.29
-1526.21
-1561.27
-1590.15
-1614.25
-1634.84
-1652.95
-1669.18
-1683.91
-1697.35
-1709.58
-1438.69
-1472.95
-1507.95
-1533.67
-1554.18
-1573.49
-1591.53
-1608.5
-1624.41
-1639.24
-1652.98
-1665.47
-1392.41
-1450.06
-1499.18
-1529.27
-1548.57
-1564.23
-1577.68
-1590.05
-1602.04
-1613.86
-1625.42
-1636.8
-1306.37
-1369.15
-1450.12
-1506.71
-1542.38
-1566.51
-1583.29
-1595.17
-1604.36
-1612.43
-1620.33
-1628.58
-1637.39
-1283.84
-1365.74
-1456.46
-1522.74
-1567.18
-1597.42
-1616.85
-1628.86
-1636.52
-1642.14
-1647.31
-1652.93
-1659.45
-1268.09
-1366.7
-1464.14
-1540.64
-1594.55
-1630.84
-1653.42
-1666.42
-1673.69
-1678.26
-1682.16
-1686.53
-1691.79
-1253.6
-1363.57
-1466.22
-1552.63
-1615.47
-1657.76
-1684.31
-1699.6
-1708.08
-1713.31
-1717.59
-1722
-1726.75
-1231.52
-1351.1
-1457.5
-1551.71
-1621.93
-1670.08
-1701.99
-1721.92
-1734.18
-1742.26
-1748.37
-1753.54
-1758.02
-1186.24
-1316.97
-1427.22
-1526.92
-1604.35
-1659.45
-1698.75
-1725.68
-1743.9
-1756.64
-1766.12
-1773.63
-1779.76
-1107.21
-1249.95
-1357.45
-1464.34
-1547.44
-1608.89
-1656.12
-1691.42
-1717.51
-1737.17
-1752.64
-1765.41
-1776.38
-980.804
-1116.89
-1217.6
-1325.41
-1415.53
-1485.39
-1540.09
-1582.93
-1617.12
-1645.29
-1669.38
-1691.03
-1711.75
-809.171
-915.378
-989.191
-1070.39
-1163.4
-1236.36
-1295.57
-1342.72
-1382.22
-1416.89
-1449
-1482.18
-1515.24
-559.247
-630.521
-677.099
-721.832
-770.396
-818.2
-867.519
-914.23
-956.477
-996.612
-1036.46
-1075.23
-1112.81
-478.908
-442.664
-388.746
-337.173
-297.527
-276.556
-271.504
-277.291
-291.77
-312.574
-338.599
-367.747
-397.162
)
;

boundaryField
{
    top
    {
        type            fixedValue;
        value           uniform 0;
    }
    bottom
    {
        type            fixedFluxPressure;
        gradient        uniform 0;
        value           nonuniform List<scalar> 
12
(
-1434.54
-1502.32
-1556.49
-1596.97
-1627.99
-1652.63
-1672.9
-1690.16
-1705.24
-1718.65
-1730.7
-1741.61
)
;
    }
    frontAndBack
    {
        type            empty;
    }
    left_cyc
    {
        type            cyclic;
    }
    right_cyc
    {
        type            cyclic;
    }
    procBoundary3to0throughright_cyc
    {
        type            processorCyclic;
        value           nonuniform List<scalar> 
15
(
-1751.52
-1720.54
-1676.86
-1648.02
-1646.76
-1666.89
-1697.83
-1731.43
-1761.62
-1784.7
-1786.07
-1731.02
-1546.71
-1148.62
-426.9
)
;
    }
    procBoundary3to2
    {
        type            processor;
        value           nonuniform List<scalar> 
16
(
-1359.67
-1400.64
-1386.8
-1350.66
-1350.66
-1260.23
-1218.36
-1179.03
-1139.81
-1094.08
-1031.24
-942.944
-827.115
-690.356
-478.617
-495.076
)
;
    }
}


// ************************************************************************* //
