/*--------------------------------*- C++ -*----------------------------------*\
| =========                 |                                                 |
| \\      /  F ield         | OpenFOAM: The Open Source CFD Toolbox           |
|  \\    /   O peration     | Version:  2.3.0                                 |
|   \\  /    A nd           | Web:      www.OpenFOAM.org                      |
|    \\/     M anipulation  |                                                 |
\*---------------------------------------------------------------------------*/
FoamFile
{
    version     2.0;
    format      ascii;
    class       surfaceScalarField;
    location    "7000";
    object      phi;
}
// * * * * * * * * * * * * * * * * * * * * * * * * * * * * * * * * * * * * * //

dimensions      [0 3 -1 0 0 0 0];

internalField   nonuniform List<scalar> 
354
(
0.508231
-0.0764628
0.528186
-0.0199557
0.504688
0.0234987
0.46742
0.0372673
0.432475
0.0349458
0.403564
0.028911
0.380088
0.0234755
0.36063
0.0194583
0.344137
0.0164926
0.33014
0.0139977
0.31875
0.01139
0.008002
0.291571
-0.160393
0.372264
-0.100649
0.435841
-0.0400779
0.480329
-0.00722108
0.509196
0.00607884
0.526204
0.0119031
0.534762
0.0149179
0.537739
0.0164805
0.537533
0.0166987
0.536237
0.0152936
0.53584
0.0117873
0.00544334
0.186086
-0.199704
0.236669
-0.151232
0.302687
-0.106096
0.369709
-0.074243
0.425531
-0.0497434
0.467187
-0.0297522
0.496268
-0.0141635
0.516032
-0.00328381
0.529866
0.00286546
0.540724
0.00443473
0.551052
0.00146001
-0.0062497
0.134577
-0.228286
0.174235
-0.190891
0.232059
-0.163919
0.295426
-0.13761
0.350739
-0.105056
0.393538
-0.0725512
0.424661
-0.0452867
0.447046
-0.0256685
0.46387
-0.0139591
0.477772
-0.00946683
0.490634
-0.0114025
-0.0191371
0.0730328
-0.280211
0.0957941
-0.251047
0.131645
-0.226742
0.183375
-0.215649
0.23656
-0.190794
0.281832
-0.150329
0.316375
-0.107095
0.34136
-0.0702717
0.359433
-0.0437409
0.373168
-0.0276938
0.38444
-0.0207389
0.394278
-0.0212411
-0.027785
0.0438235
-0.293023
0.0610763
-0.2683
0.0909734
-0.256639
0.131265
-0.255941
0.169186
-0.228715
0.199799
-0.180942
0.222174
-0.12947
0.237812
-0.0859089
0.248839
-0.0547685
0.256964
-0.0358183
0.26312
-0.0268953
0.267486
-0.025607
-0.0299517
0.0164908
-0.29747
0.0248554
-0.276665
0.041335
-0.273118
0.0626662
-0.277272
0.0814685
-0.247517
0.0957119
-0.195185
0.105283
-0.139042
0.111264
-0.09189
0.114877
-0.0583814
0.116864
-0.0378057
0.117322
-0.0273527
0.115792
-0.0240771
-0.0256607
-0.010798
-0.292583
-0.0169821
-0.27048
-0.021105
-0.268995
-0.023694
-0.274683
-0.0260136
-0.245198
-0.0280433
-0.193156
-0.0300947
-0.13699
-0.0323252
-0.0896595
-0.0348205
-0.055886
-0.0378335
-0.0347927
-0.0419192
-0.023267
-0.047921
-0.0180752
-0.0168176
-0.0387455
-0.278179
-0.0613248
-0.247901
-0.0891518
-0.241168
-0.117622
-0.246213
-0.141427
-0.221393
-0.158921
-0.175662
-0.17114
-0.12477
-0.179814
-0.0809861
-0.186477
-0.049223
-0.19237
-0.0288996
-0.198614
-0.0170226
-0.206404
-0.0102858
-0.0063449
-0.0680405
-0.255209
-0.0996462
-0.216295
-0.146601
-0.194214
-0.199421
-0.193393
-0.24331
-0.177503
-0.275081
-0.143891
-0.296593
-0.103258
-0.310727
-0.0668524
-0.32019
-0.0397601
-0.327151
-0.0219387
-0.333347
-0.0108267
-0.34048
-0.00315304
0.00328158
-0.0999132
-0.224843
-0.13165
-0.184559
-0.181639
-0.144224
-0.248368
-0.126665
-0.30659
-0.119281
-0.34951
-0.100971
-0.379057
-0.073711
-0.398186
-0.0477235
-0.410135
-0.027811
-0.417775
-0.0142981
-0.423368
-0.00523407
-0.429077
0.0025559
0.0110311
-0.136807
-0.185391
-0.171584
-0.149782
-0.209267
-0.106541
-0.259659
-0.0762733
-0.31303
-0.0659104
-0.358701
-0.0553
-0.392945
-0.0394668
-0.41583
-0.0248384
-0.430153
-0.0134877
-0.43921
-0.00524143
-0.445504
0.00106031
-0.451002
0.00805367
0.0172464
-0.17505
-0.135235
-0.216867
-0.107965
-0.247974
-0.0754337
-0.274037
-0.0502104
-0.305214
-0.0347333
-0.336176
-0.0243382
-0.359107
-0.0165364
-0.373946
-0.00999946
-0.38343
-0.00400332
-0.390283
0.00161155
-0.396385
0.0071629
-0.402003
0.0136713
0.0216388
-0.20288
-0.0781124
-0.249565
-0.0612799
-0.28324
-0.0417586
-0.30801
-0.0254408
-0.328362
-0.0143813
-0.344871
-0.00782929
-0.357606
-0.00380111
-0.366892
-0.000713692
-0.373066
0.00217095
-0.376458
0.00500381
-0.377084
0.00778872
-0.374231
0.010818
0.0144745
-0.224158
-0.273197
-0.307455
-0.329733
-0.34442
-0.354875
-0.362708
-0.368303
-0.371519
-0.372169
-0.370117
-0.365006
)
;

boundaryField
{
    top
    {
        type            calculated;
        value           nonuniform List<scalar> 
13
(
-0.0162893
-0.0122409
-0.00750134
-0.00316283
0.000305647
0.00262578
0.00403187
0.00488159
0.00538712
0.00565342
0.0057372
0.00570709
0.00564835
)
;
    }
    bottom
    {
        type            calculated;
        value           uniform 0;
    }
    frontAndBack
    {
        type            empty;
        value           nonuniform 0();
    }
    left_cyc
    {
        type            cyclic;
        value           nonuniform 0();
    }
    right_cyc
    {
        type            cyclic;
        value           nonuniform 0();
    }
    procBoundary3to0throughright_cyc
    {
        type            processorCyclic;
        value           nonuniform List<scalar> 
15
(
0.310748
0.538399
0.562745
0.503522
0.402926
0.269653
0.111501
-0.0567641
-0.216876
-0.350106
-0.436827
-0.457218
-0.406395
-0.367066
-0.35618
)
;
    }
    procBoundary3to2
    {
        type            processor;
        value           nonuniform List<scalar> 
16
(
-0.431768
-0.20764
-0.146775
-0.105995
0.259473
-0.0522952
-0.0310114
-0.0120437
0.00591122
0.0243421
0.0450703
0.0695475
0.0973543
0.124895
0.145757
0.162335
)
;
    }
}


// ************************************************************************* //
