/*--------------------------------*- C++ -*----------------------------------*\
| =========                 |                                                 |
| \\      /  F ield         | OpenFOAM: The Open Source CFD Toolbox           |
|  \\    /   O peration     | Version:  2.3.0                                 |
|   \\  /    A nd           | Web:      www.OpenFOAM.org                      |
|    \\/     M anipulation  |                                                 |
\*---------------------------------------------------------------------------*/
FoamFile
{
    version     2.0;
    format      ascii;
    class       volScalarField;
    location    "7000";
    object      T;
}
// * * * * * * * * * * * * * * * * * * * * * * * * * * * * * * * * * * * * * //

dimensions      [0 0 0 1 0 0 0];

internalField   nonuniform List<scalar> 
191
(
31.1766
32.7773
34.2705
35.5029
36.5236
37.3516
38.0135
38.5416
38.9663
39.3118
39.5948
39.8238
19.5757
21.2645
23.3537
25.3367
26.9315
28.1989
29.2438
30.1344
30.9088
31.5862
32.1723
32.6593
16.1175
17.779
19.3524
20.7397
21.9711
23.0734
24.0655
24.9675
25.7823
26.5096
27.1454
27.6668
15.7397
17.6561
19.3068
20.5997
21.5821
22.3512
22.99
23.5571
24.0908
24.6004
25.077
25.5215
13.8525
16.2875
18.5908
20.5141
21.9335
22.9115
23.5712
24.0294
24.3774
24.6781
24.9683
25.266
25.5787
14.1098
16.9862
19.6671
21.8575
23.4387
24.4937
25.1553
25.5563
25.8079
25.9925
26.164
26.3535
26.5758
14.3052
17.5695
20.5641
22.965
24.6874
25.8321
26.5355
26.9372
27.1626
27.3087
27.4394
27.5902
27.7741
14.3657
17.9369
21.1613
23.7004
25.5229
26.7506
27.5206
27.9692
28.2267
28.3969
28.5455
28.7028
28.8743
14.2026
17.9795
21.3618
23.9712
25.8439
27.1458
28.0147
28.5702
28.9274
29.1788
29.3821
29.5637
29.7296
13.6877
17.506
20.9628
23.6243
25.5472
26.9444
27.9504
28.6567
29.1536
29.5192
29.8074
30.0482
30.2554
12.725
16.378
19.7683
22.4483
24.403
25.8862
27.0343
27.908
28.5712
29.0882
29.5094
29.8665
30.1797
11.2242
14.5016
17.573
20.1044
22.0201
23.5275
24.757
25.7542
26.57
27.2549
27.8492
28.3846
28.8911
9.05625
11.7192
14.2024
16.2984
17.9828
19.3454
20.4785
21.4549
22.3247
23.1169
23.862
24.6082
25.3326
6.09586
7.87455
9.53486
10.9622
12.135
13.1004
13.9305
14.6843
15.3948
16.1165
16.8723
17.6353
18.3924
2.36746
2.99164
3.55138
4.02846
4.4302
4.77735
5.09669
5.41499
5.75961
6.12192
6.4956
6.87985
7.27368
)
;

boundaryField
{
    top
    {
        type            fixedValue;
        value           uniform 0;
    }
    bottom
    {
        type            fixedValue;
        value           uniform 43.8;
    }
    frontAndBack
    {
        type            empty;
    }
    left_cyc
    {
        type            cyclic;
    }
    right_cyc
    {
        type            cyclic;
    }
    procBoundary3to0throughright_cyc
    {
        type            processorCyclic;
        value           nonuniform List<scalar> 
15
(
39.994
33.0098
28.0765
25.9337
25.9071
26.8326
27.9868
29.0482
29.8754
30.4351
30.4635
29.3636
26.022
19.1272
7.66854
)
;
    }
    procBoundary3to2
    {
        type            processor;
        value           nonuniform List<scalar> 
16
(
29.9763
18.1815
14.5004
13.7511
13.7511
11.6741
11.5191
11.3443
11.1002
10.7361
10.165
9.32411
8.13969
6.51954
4.3837
1.73432
)
;
    }
}


// ************************************************************************* //
