/*--------------------------------*- C++ -*----------------------------------*\
| =========                 |                                                 |
| \\      /  F ield         | OpenFOAM: The Open Source CFD Toolbox           |
|  \\    /   O peration     | Version:  2.3.0                                 |
|   \\  /    A nd           | Web:      www.OpenFOAM.org                      |
|    \\/     M anipulation  |                                                 |
\*---------------------------------------------------------------------------*/
FoamFile
{
    version     2.0;
    format      ascii;
    class       volScalarField;
    location    "21000";
    object      p;
}
// * * * * * * * * * * * * * * * * * * * * * * * * * * * * * * * * * * * * * //

dimensions      [0 2 -2 0 0 0 0];

internalField   nonuniform List<scalar> 
191
(
-1740.15
-1722.58
-1707.63
-1695.52
-1685.5
-1676.58
-1667.91
-1658.88
-1649.12
-1638.44
-1626.68
-1613.62
-1598.93
-1566.3
-1553.41
-1541.29
-1530.26
-1520.32
-1511.19
-1502.53
-1494.03
-1485.39
-1476.35
-1466.74
-1456.41
-1445.17
-1414.21
-1405.3
-1396.23
-1387.45
-1379.15
-1371.35
-1364.01
-1357.06
-1350.41
-1343.91
-1337.42
-1330.89
-1324.27
-1272.83
-1267.82
-1262.18
-1256.48
-1250.87
-1245.42
-1240.23
-1235.36
-1230.83
-1226.67
-1222.82
-1219.23
-1215.83
-1136.51
-1134.39
-1131.62
-1128.72
-1125.78
-1122.83
-1119.94
-1117.19
-1114.65
-1112.36
-1110.31
-1108.41
-1106.5
-1001.66
-1001.6
-1001.03
-1000.28
-999.443
-998.543
-997.581
-996.595
-995.636
-994.741
-993.899
-993.025
-991.952
-866.144
-867.62
-868.646
-869.421
-870.07
-870.638
-871.113
-871.481
-871.746
-871.922
-872.001
-871.931
-871.607
-728.593
-731.329
-733.588
-735.516
-737.224
-738.803
-740.278
-741.636
-742.86
-743.943
-744.874
-745.621
-746.139
-588.223
-592.082
-595.458
-598.399
-601.01
-603.399
-605.635
-607.752
-609.767
-611.691
-613.53
-615.268
-444.855
-449.775
-454.255
-458.223
-461.756
-464.967
-467.965
-470.84
-473.666
-476.519
-479.458
-482.496
-298.842
-304.922
-310.643
-315.821
-320.483
-324.746
-328.751
-332.64
-336.549
-340.641
-345.08
-349.908
-152.744
-160.313
-167.589
-174.307
-180.467
-186.2
-191.688
-197.129
-202.723
-208.721
-215.366
-222.682
1.21628
-8.1171
-18.1325
-28.0283
-37.4345
-46.2776
-54.6389
-62.6625
-70.5195
-78.4256
-86.9087
-96.6344
-107.227
108.924
96.4385
83.6627
71.5418
60.3266
49.8805
39.9359
30.2344
20.6233
11.2166
2.28673
-5.59676
-11.7103
9.88351
21.642
32.9274
42.9591
51.6247
59.0662
65.4676
70.9241
75.3918
78.9361
82.4644
85.9893
86.3309
)
;

boundaryField
{
    top
    {
        type            calculated;
        value           nonuniform List<scalar> 
13
(
-9.81
-9.81
-9.81
-9.81
-9.81
-9.81
-9.81
-9.81
-9.81
-9.81
-9.81
-9.81
-9.81
)
;
    }
    bottom
    {
        type            calculated;
        value           nonuniform List<scalar> 
13
(
-1831.84
-1813.63
-1798.25
-1786.16
-1776.36
-1767.65
-1759.02
-1749.76
-1739.56
-1728.32
-1715.87
-1701.96
-1686.23
)
;
    }
    frontAndBack
    {
        type            empty;
    }
    left_cyc
    {
        type            cyclic;
    }
    right_cyc
    {
        type            cyclic;
    }
    procBoundary1to0
    {
        type            processor;
        value           nonuniform List<scalar> 
16
(
-1758.8
-1578.78
-1421.86
-1276.31
-1137.32
-1000.76
-863.991
-725.366
-584.066
-439.857
-292.916
-145.534
-145.534
8.46969
119.074
-0.558116
)
;
    }
    procBoundary1to2
    {
        type            processor;
        value           nonuniform List<scalar> 
16
(
-1582.09
-1432.76
-1317.6
-1212.57
-1104.35
-990.45
-870.886
-746.393
-616.905
-616.905
-485.665
-355.196
-230.729
-117.792
-15.1752
81.8637
)
;
    }
}


// ************************************************************************* //
