/*--------------------------------*- C++ -*----------------------------------*\
| =========                 |                                                 |
| \\      /  F ield         | OpenFOAM: The Open Source CFD Toolbox           |
|  \\    /   O peration     | Version:  2.3.0                                 |
|   \\  /    A nd           | Web:      www.OpenFOAM.org                      |
|    \\/     M anipulation  |                                                 |
\*---------------------------------------------------------------------------*/
FoamFile
{
    version     2.0;
    format      ascii;
    class       volScalarField;
    location    "15000";
    object      p_rgh;
}
// * * * * * * * * * * * * * * * * * * * * * * * * * * * * * * * * * * * * * //

dimensions      [0 2 -2 0 0 0 0];

internalField   nonuniform List<scalar> 
191
(
-1438.84
-1506.69
-1560.17
-1600.09
-1630.73
-1655.12
-1675.22
-1692.37
-1707.36
-1720.69
-1732.67
-1743.51
-1446.01
-1489.24
-1529.77
-1564.37
-1592.94
-1616.81
-1637.26
-1655.27
-1671.44
-1686.1
-1699.47
-1711.62
-1441.03
-1476.12
-1511.68
-1536.71
-1557.06
-1576.24
-1594.19
-1611.1
-1626.94
-1641.7
-1655.36
-1667.73
-1394.52
-1454.36
-1503.66
-1532.72
-1551.84
-1567.33
-1580.63
-1592.88
-1604.8
-1616.55
-1628.04
-1639.36
-1308.11
-1372.64
-1454.74
-1511.26
-1546.31
-1570.16
-1586.63
-1598.25
-1607.25
-1615.19
-1623.02
-1631.22
-1640
-1285.85
-1369.83
-1460.95
-1527.11
-1571.2
-1601.09
-1620.12
-1631.8
-1639.21
-1644.69
-1649.77
-1655.36
-1661.85
-1270.09
-1370.25
-1468.16
-1544.67
-1598.33
-1634.23
-1656.39
-1669.01
-1676.02
-1680.42
-1684.24
-1688.58
-1693.81
-1255.57
-1366.31
-1469.65
-1556.2
-1618.8
-1660.72
-1686.86
-1701.79
-1710.01
-1715.08
-1719.27
-1723.6
-1728.24
-1233.32
-1353.08
-1460.3
-1554.78
-1624.85
-1672.7
-1704.24
-1723.83
-1735.82
-1743.7
-1749.66
-1754.68
-1758.98
-1187.61
-1318.22
-1429.41
-1529.53
-1606.93
-1661.86
-1700.88
-1727.48
-1745.41
-1757.91
-1767.2
-1774.55
-1780.52
-1108.24
-1251.3
-1359.45
-1466.6
-1549.76
-1611.21
-1658.28
-1693.32
-1719.14
-1738.58
-1753.9
-1766.56
-1777.42
-981.585
-1118.31
-1219.55
-1327.61
-1418
-1487.88
-1542.49
-1585.12
-1619.13
-1647.17
-1671.22
-1692.86
-1713.55
-809.402
-916.269
-990.486
-1072.57
-1166.14
-1238.95
-1298.12
-1345.1
-1384.48
-1419.08
-1451.29
-1484.7
-1517.92
-559.362
-631.046
-677.7
-722.923
-771.807
-819.775
-869.44
-916.257
-958.492
-998.772
-1038.77
-1077.73
-1115.46
-477.714
-441.023
-386.469
-334.421
-294.63
-273.787
-269.052
-275.201
-290.205
-311.502
-338.034
-367.479
-397.118
)
;

boundaryField
{
    top
    {
        type            fixedValue;
        value           uniform 0;
    }
    bottom
    {
        type            fixedFluxPressure;
        gradient        uniform 0;
        value           nonuniform List<scalar> 
12
(
-1438.84
-1506.69
-1560.17
-1600.09
-1630.73
-1655.12
-1675.22
-1692.37
-1707.36
-1720.69
-1732.67
-1743.51
)
;
    }
    frontAndBack
    {
        type            empty;
    }
    left_cyc
    {
        type            cyclic;
    }
    right_cyc
    {
        type            cyclic;
    }
    procBoundary3to0throughright_cyc
    {
        type            processorCyclic;
        value           nonuniform List<scalar> 
15
(
-1753.35
-1722.47
-1679.06
-1650.53
-1649.34
-1669.26
-1699.76
-1732.73
-1762.37
-1785.29
-1787
-1732.76
-1549.44
-1151.38
-427.195
)
;
    }
    procBoundary3to2
    {
        type            processor;
        value           nonuniform List<scalar> 
16
(
-1363.94
-1404.2
-1389.09
-1352.04
-1352.04
-1261
-1219.21
-1180.01
-1140.82
-1094.87
-1031.68
-943.019
-826.892
-689.935
-478.307
-494.221
)
;
    }
}


// ************************************************************************* //
