/*--------------------------------*- C++ -*----------------------------------*\
| =========                 |                                                 |
| \\      /  F ield         | OpenFOAM: The Open Source CFD Toolbox           |
|  \\    /   O peration     | Version:  2.3.0                                 |
|   \\  /    A nd           | Web:      www.OpenFOAM.org                      |
|    \\/     M anipulation  |                                                 |
\*---------------------------------------------------------------------------*/
FoamFile
{
    version     2.0;
    format      ascii;
    class       volScalarField;
    location    "15000";
    object      T;
}
// * * * * * * * * * * * * * * * * * * * * * * * * * * * * * * * * * * * * * //

dimensions      [0 0 0 1 0 0 0];

internalField   nonuniform List<scalar> 
191
(
31.1975
32.8315
34.32
35.5484
36.5637
37.3858
38.0426
38.567
38.989
39.3325
39.6136
39.8401
19.6433
21.3587
23.4659
25.4302
27.008
28.2646
29.3037
30.1914
30.964
31.6391
32.2216
32.7018
16.2279
17.911
19.4895
20.8682
22.0858
23.1776
24.163
25.0607
25.871
26.5935
27.2229
27.7344
15.8686
17.8104
19.4677
20.7525
21.7223
22.4791
23.108
23.6676
24.1964
24.7014
25.1728
25.613
13.9442
16.4153
18.7448
20.6758
22.0878
23.053
23.6995
24.1466
24.4862
24.7811
25.0676
25.3629
25.674
14.1905
17.1015
19.8065
22.0042
23.58
24.6235
25.2721
25.6615
25.9046
26.0838
26.2523
26.4406
26.6626
14.3709
17.6678
20.6851
23.0933
24.8115
25.9456
26.6364
27.0269
27.2442
27.3853
27.5138
27.6637
27.8468
14.416
18.0179
21.2642
23.8098
25.6283
26.8465
27.6055
28.0442
28.2947
28.4606
28.6068
28.7622
28.9305
14.2374
18.0444
21.4478
24.0641
25.9345
27.2296
28.0896
28.6365
28.9869
29.2333
29.4326
29.6102
29.7714
13.7092
17.5559
21.0341
23.7043
25.6276
27.0211
28.0205
28.7193
29.2093
29.5693
29.8528
30.0894
30.2923
12.7372
16.4149
19.8278
22.5195
24.4771
25.96
27.1043
27.972
28.6293
29.1413
29.5587
29.9127
30.223
11.2323
14.5312
17.6241
20.1691
22.0908
23.6012
24.8295
25.823
26.635
27.3169
27.9099
28.4441
28.9492
9.06485
11.7456
14.2463
16.3558
18.0488
19.4157
20.5495
21.5255
22.3946
23.1864
23.9329
24.681
25.4067
6.10552
7.89763
9.57111
11.009
12.1887
13.1579
13.9899
14.7448
15.4557
16.1811
16.9401
17.7067
18.4665
2.37374
3.00351
3.56821
4.04911
4.45354
4.80268
5.1239
5.44464
5.79298
6.15727
6.53304
6.91992
7.31626
)
;

boundaryField
{
    top
    {
        type            fixedValue;
        value           uniform 0;
    }
    bottom
    {
        type            fixedValue;
        value           uniform 43.8;
    }
    frontAndBack
    {
        type            empty;
    }
    left_cyc
    {
        type            cyclic;
    }
    right_cyc
    {
        type            cyclic;
    }
    procBoundary3to0throughright_cyc
    {
        type            processorCyclic;
        value           nonuniform List<scalar> 
15
(
40.0056
33.0372
28.1374
26.0211
26.001
26.9185
28.057
29.0989
29.9116
30.4678
30.5038
29.4202
26.0963
19.2031
7.71303
)
;
    }
    procBoundary3to2
    {
        type            processor;
        value           nonuniform List<scalar> 
16
(
29.9738
18.2247
14.5803
13.8448
13.8448
11.727
11.5641
11.379
11.1243
10.7475
10.1659
9.31868
8.13267
6.51485
4.38277
1.73558
)
;
    }
}


// ************************************************************************* //
