/*--------------------------------*- C++ -*----------------------------------*\
| =========                 |                                                 |
| \\      /  F ield         | OpenFOAM: The Open Source CFD Toolbox           |
|  \\    /   O peration     | Version:  2.3.0                                 |
|   \\  /    A nd           | Web:      www.OpenFOAM.org                      |
|    \\/     M anipulation  |                                                 |
\*---------------------------------------------------------------------------*/
FoamFile
{
    version     2.0;
    format      ascii;
    class       volVectorField;
    location    "15000";
    object      U;
}
// * * * * * * * * * * * * * * * * * * * * * * * * * * * * * * * * * * * * * //

dimensions      [0 1 -1 0 0 0 0];

internalField   nonuniform List<vector> 
191
(
(72.5593 0 -6.15586)
(79.7862 0 2.29502)
(78.2678 0 6.74218)
(72.7435 0 7.02756)
(67.097 0 5.6465)
(62.3514 0 4.1948)
(58.499 0 3.09916)
(55.333 0 2.36121)
(52.6587 0 1.87332)
(50.3731 0 1.53237)
(48.4596 0 1.25504)
(46.9927 0 0.960792)
(37.0828 0 -20.7561)
(50.4127 0 -10.6086)
(61.5886 0 -1.08091)
(69.5972 0 3.25092)
(74.9185 0 4.26837)
(78.2006 0 4.16452)
(79.9498 0 3.80698)
(80.6689 0 3.44896)
(80.7534 0 3.10139)
(80.542 0 2.70136)
(80.3422 0 2.15608)
(80.4644 0 1.33598)
(24.6088 0 -27.4399)
(30.5434 0 -18.9632)
(40.2137 0 -11.0273)
(51.2023 0 -6.0959)
(60.5651 0 -3.10061)
(67.8247 0 -1.06097)
(72.9421 0 0.38029)
(76.4006 0 1.31914)
(78.7457 0 1.77266)
(80.4657 0 1.73156)
(81.9683 0 1.15246)
(83.5803 0 -0.0467607)
(17.5413 0 -32.515)
(21.8569 0 -26.183)
(29.9555 0 -20.737)
(40.101 0 -16.1943)
(49.2234 0 -11.7577)
(56.5861 0 -7.70125)
(61.9721 0 -4.41016)
(65.7997 0 -2.08593)
(68.5848 0 -0.749899)
(70.7799 0 -0.343607)
(72.7238 0 -0.808291)
(74.6313 0 -2.10713)
(9.01602 0 -41.0155)
(12.0837 0 -36.4087)
(15.6668 0 -31.8552)
(23.4099 0 -29.2016)
(31.7794 0 -25.3125)
(39.3521 0 -19.6167)
(45.3409 0 -13.7238)
(49.6796 0 -8.7773)
(52.7709 0 -5.25189)
(55.0474 0 -3.16919)
(56.8542 0 -2.36294)
(58.4043 0 -2.64395)
(59.7805 0 -3.84591)
(5.21434 0 -43.517)
(7.26146 0 -39.5297)
(10.2609 0 -37.2487)
(16.621 0 -36.6313)
(22.5826 0 -32.5092)
(27.8276 0 -25.539)
(31.7786 0 -18.1371)
(34.5416 0 -11.9189)
(36.46 0 -7.50754)
(37.8422 0 -4.87589)
(38.8879 0 -3.73534)
(39.6708 0 -3.76495)
(40.16 0 -4.68749)
(1.81535 0 -44.8668)
(2.60574 0 -41.7152)
(4.21765 0 -41.0447)
(7.61073 0 -41.4337)
(10.6069 0 -36.8208)
(13.1157 0 -28.8984)
(14.8878 0 -20.5037)
(16.0184 0 -13.5123)
(16.7142 0 -8.58886)
(17.1294 0 -5.62481)
(17.3237 0 -4.21613)
(17.2589 0 -3.94066)
(16.8297 0 -4.45498)
(-1.42424 0 -44.8564)
(-2.15081 0 -42.0507)
(-3.32326 0 -42.1253)
(-3.8255 0 -42.8938)
(-4.1835 0 -38.0628)
(-4.53329 0 -29.7874)
(-4.80412 0 -21.0222)
(-5.09451 0 -13.7429)
(-5.41535 0 -8.62066)
(-5.79116 0 -5.48927)
(-6.28394 0 -3.8686)
(-7.00628 0 -3.27519)
(-8.10221 0 -3.34177)
(-4.74041 0 -43.376)
(-7.02669 0 -39.7785)
(-11.3988 0 -39.6335)
(-16.28 0 -40.5043)
(-20.0976 0 -36.0724)
(-23.2579 0 -28.3073)
(-25.39 0 -19.9382)
(-26.8594 0 -12.9007)
(-27.9221 0 -7.89158)
(-28.789 0 -4.75822)
(-29.6331 0 -3.00751)
(-30.6307 0 -2.13218)
(-31.9699 0 -1.76883)
(-8.41974 0 -40.4577)
(-12.0091 0 -35.0779)
(-17.6675 0 -33.6235)
(-26.9683 0 -34.089)
(-34.0314 0 -30.767)
(-39.7773 0 -24.4919)
(-43.6394 0 -17.3767)
(-46.1706 0 -11.1955)
(-47.8095 0 -6.68666)
(-48.9325 0 -3.78155)
(-49.8255 0 -2.03654)
(-50.7474 0 -0.948271)
(-51.9622 0 -0.176094)
(-12.7666 0 -36.4203)
(-17.1602 0 -30.2067)
(-21.8842 0 -25.3458)
(-32.9533 0 -24.9825)
(-42.4722 0 -23.264)
(-50.1303 0 -18.9623)
(-55.4547 0 -13.5639)
(-58.962 0 -8.70853)
(-61.1386 0 -5.09365)
(-62.4772 0 -2.70423)
(-63.359 0 -1.16411)
(-64.1169 0 0.025158)
(-65.0819 0 1.17106)
(-17.7292 0 -31.2425)
(-23.167 0 -25.3168)
(-27.917 0 -18.1168)
(-34.9582 0 -13.23)
(-43.3775 0 -12.9504)
(-51.0129 0 -11.8497)
(-57.0778 0 -8.84678)
(-61.2951 0 -5.73666)
(-63.9394 0 -3.32725)
(-65.5648 0 -1.69823)
(-66.6204 0 -0.564503)
(-67.4473 0 0.607432)
(-68.3025 0 2.05126)
(-22.657 0 -24.6295)
(-29.6989 0 -19.777)
(-35.0899 0 -13.8344)
(-39.1725 0 -9.38186)
(-43.1899 0 -6.58761)
(-48.5034 0 -4.49329)
(-52.5952 0 -2.91743)
(-55.3232 0 -1.73442)
(-57.0458 0 -0.725716)
(-58.1953 0 0.197737)
(-59.1451 0 1.11865)
(-60.1101 0 2.26928)
(-60.9111 0 3.77173)
(-26.3739 0 -15.4503)
(-34.3457 0 -12.2612)
(-40.3664 0 -8.55467)
(-44.5641 0 -5.52376)
(-47.8884 0 -3.53067)
(-50.7003 0 -2.36579)
(-52.8805 0 -1.60054)
(-54.5193 0 -0.964622)
(-55.6668 0 -0.360263)
(-56.3755 0 0.2218)
(-56.6911 0 0.797045)
(-56.5617 0 1.45797)
(-55.8113 0 2.26681)
(-29.299 0 -10.1549)
(-37.7984 0 -7.77701)
(-44.0686 0 -5.03946)
(-48.16 0 -2.64749)
(-50.7945 0 -0.909793)
(-52.6042 0 0.208549)
(-53.945 0 0.88908)
(-54.9541 0 1.34964)
(-55.6229 0 1.71343)
(-55.9188 0 2.02431)
(-55.824 0 2.28698)
(-55.3077 0 2.51224)
(-54.2754 0 2.72748)
)
;

boundaryField
{
    top
    {
        type            directionMixed;
        refValue        uniform (0 0 0);
        refGradient     uniform (0 0 0);
        valueFraction   uniform (0 0 0 0 0 1);
        value           nonuniform List<vector> 
13
(
(-29.299 0 0)
(-37.7984 0 0)
(-44.0686 0 0)
(-48.16 0 0)
(-50.7945 0 0)
(-52.6042 0 0)
(-53.945 0 0)
(-54.9541 0 0)
(-55.6229 0 0)
(-55.9188 0 0)
(-55.824 0 0)
(-55.3077 0 0)
(-54.2754 0 0)
)
;
    }
    bottom
    {
        type            fixedValue;
        value           uniform (0 0 0);
    }
    frontAndBack
    {
        type            empty;
    }
    left_cyc
    {
        type            cyclic;
    }
    right_cyc
    {
        type            cyclic;
    }
    procBoundary3to0throughright_cyc
    {
        type            processorCyclic;
        value           nonuniform List<vector> 
15
(
(46.1669 0 0.560559)
(81.2287 0 0.096381)
(85.5345 0 -1.92753)
(76.5898 0 -4.17885)
(60.9546 0 -5.78932)
(40.2529 0 -6.24003)
(15.907 0 -5.46634)
(-9.70231 0 -3.79147)
(-33.7999 0 -1.6847)
(-53.6651 0 0.437947)
(-66.4808 0 2.30918)
(-69.3524 0 3.59889)
(-61.4501 0 5.45665)
(-54.3766 0 3.10819)
(-52.6356 0 2.93033)
)
;
    }
    procBoundary3to2
    {
        type            processor;
        value           nonuniform List<vector> 
16
(
(57.9096 0 -15.1778)
(24.6679 0 -23.7494)
(18.4253 0 -32.2002)
(13.3501 0 -37.1453)
(13.3501 0 -37.1453)
(5.8304 0 -44.278)
(3.38154 0 -46.8102)
(1.2377 0 -48.0735)
(-0.76999 0 -48.1182)
(-2.84964 0 -46.9649)
(-5.24411 0 -44.5506)
(-8.09743 0 -40.7151)
(-11.3601 0 -35.1751)
(-14.6096 0 -27.9134)
(-17.1248 0 -17.697)
(-19.161 0 -11.9041)
)
;
    }
}


// ************************************************************************* //
