/*--------------------------------*- C++ -*----------------------------------*\
| =========                 |                                                 |
| \\      /  F ield         | OpenFOAM: The Open Source CFD Toolbox           |
|  \\    /   O peration     | Version:  2.3.0                                 |
|   \\  /    A nd           | Web:      www.OpenFOAM.org                      |
|    \\/     M anipulation  |                                                 |
\*---------------------------------------------------------------------------*/
FoamFile
{
    version     2.0;
    format      ascii;
    class       volScalarField;
    location    "11000";
    object      NUEff;
}
// * * * * * * * * * * * * * * * * * * * * * * * * * * * * * * * * * * * * * //

dimensions      [0 2 -1 0 0 0 0];

internalField   nonuniform List<scalar> 
3060
(
0.175231
0.17504
0.174691
0.174197
0.17357
0.172825
0.171975
0.171033
0.170009
0.168911
0.167746
0.166521
0.165247
0.163957
0.162682
0.161426
0.160189
0.158981
0.15782
0.156727
0.155727
0.154847
0.154113
0.153553
0.153195
0.153065
0.153175
0.153515
0.154059
0.154781
0.155653
0.156647
0.157737
0.1589
0.160112
0.161355
0.16262
0.163906
0.165209
0.166493
0.167727
0.168898
0.169998
0.171021
0.171957
0.172795
0.173522
0.174125
0.17459
0.174904
0.175054
0.175031
0.174837
0.174483
0.173981
0.173344
0.172586
0.171721
0.170762
0.169718
0.168599
0.16741
0.166162
0.164867
0.163568
0.162289
0.161029
0.159793
0.158591
0.157445
0.156377
0.155412
0.154577
0.153899
0.153405
0.153124
0.153076
0.153268
0.153681
0.154289
0.155064
0.155979
0.157005
0.158118
0.159294
0.160511
0.161753
0.163013
0.164292
0.165585
0.166847
0.168057
0.169205
0.170285
0.171288
0.172207
0.173031
0.173746
0.17434
0.174798
0.175106
0.175254
0.639087
0.631593
0.617546
0.596898
0.569706
0.536427
0.498206
0.456979
0.415198
0.375231
0.338798
0.306762
0.279281
0.25609
0.237062
0.221601
0.20884
0.198252
0.189481
0.182266
0.176398
0.171717
0.168115
0.16553
0.163942
0.163372
0.163853
0.165356
0.167861
0.171383
0.175984
0.181772
0.188905
0.197595
0.208108
0.220807
0.236226
0.255248
0.27845
0.305972
0.338065
0.374535
0.414463
0.456063
0.496917
0.534559
0.567068
0.593324
0.612877
0.62565
0.631643
0.630731
0.622964
0.608423
0.587104
0.559149
0.525159
0.486463
0.445166
0.403787
0.364625
0.329245
0.298355
0.272003
0.249864
0.231917
0.217269
0.205177
0.195165
0.186903
0.180138
0.174673
0.170362
0.16711
0.164867
0.163628
0.16342
0.16426
0.166109
0.168958
0.172834
0.177813
0.184018
0.191618
0.200837
0.211955
0.225361
0.241641
0.26178
0.286051
0.314713
0.347943
0.385422
0.426066
0.467948
0.508614
0.545696
0.577458
0.602957
0.621871
0.634196
0.63997
0.940972
0.940245
0.93887
0.936803
0.933962
0.930211
0.925339
0.919023
0.910758
0.899735
0.884603
0.862999
0.830563
0.779049
0.694563
0.570818
0.438008
0.339824
0.278742
0.24102
0.216787
0.200681
0.189858
0.182798
0.178717
0.177289
0.178492
0.182341
0.189133
0.199616
0.215247
0.23876
0.275323
0.334548
0.430425
0.562812
0.689152
0.776173
0.829056
0.862169
0.884113
0.899413
0.910512
0.918799
0.925101
0.929935
0.933628
0.936393
0.938365
0.939625
0.94021
0.940121
0.939361
0.937921
0.935752
0.93276
0.928793
0.923614
0.916852
0.907928
0.895896
0.879159
0.854862
0.817669
0.757573
0.659824
0.526675
0.401279
0.316156
0.264083
0.231629
0.210544
0.196456
0.187042
0.18107
0.177927
0.17741
0.179522
0.184335
0.192281
0.204299
0.222184
0.249288
0.291946
0.361457
0.470606
0.606294
0.720584
0.795051
0.840474
0.86948
0.889074
0.902954
0.913152
0.920844
0.926741
0.931293
0.934789
0.937416
0.939295
0.940498
0.941057
0.971996
0.971699
0.971141
0.970312
0.969192
0.967746
0.96592
0.963635
0.960778
0.957177
0.952575
0.94657
0.938507
0.927264
0.910774
0.885162
0.84159
0.759658
0.607741
0.427741
0.314936
0.257204
0.226152
0.208735
0.199546
0.19646
0.19905
0.207663
0.224249
0.253859
0.30871
0.416128
0.59375
0.751539
0.837706
0.883174
0.909672
0.926619
0.938108
0.946312
0.952398
0.957046
0.960669
0.963532
0.965811
0.967621
0.969044
0.970132
0.970921
0.971431
0.97167
0.971633
0.971324
0.970743
0.969878
0.968706
0.967188
0.965265
0.962847
0.959805
0.955944
0.950969
0.94441
0.935493
0.922861
0.903957
0.87374
0.820464
0.71788
0.543786
0.380865
0.290752
0.244374
0.218942
0.204761
0.197828
0.19672
0.20131
0.212354
0.232619
0.26891
0.337598
0.470253
0.654734
0.78668
0.855592
0.893139
0.915801
0.930611
0.94087
0.94831
0.953898
0.958206
0.961591
0.964284
0.966439
0.968159
0.969516
0.970557
0.971313
0.971802
0.972031
0.982692
0.982504
0.982153
0.981635
0.980939
0.980049
0.978938
0.977569
0.975887
0.973815
0.971237
0.967985
0.9638
0.958273
0.950729
0.93998
0.923757
0.897296
0.8493
0.751164
0.565177
0.384619
0.292691
0.249932
0.230056
0.223765
0.229022
0.247497
0.287635
0.373823
0.547675
0.739779
0.844144
0.894758
0.922364
0.939153
0.950212
0.957937
0.963574
0.967827
0.971121
0.973724
0.97581
0.977495
0.978861
0.979963
0.980839
0.981515
0.982008
0.982329
0.982479
0.982456
0.982261
0.981896
0.981356
0.98063
0.979698
0.978532
0.977088
0.975307
0.9731
0.970336
0.966822
0.962256
0.956158
0.947715
0.935459
0.916506
0.884539
0.823966
0.697445
0.49358
0.344419
0.274119
0.241095
0.226525
0.224289
0.233735
0.25826
0.310291
0.422748
0.620749
0.784379
0.865076
0.905658
0.92873
0.943201
0.95295
0.959881
0.965006
0.968915
0.97197
0.974401
0.976362
0.977956
0.979252
0.980302
0.98114
0.981788
0.982262
0.982569
0.982714
0.987867
0.987724
0.987458
0.987065
0.98654
0.985873
0.985048
0.98404
0.982816
0.981327
0.979504
0.977245
0.974399
0.970737
0.965899
0.959262
0.949777
0.93547
0.912245
0.87049
0.785402
0.613247
0.420313
0.319086
0.276784
0.264288
0.274681
0.313632
0.407885
0.594973
0.774917
0.865746
0.909856
0.934129
0.948963
0.958742
0.965553
0.9705
0.974232
0.977123
0.979412
0.981254
0.982752
0.98398
0.984985
0.985805
0.986461
0.986971
0.987345
0.987588
0.987703
0.987685
0.987537
0.98726
0.986851
0.986304
0.985607
0.984742
0.983682
0.982389
0.980809
0.978862
0.976433
0.973348
0.96934
0.963982
0.956529
0.94569
0.928958
0.900906
0.848239
0.737279
0.538956
0.375194
0.299725
0.269703
0.265314
0.284296
0.337955
0.462731
0.667246
0.814312
0.884169
0.919566
0.93985
0.952618
0.961216
0.9673
0.97179
0.975212
0.977886
0.980019
0.981747
0.98316
0.984324
0.985281
0.986063
0.986691
0.98718
0.98754
0.987774
0.987884
0.990777
0.990656
0.99043
0.990097
0.989656
0.989097
0.988411
0.987579
0.986579
0.985374
0.983915
0.982129
0.97991
0.977099
0.973451
0.968551
0.961751
0.951912
0.936869
0.912086
0.866968
0.775545
0.60417
0.433711
0.350579
0.326666
0.34648
0.422935
0.586755
0.764078
0.861584
0.90937
0.935347
0.95099
0.96116
0.968156
0.97318
0.976907
0.979772
0.982026
0.983836
0.98531
0.986524
0.987528
0.988358
0.989039
0.989589
0.990019
0.990335
0.990541
0.990638
0.990624
0.990498
0.990263
0.989918
0.989458
0.988875
0.988156
0.987283
0.986228
0.984953
0.983399
0.981485
0.979089
0.976026
0.972008
0.96655
0.95887
0.947558
0.929846
0.899711
0.842583
0.724957
0.536179
0.395521
0.336926
0.328607
0.365211
0.469994
0.655525
0.806316
0.881788
0.919936
0.941498
0.954875
0.963764
0.969982
0.974504
0.977904
0.980541
0.982634
0.984326
0.985712
0.986859
0.987812
0.988604
0.989256
0.989783
0.990195
0.990499
0.990698
0.990791
0.992553
0.992442
0.992235
0.991933
0.991532
0.991027
0.990412
0.989672
0.988789
0.987736
0.986473
0.984944
0.983063
0.980706
0.977682
0.973678
0.968227
0.96054
0.949207
0.931508
0.90172
0.846956
0.741647
0.582694
0.461502
0.421645
0.454732
0.568756
0.729068
0.840251
0.898289
0.929605
0.948067
0.959816
0.967746
0.973349
0.977451
0.98054
0.982941
0.984853
0.986404
0.987681
0.988742
0.989628
0.990367
0.990979
0.991475
0.991865
0.992153
0.992342
0.992431
0.992417
0.992302
0.992088
0.991773
0.991356
0.990831
0.990187
0.989412
0.988483
0.98737
0.986028
0.984392
0.982366
0.979806
0.976487
0.972051
0.965938
0.957192
0.944054
0.923027
0.886539
0.817536
0.689093
0.53095
0.438874
0.424928
0.485061
0.62528
0.775704
0.864902
0.911214
0.936995
0.952644
0.962832
0.96983
0.974844
0.978556
0.98138
0.983596
0.985375
0.986828
0.98803
0.989036
0.989879
0.990585
0.99117
0.991647
0.992021
0.992299
0.99248
0.992566
0.993695
0.993587
0.993388
0.993096
0.992712
0.99223
0.991647
0.99095
0.990127
0.989154
0.987998
0.986611
0.984923
0.982826
0.980158
0.976667
0.971982
0.965496
0.956173
0.942133
0.919754
0.881728
0.814306
0.705678
0.593052
0.54576
0.5854
0.694566
0.806309
0.877248
0.917243
0.940643
0.955237
0.964882
0.971565
0.976377
0.979952
0.982676
0.984814
0.986531
0.987937
0.989107
0.990088
0.990915
0.991611
0.992191
0.992665
0.993039
0.993316
0.993498
0.993584
0.993571
0.99346
0.993253
0.992951
0.992551
0.99205
0.991441
0.990713
0.989848
0.988821
0.987595
0.986115
0.9843
0.982028
0.979109
0.975256
0.970029
0.962703
0.952008
0.935595
0.908837
0.862409
0.780664
0.662423
0.566888
0.549877
0.618335
0.737402
0.83578
0.893829
0.926733
0.946423
0.958972
0.967416
0.973354
0.977681
0.980928
0.983424
0.9854
0.987001
0.988321
0.989425
0.990356
0.991145
0.99181
0.992366
0.992822
0.993182
0.993449
0.993625
0.993707
0.994459
0.994351
0.994151
0.993858
0.993473
0.992994
0.992416
0.991732
0.99093
0.989991
0.988886
0.987574
0.985992
0.984043
0.981585
0.978402
0.974181
0.968425
0.960315
0.948441
0.930281
0.901259
0.853854
0.781798
0.701945
0.663586
0.695992
0.774352
0.84845
0.89796
0.928288
0.947196
0.959506
0.967882
0.973806
0.978138
0.981397
0.983907
0.985893
0.987504
0.988836
0.989954
0.990901
0.991707
0.992391
0.992965
0.993437
0.993811
0.994089
0.994272
0.994358
0.994345
0.994233
0.994026
0.993723
0.993324
0.992826
0.992224
0.991509
0.990668
0.989679
0.98851
0.987113
0.985415
0.983309
0.980626
0.977124
0.972436
0.965972
0.956746
0.943034
0.921721
0.887229
0.831343
0.752446
0.681199
0.667088
0.721012
0.802818
0.868533
0.910273
0.935849
0.952028
0.962731
0.97012
0.975412
0.979322
0.982291
0.984597
0.986438
0.987942
0.989194
0.990252
0.991153
0.991922
0.992578
0.993129
0.993583
0.993944
0.994212
0.994389
0.994472
0.994992
0.994881
0.994673
0.994371
0.993974
0.993481
0.992891
0.992196
0.991387
0.990449
0.989357
0.988073
0.986538
0.984667
0.982326
0.979328
0.975398
0.97011
0.962788
0.952322
0.93686
0.913378
0.877658
0.82747
0.773962
0.74786
0.769961
0.822465
0.873764
0.9108
0.935204
0.951242
0.962066
0.969616
0.975053
0.979085
0.982153
0.984544
0.986452
0.988013
0.989318
0.990424
0.991371
0.992183
0.992878
0.993465
0.993949
0.994334
0.994621
0.99481
0.994899
0.994885
0.99477
0.994556
0.994243
0.993832
0.993321
0.992707
0.991983
0.991137
0.990152
0.988998
0.987633
0.985991
0.983972
0.981425
0.978137
0.973789
0.967881
0.959612
0.947653
0.929789
0.902507
0.861584
0.807776
0.759928
0.75027
0.786759
0.841769
0.888422
0.920523
0.941535
0.955453
0.964955
0.971659
0.976539
0.980192
0.982996
0.985197
0.986969
0.988431
0.989661
0.990709
0.991611
0.992389
0.993055
0.99362
0.994087
0.994459
0.994737
0.994919
0.995005
0.995383
0.995265
0.995046
0.994728
0.99431
0.993792
0.993174
0.992451
0.991615
0.990653
0.989543
0.98825
0.986721
0.984877
0.982592
0.979698
0.97595
0.970972
0.964191
0.954712
0.94114
0.921433
0.893265
0.856545
0.819805
0.80241
0.817144
0.853052
0.890332
0.919347
0.939727
0.953757
0.963537
0.970517
0.97563
0.979473
0.982433
0.984767
0.986648
0.988204
0.989517
0.990641
0.991612
0.992453
0.993175
0.993789
0.994297
0.994703
0.995005
0.995203
0.995296
0.995282
0.995161
0.994936
0.994607
0.994175
0.993639
0.992997
0.992245
0.991372
0.990363
0.989194
0.987823
0.986192
0.984207
0.981728
0.978566
0.974435
0.968902
0.961297
0.95057
0.935108
0.912664
0.881216
0.842833
0.810436
0.804005
0.828439
0.86673
0.901548
0.927321
0.945192
0.957523
0.966185
0.972423
0.977033
0.980528
0.983242
0.985397
0.987149
0.988609
0.98985
0.990918
0.991846
0.992651
0.993346
0.993938
0.994429
0.994821
0.995114
0.995306
0.995396
0.995686
0.995561
0.995328
0.994989
0.994543
0.993993
0.993336
0.99257
0.991689
0.990682
0.98953
0.988201
0.986645
0.984788
0.982515
0.979671
0.976031
0.971263
0.964875
0.956138
0.943995
0.927078
0.904213
0.876347
0.850183
0.838274
0.848369
0.87383
0.901945
0.925361
0.942775
0.955286
0.964279
0.970844
0.975736
0.979464
0.982373
0.984694
0.986588
0.988171
0.989521
0.990688
0.991704
0.992588
0.993353
0.994004
0.994544
0.994975
0.995297
0.995508
0.995607
0.995592
0.995463
0.995224
0.994873
0.994414
0.993845
0.993164
0.992369
0.991452
0.990399
0.989187
0.987782
0.986127
0.984134
0.981677
0.97858
0.974586
0.969314
0.962199
0.952405
0.938752
0.919832
0.894883
0.866444
0.843752
0.839353
0.856205
0.883884
0.910789
0.932048
0.947576
0.958706
0.966741
0.972646
0.977078
0.980483
0.983159
0.98531
0.987079
0.988569
0.989848
0.99096
0.991932
0.992782
0.993518
0.994147
0.99467
0.995088
0.9954
0.995605
0.995701
0.995938
0.995805
0.995556
0.995193
0.994716
0.994126
0.993423
0.992605
0.991666
0.990599
0.989384
0.987995
0.986386
0.984486
0.982191
0.979357
0.975778
0.971156
0.965071
0.956932
0.945951
0.931246
0.912364
0.890693
0.871488
0.863065
0.870221
0.888844
0.910587
0.929825
0.944897
0.956174
0.964531
0.970772
0.975509
0.979172
0.982068
0.984411
0.986348
0.987985
0.989395
0.990624
0.9917
0.992641
0.993457
0.994153
0.994731
0.995192
0.995535
0.99576
0.995866
0.99585
0.995713
0.995457
0.995083
0.994592
0.993983
0.993256
0.992408
0.991432
0.990318
0.989045
0.987581
0.985874
0.983842
0.981372
0.978299
0.974389
0.969306
0.962578
0.953542
0.941353
0.925181
0.904994
0.883348
0.866936
0.863818
0.875824
0.896422
0.917686
0.935498
0.949152
0.959303
0.966836
0.972489
0.976803
0.980163
0.982839
0.985019
0.986833
0.988379
0.989718
0.990892
0.991925
0.992831
0.993619
0.994292
0.994852
0.995299
0.995633
0.995851
0.995954
0.996162
0.99602
0.995755
0.995367
0.994857
0.994226
0.993472
0.992595
0.99159
0.99045
0.989158
0.987692
0.986008
0.984042
0.981701
0.978851
0.975301
0.970786
0.964955
0.957342
0.947378
0.934542
0.918832
0.901742
0.88731
0.881172
0.886407
0.900369
0.917443
0.933374
0.946477
0.956675
0.964472
0.970441
0.975062
0.978691
0.981602
0.98399
0.985992
0.987704
0.989192
0.990497
0.991645
0.992652
0.993525
0.994269
0.994887
0.995379
0.995745
0.995984
0.996096
0.996079
0.995934
0.995662
0.995263
0.994738
0.994087
0.993309
0.992402
0.991359
0.990172
0.988822
0.987281
0.985501
0.983408
0.980898
0.977821
0.973963
0.969026
0.962631
0.954264
0.943343
0.929451
0.912965
0.89619
0.883999
0.881715
0.890515
0.906172
0.923178
0.938197
0.950247
0.959539
0.966633
0.972082
0.976313
0.979657
0.982359
0.984591
0.986474
0.988096
0.989513
0.990763
0.991867
0.992837
0.993682
0.994403
0.995003
0.995481
0.995837
0.99607
0.996178
0.996372
0.996222
0.995941
0.99553
0.994987
0.994315
0.993511
0.992573
0.991499
0.99028
0.988902
0.987346
0.985574
0.983528
0.981126
0.978244
0.974713
0.970304
0.964726
0.957617
0.948591
0.937392
0.92428
0.91068
0.899667
0.895105
0.899017
0.909659
0.923202
0.936445
0.947835
0.957045
0.964307
0.970007
0.97451
0.978115
0.981055
0.983504
0.985585
0.987385
0.988961
0.990351
0.991577
0.992651
0.993582
0.994375
0.995032
0.995554
0.995941
0.996194
0.996312
0.996295
0.996141
0.995853
0.995431
0.994873
0.994181
0.993352
0.992384
0.991272
0.990005
0.988568
0.986938
0.985072
0.982904
0.980341
0.977245
0.97343
0.968645
0.962574
0.954838
0.945068
0.933126
0.919589
0.906436
0.897216
0.895504
0.902078
0.914144
0.927846
0.940535
0.951159
0.959649
0.96632
0.97156
0.975713
0.979055
0.981797
0.984095
0.986063
0.987774
0.98928
0.990615
0.991795
0.992832
0.993734
0.994504
0.995142
0.99565
0.996028
0.996274
0.996389
0.996578
0.996421
0.996125
0.995693
0.995122
0.994412
0.993562
0.992568
0.991428
0.990134
0.988673
0.987028
0.985166
0.983039
0.980574
0.977661
0.974152
0.969857
0.964539
0.957936
0.949806
0.940083
0.929162
0.91831
0.909841
0.906414
0.909376
0.917559
0.928339
0.939334
0.949191
0.957462
0.964191
0.969612
0.973993
0.977569
0.980537
0.983046
0.985208
0.987096
0.988759
0.99023
0.991528
0.992666
0.993651
0.994488
0.99518
0.995728
0.996135
0.996401
0.996525
0.996506
0.996345
0.996043
0.995599
0.995013
0.994284
0.993408
0.992384
0.991205
0.989863
0.988344
0.986626
0.984672
0.982428
0.979811
0.9767
0.972934
0.968306
0.962568
0.955455
0.94676
0.936533
0.92542
0.915056
0.908013
0.906711
0.911673
0.921032
0.932086
0.942773
0.952092
0.959805
0.966046
0.971071
0.97514
0.978476
0.981259
0.983626
0.985678
0.987479
0.989074
0.990489
0.991742
0.992843
0.993799
0.994612
0.995285
0.995819
0.996216
0.996475
0.996596
0.996786
0.996622
0.996316
0.995867
0.995274
0.994536
0.993649
0.992612
0.991417
0.990059
0.988527
0.986803
0.984863
0.982666
0.98015
0.977221
0.973755
0.969598
0.964571
0.958496
0.951248
0.942886
0.933858
0.925232
0.918718
0.916137
0.91839
0.924692
0.933249
0.942316
0.950769
0.958123
0.964299
0.969414
0.973645
0.977172
0.980151
0.982708
0.984937
0.986901
0.98864
0.99018
0.991539
0.992728
0.993755
0.994626
0.995344
0.995913
0.996335
0.99661
0.996739
0.996719
0.996553
0.996239
0.995779
0.995171
0.994414
0.993503
0.992434
0.991201
0.989796
0.988205
0.986411
0.984381
0.982074
0.979418
0.976309
0.972614
0.96817
0.962793
0.956315
0.948654
0.939972
0.930902
0.922749
0.917355
0.916358
0.920112
0.927366
0.93624
0.945168
0.953261
0.960198
0.965983
0.970764
0.974724
0.978036
0.980846
0.983269
0.985395
0.987275
0.988947
0.990432
0.991746
0.992899
0.993897
0.994744
0.995444
0.995999
0.99641
0.996679
0.996805
0.997
0.996833
0.99652
0.996061
0.995456
0.994701
0.993794
0.992728
0.9915
0.9901
0.988518
0.986741
0.984748
0.982509
0.979974
0.977063
0.97368
0.969707
0.965021
0.959514
0.953154
0.946072
0.938709
0.931924
0.92695
0.925018
0.926728
0.931552
0.93828
0.945661
0.952805
0.959244
0.96483
0.969588
0.973624
0.97706
0.980015
0.982587
0.984854
0.986867
0.988656
0.990242
0.99164
0.992861
0.993913
0.994803
0.995536
0.996117
0.996547
0.996828
0.996959
0.99694
0.996769
0.996449
0.99598
0.99536
0.994586
0.993655
0.992559
0.991293
0.989847
0.988209
0.986364
0.984287
0.981947
0.979283
0.976213
0.972632
0.968419
0.963452
0.957641
0.950993
0.943727
0.936412
0.930054
0.925944
0.925181
0.928004
0.933581
0.940625
0.947979
0.954899
0.961041
0.966325
0.970813
0.974619
0.977868
0.980672
0.983123
0.985294
0.987228
0.988952
0.990484
0.991838
0.993024
0.994047
0.994914
0.995629
0.996196
0.996616
0.996891
0.99702
0.997224
0.997056
0.996742
0.996282
0.995676
0.99492
0.99401
0.99294
0.991704
0.990294
0.9887
0.986909
0.984906
0.982674
0.98017
0.977335
0.974097
0.970377
0.966099
0.961216
0.955757
0.949891
0.944007
0.938765
0.935025
0.9336
0.934883
0.938524
0.943726
0.949619
0.955528
0.961044
0.965987
0.970323
0.974095
0.977377
0.98025
0.982785
0.985041
0.987059
0.988858
0.990454
0.991859
0.993085
0.994139
0.99503
0.995764
0.996344
0.996775
0.997057
0.997189
0.997169
0.996997
0.996677
0.996207
0.995587
0.994813
0.99388
0.992782
0.99151
0.990056
0.988408
0.986553
0.984474
0.982151
0.979534
0.976562
0.973159
0.969246
0.964754
0.959653
0.954009
0.948055
0.942267
0.937387
0.934297
0.933718
0.935811
0.94003
0.945518
0.95145
0.957237
0.962554
0.967277
0.971403
0.97499
0.978115
0.980856
0.983284
0.985454
0.987399
0.989137
0.990682
0.992046
0.993237
0.994264
0.995133
0.995849
0.996417
0.996838
0.997114
0.997243
0.997457
0.997292
0.996983
0.996532
0.995939
0.995199
0.994309
0.993263
0.992054
0.990673
0.989113
0.987362
0.985412
0.983252
0.980851
0.978169
0.97516
0.971777
0.967986
0.963786
0.959242
0.954524
0.949953
0.946007
0.943261
0.942234
0.943177
0.945866
0.949788
0.954367
0.959114
0.9637
0.967946
0.971781
0.975205
0.978251
0.980963
0.983389
0.985568
0.987529
0.989284
0.990843
0.992216
0.993413
0.994443
0.995314
0.996031
0.996599
0.997021
0.997297
0.997428
0.997408
0.997239
0.996925
0.996465
0.995858
0.995102
0.99419
0.993117
0.991875
0.990454
0.988845
0.987037
0.985019
0.982779
0.980284
0.977489
0.974349
0.970819
0.966874
0.96253
0.957879
0.953137
0.948678
0.945022
0.942748
0.942317
0.943833
0.946949
0.951112
0.955762
0.960459
0.964924
0.96902
0.972702
0.975984
0.978903
0.981507
0.983841
0.985945
0.987841
0.989541
0.991053
0.992388
0.993553
0.994558
0.995408
0.996108
0.996664
0.997078
0.997349
0.997476
0.9977
0.997541
0.997245
0.996814
0.996247
0.995543
0.994697
0.993705
0.992559
0.991254
0.989781
0.988134
0.986306
0.984297
0.982085
0.979646
0.976958
0.974001
0.970773
0.967301
0.963662
0.96001
0.956584
0.953713
0.95176
0.951043
0.951717
0.953642
0.956505
0.959939
0.963614
0.967282
0.970788
0.97405
0.977038
0.979755
0.982217
0.984449
0.986472
0.988307
0.989955
0.991424
0.992721
0.993854
0.99483
0.995657
0.99634
0.996882
0.997285
0.997551
0.997676
0.997657
0.997495
0.997193
0.996754
0.996175
0.995456
0.99459
0.993574
0.992399
0.991058
0.989543
0.987846
0.985961
0.983886
0.981597
0.979071
0.976284
0.973224
0.969894
0.966335
0.962646
0.959006
0.955688
0.953035
0.951412
0.951099
0.952164
0.954392
0.957443
0.960956
0.964625
0.968231
0.971644
0.974803
0.977688
0.980309
0.982687
0.984844
0.986805
0.988584
0.990185
0.991613
0.992875
0.99398
0.994933
0.995741
0.996409
0.99694
0.997336
0.997596
0.997719
0.997953
0.997804
0.997527
0.997126
0.9966
0.99595
0.995172
0.994263
0.993218
0.992032
0.990701
0.989219
0.987586
0.985804
0.983862
0.981752
0.979467
0.977009
0.974393
0.971658
0.968881
0.966179
0.963721
0.961715
0.960378
0.959896
0.960361
0.961689
0.963696
0.966164
0.968884
0.971684
0.974443
0.977084
0.979566
0.981873
0.984001
0.985956
0.987749
0.989386
0.990868
0.992195
0.993372
0.994405
0.995299
0.996059
0.99669
0.997192
0.997568
0.997816
0.997934
0.997916
0.997764
0.997482
0.997073
0.996538
0.995874
0.995079
0.994149
0.993079
0.991864
0.990497
0.988974
0.987296
0.985462
0.983462
0.981288
0.978935
0.976408
0.973731
0.970952
0.968159
0.965487
0.963118
0.961269
0.960152
0.959933
0.960652
0.962185
0.964331
0.966871
0.969607
0.972383
0.975092
0.97767
0.980084
0.982323
0.984388
0.986288
0.988031
0.989623
0.991065
0.992358
0.993506
0.994514
0.995389
0.996133
0.99675
0.997243
0.997612
0.997856
0.997971
0.998215
0.998079
0.997828
0.997466
0.996995
0.996415
0.995726
0.994927
0.994014
0.992985
0.991839
0.990574
0.989191
0.987696
0.986086
0.984363
0.982531
0.980603
0.978601
0.976566
0.974557
0.972659
0.970979
0.969639
0.968763
0.968452
0.96876
0.969637
0.970982
0.972673
0.974586
0.976611
0.978665
0.980685
0.982631
0.984479
0.986216
0.987836
0.989338
0.990724
0.991989
0.993131
0.994153
0.995055
0.995842
0.996516
0.997077
0.997528
0.997867
0.998092
0.998199
0.998183
0.998045
0.99779
0.997422
0.996942
0.996351
0.995648
0.994831
0.993898
0.992845
0.991671
0.990375
0.988958
0.987425
0.985774
0.984007
0.982132
0.980163
0.97813
0.976077
0.974071
0.972205
0.970593
0.969359
0.968622
0.968475
0.968942
0.96995
0.971391
0.97314
0.975077
0.9771
0.979131
0.981116
0.983022
0.984826
0.98652
0.9881
0.989566
0.990918
0.992152
0.993267
0.994265
0.995147
0.995918
0.996578
0.997129
0.997572
0.997905
0.998126
0.998231
0.998483
0.998364
0.998145
0.997831
0.997425
0.996929
0.996346
0.995674
0.994916
0.99407
0.993136
0.992117
0.991015
0.989837
0.988584
0.987265
0.985888
0.98447
0.983033
0.981608
0.980238
0.978977
0.977886
0.977034
0.976485
0.976293
0.976488
0.977041
0.9779
0.979
0.980273
0.981655
0.983094
0.984544
0.985975
0.987364
0.988693
0.989954
0.991138
0.992243
0.993262
0.994193
0.995034
0.995784
0.996446
0.997017
0.997498
0.997887
0.998181
0.998377
0.998471
0.998457
0.998336
0.998113
0.997794
0.997381
0.996877
0.996282
0.995597
0.994823
0.993959
0.993005
0.991964
0.990838
0.989633
0.988353
0.987007
0.985605
0.984166
0.982715
0.981287
0.979927
0.978693
0.97765
0.976865
0.976401
0.976307
0.976597
0.977231
0.978152
0.979293
0.980589
0.981978
0.98341
0.984845
0.986254
0.987617
0.98892
0.990154
0.991313
0.992393
0.99339
0.9943
0.995123
0.995859
0.996507
0.997068
0.99754
0.997922
0.998212
0.998405
0.998497
0.998756
0.998657
0.998474
0.998215
0.997882
0.997479
0.997011
0.996478
0.995884
0.995229
0.994517
0.993749
0.992929
0.992062
0.991153
0.990212
0.989248
0.988276
0.987312
0.986378
0.985501
0.98471
0.98404
0.983526
0.983199
0.983085
0.983202
0.983534
0.984055
0.984732
0.98553
0.986417
0.98736
0.988334
0.989316
0.990288
0.991237
0.992152
0.993024
0.993846
0.994615
0.995326
0.995977
0.996567
0.997092
0.997552
0.997942
0.998262
0.998505
0.998669
0.998747
0.998735
0.998634
0.998449
0.998185
0.997847
0.997438
0.996961
0.996419
0.995814
0.995147
0.99442
0.993637
0.992801
0.991917
0.990992
0.990036
0.98906
0.988078
0.98711
0.986179
0.985312
0.984542
0.983903
0.983428
0.98315
0.983093
0.983265
0.983644
0.984202
0.984907
0.985723
0.986618
0.987563
0.988531
0.989502
0.990461
0.991395
0.992294
0.993149
0.993956
0.994709
0.995407
0.996046
0.996624
0.99714
0.997591
0.997976
0.99829
0.99853
0.998691
0.998768
0.999033
0.998955
0.998812
0.998611
0.998355
0.99805
0.9977
0.997307
0.996875
0.996406
0.995904
0.99537
0.994807
0.994219
0.993611
0.992992
0.992369
0.991753
0.991155
0.990586
0.990063
0.9896
0.989214
0.988922
0.988737
0.988674
0.98874
0.988928
0.989225
0.989616
0.990084
0.990613
0.991188
0.991793
0.992416
0.993044
0.993669
0.994281
0.994873
0.995438
0.995973
0.996476
0.996943
0.997373
0.997761
0.998106
0.998403
0.998648
0.998837
0.998965
0.999027
0.999017
0.998938
0.998793
0.998589
0.99833
0.99802
0.997664
0.997264
0.996825
0.996348
0.995837
0.995294
0.994722
0.994123
0.993507
0.99288
0.992252
0.991633
0.991034
0.99047
0.989955
0.989505
0.989138
0.988868
0.988711
0.988679
0.988774
0.988988
0.989307
0.989714
0.990195
0.990732
0.991309
0.991914
0.992532
0.993155
0.993772
0.994375
0.994957
0.995513
0.996038
0.996532
0.996992
0.997414
0.997796
0.998135
0.998427
0.998669
0.998855
0.998982
0.999042
0.999311
0.999255
0.999154
0.999013
0.998836
0.998627
0.99839
0.998129
0.997847
0.997546
0.997229
0.996897
0.996552
0.996193
0.995829
0.995463
0.995101
0.994749
0.994414
0.9941
0.993816
0.993569
0.993366
0.993213
0.993118
0.993086
0.99312
0.993217
0.993372
0.993579
0.993829
0.994116
0.994433
0.994773
0.995129
0.995494
0.995864
0.996232
0.996592
0.99694
0.997273
0.997591
0.997892
0.998173
0.998432
0.998665
0.998868
0.999039
0.999172
0.999262
0.999306
0.9993
0.999243
0.999141
0.998998
0.998818
0.998607
0.998367
0.998102
0.997815
0.99751
0.997188
0.99685
0.9965
0.996136
0.995767
0.995398
0.995035
0.994682
0.994348
0.994038
0.99376
0.99352
0.993327
0.993186
0.993105
0.993088
0.993137
0.993248
0.993414
0.99363
0.993888
0.99418
0.9945
0.99484
0.995195
0.995558
0.995924
0.996288
0.996643
0.996985
0.997313
0.997626
0.997923
0.9982
0.998455
0.998684
0.998885
0.999053
0.999185
0.999274
0.999317
0.999588
0.999555
0.999496
0.999413
0.999312
0.999193
0.999061
0.998918
0.998767
0.998608
0.998443
0.998274
0.998099
0.997919
0.997738
0.997559
0.997384
0.997217
0.99706
0.996915
0.996786
0.996675
0.996584
0.996517
0.996475
0.996461
0.996476
0.996519
0.996587
0.996679
0.996792
0.996923
0.997069
0.997228
0.997398
0.997574
0.997756
0.997939
0.99812
0.998296
0.998466
0.998632
0.998791
0.998942
0.999085
0.999215
0.999331
0.999429
0.999506
0.999559
0.999585
0.999581
0.999548
0.999488
0.999405
0.999302
0.999182
0.999049
0.998904
0.99875
0.998589
0.998422
0.99825
0.998073
0.997891
0.997708
0.997528
0.997353
0.997186
0.99703
0.996887
0.996761
0.996653
0.996567
0.996505
0.99647
0.996462
0.996484
0.996532
0.996606
0.996702
0.996818
0.996952
0.9971
0.99726
0.997429
0.997605
0.997785
0.997967
0.998145
0.998318
0.998487
0.99865
0.998807
0.998957
0.999097
0.999226
0.99934
0.999437
0.999513
0.999566
0.999592
0.999863
0.999852
0.999833
0.999806
0.999774
0.999738
0.999697
0.999655
0.99961
0.999564
0.999518
0.999471
0.999423
0.999373
0.999323
0.999274
0.999227
0.999183
0.999141
0.999104
0.99907
0.999042
0.999019
0.999002
0.998992
0.998988
0.998992
0.999003
0.99902
0.999043
0.999072
0.999106
0.999144
0.999186
0.999231
0.999278
0.999328
0.999379
0.999429
0.999477
0.999525
0.999571
0.999617
0.999662
0.999704
0.999744
0.99978
0.999811
0.999836
0.999853
0.999862
0.999861
0.99985
0.99983
0.999804
0.999771
0.999734
0.999694
0.99965
0.999605
0.999559
0.999512
0.999465
0.999416
0.999365
0.999315
0.999266
0.999219
0.999174
0.999133
0.999096
0.999064
0.999037
0.999015
0.998999
0.99899
0.998989
0.998994
0.999006
0.999025
0.999049
0.999079
0.999113
0.999152
0.999194
0.999239
0.999287
0.999336
0.999386
0.999436
0.999483
0.99953
0.999576
0.999622
0.999666
0.999708
0.999748
0.999783
0.999814
0.999838
0.999856
0.999864
)
;

boundaryField
{
    top
    {
        type            calculated;
        value           uniform 1;
    }
    bottom
    {
        type            calculated;
        value           uniform 0.148957;
    }
    frontAndBack
    {
        type            empty;
    }
    left_cyc
    {
        type            cyclic;
    }
    right_cyc
    {
        type            cyclic;
    }
}


// ************************************************************************* //
