/*--------------------------------*- C++ -*----------------------------------*\
| =========                 |                                                 |
| \\      /  F ield         | OpenFOAM: The Open Source CFD Toolbox           |
|  \\    /   O peration     | Version:  2.3.0                                 |
|   \\  /    A nd           | Web:      www.OpenFOAM.org                      |
|    \\/     M anipulation  |                                                 |
\*---------------------------------------------------------------------------*/
FoamFile
{
    version     2.0;
    format      ascii;
    class       volScalarField;
    location    "11000";
    object      NUEff;
}
// * * * * * * * * * * * * * * * * * * * * * * * * * * * * * * * * * * * * * //

dimensions      [0 2 -1 0 0 0 0];

internalField   nonuniform List<scalar> 
765
(
0.285614
0.274627
0.25793
0.239208
0.22103
0.204771
0.191174
0.181401
0.173662
0.167461
0.16272
0.159552
0.158225
0.159086
0.161869
0.166266
0.172132
0.179493
0.188753
0.201466
0.217163
0.234997
0.253796
0.271298
0.284031
0.288076
0.281352
0.26696
0.248821
0.23012
0.212787
0.197812
0.186161
0.177431
0.170467
0.164973
0.160975
0.158656
0.158362
0.1602
0.163793
0.168915
0.175499
0.183731
0.194412
0.208701
0.225514
0.243995
0.2625
0.278131
0.287048
0.964056
0.961991
0.957924
0.951119
0.939831
0.919776
0.878585
0.771575
0.502047
0.296342
0.224842
0.196789
0.187537
0.193429
0.216266
0.27341
0.437211
0.725747
0.862037
0.91302
0.936325
0.949076
0.95669
0.961293
0.963791
0.964481
0.96331
0.960302
0.955022
0.946337
0.931574
0.903683
0.839242
0.659769
0.376249
0.252783
0.208142
0.190442
0.188452
0.20174
0.237064
0.330483
0.582477
0.810179
0.892505
0.926153
0.943294
0.95318
0.959177
0.962692
0.9643
0.985525
0.984718
0.983189
0.980794
0.977198
0.971693
0.962716
0.946317
0.910792
0.805189
0.478443
0.284715
0.243659
0.268652
0.409818
0.75496
0.89697
0.940767
0.959903
0.970068
0.97617
0.980115
0.982743
0.984452
0.985423
0.985696
0.985233
0.984075
0.982146
0.979221
0.974817
0.967899
0.956039
0.93285
0.87558
0.674264
0.35102
0.255488
0.247275
0.311275
0.575402
0.846347
0.923111
0.951587
0.965476
0.973338
0.978256
0.981499
0.983651
0.984989
0.985622
0.991199
0.990628
0.989564
0.987946
0.985616
0.982229
0.977045
0.968311
0.951779
0.914428
0.801561
0.501829
0.36219
0.447139
0.750291
0.899747
0.946116
0.965562
0.975518
0.981273
0.984972
0.987498
0.989258
0.990441
0.991126
0.991319
0.990991
0.990177
0.988852
0.986913
0.984129
0.980002
0.973432
0.961725
0.937883
0.87676
0.671825
0.401524
0.373929
0.582664
0.845227
0.927569
0.95719
0.971043
0.978601
0.98322
0.986289
0.988415
0.989882
0.990819
0.991267
0.993492
0.992976
0.992022
0.990603
0.988622
0.98585
0.98177
0.975158
0.963379
0.939602
0.882159
0.730094
0.572954
0.683064
0.859534
0.93115
0.959559
0.973152
0.98061
0.985087
0.988086
0.990215
0.991749
0.992805
0.993424
0.993598
0.993302
0.992567
0.99139
0.989714
0.987389
0.984075
0.978997
0.970361
0.954127
0.918617
0.825027
0.630753
0.591563
0.781245
0.902629
0.947572
0.967133
0.977191
0.982975
0.986648
0.989186
0.99101
0.992305
0.993148
0.993553
0.994619
0.99409
0.993113
0.991675
0.989713
0.987054
0.983281
0.977393
0.967397
0.948647
0.909346
0.826922
0.744014
0.803357
0.895634
0.942387
0.964267
0.975647
0.982217
0.986333
0.989188
0.991283
0.992831
0.993912
0.994547
0.994724
0.994422
0.993667
0.992465
0.990783
0.988513
0.985389
0.980768
0.973248
0.959887
0.933416
0.875997
0.776194
0.754703
0.85276
0.922515
0.954732
0.970519
0.97917
0.984378
0.987808
0.990264
0.992083
0.993401
0.994267
0.994681
0.995287
0.994714
0.993648
0.992081
0.989964
0.987158
0.983311
0.977587
0.968357
0.952172
0.922016
0.870384
0.827461
0.857524
0.912489
0.947048
0.965556
0.97593
0.982241
0.986406
0.989399
0.991652
0.993337
0.994517
0.995207
0.995396
0.995071
0.994249
0.992936
0.991109
0.988683
0.985435
0.980822
0.97369
0.961702
0.939914
0.899546
0.843313
0.832593
0.885241
0.931597
0.957271
0.971182
0.979281
0.984411
0.987944
0.990554
0.992523
0.993962
0.994905
0.995353
0.995777
0.99515
0.993974
0.992234
0.989879
0.986782
0.982642
0.976838
0.968028
0.953718
0.930033
0.89604
0.872009
0.888512
0.923206
0.949435
0.96545
0.975207
0.981525
0.985955
0.989248
0.991752
0.993626
0.99493
0.995687
0.995893
0.995538
0.994635
0.993181
0.991146
0.988453
0.984901
0.980072
0.973038
0.96197
0.943642
0.914335
0.88047
0.874662
0.905094
0.937166
0.958077
0.970659
0.97852
0.983806
0.987643
0.990532
0.992725
0.994321
0.995359
0.995848
0.996212
0.995536
0.994267
0.992378
0.989806
0.986434
0.982042
0.976201
0.9679
0.955531
0.937356
0.914974
0.901032
0.910465
0.932541
0.95204
0.965569
0.974608
0.980885
0.985539
0.989111
0.991849
0.993887
0.995297
0.996113
0.996336
0.995952
0.994978
0.993404
0.991186
0.98824
0.984409
0.979403
0.97253
0.962493
0.947457
0.926512
0.905751
0.902462
0.920545
0.942545
0.959158
0.970308
0.977852
0.983251
0.98736
0.990518
0.992912
0.994641
0.995761
0.996289
0.996661
0.995967
0.994672
0.992743
0.990107
0.986654
0.982243
0.976638
0.969204
0.959125
0.946013
0.931957
0.924058
0.929339
0.942806
0.956451
0.967207
0.975154
0.9811
0.985737
0.989389
0.992199
0.994282
0.995721
0.996557
0.996788
0.996391
0.995394
0.993788
0.991518
0.988493
0.984589
0.979657
0.973259
0.96464
0.953048
0.938918
0.926639
0.92481
0.935245
0.949557
0.961955
0.971289
0.978182
0.983429
0.987595
0.990836
0.993288
0.995053
0.996197
0.996741
0.997158
0.996495
0.995275
0.993473
0.991026
0.987849
0.983873
0.979022
0.973019
0.965644
0.957157
0.949143
0.945013
0.947746
0.95523
0.963809
0.971479
0.977773
0.982855
0.987006
0.990358
0.992964
0.994908
0.996261
0.997056
0.997279
0.996897
0.995952
0.994445
0.99233
0.98953
0.985961
0.98159
0.976215
0.969557
0.961547
0.952963
0.946318
0.945377
0.950912
0.959328
0.967623
0.974645
0.980327
0.984926
0.988709
0.9917
0.99398
0.995633
0.996714
0.997235
0.997712
0.997139
0.996104
0.994611
0.992629
0.99012
0.987074
0.983506
0.979388
0.974795
0.970083
0.966105
0.964195
0.965448
0.969083
0.973719
0.97838
0.982614
0.986303
0.989462
0.992093
0.994193
0.995796
0.996937
0.997622
0.997818
0.997484
0.996675
0.995411
0.993677
0.991436
0.988656
0.985363
0.981528
0.977158
0.972437
0.967937
0.964781
0.964352
0.96694
0.971229
0.975974
0.980467
0.984447
0.987876
0.990795
0.993171
0.995028
0.996406
0.997327
0.997781
0.998321
0.997888
0.997131
0.996079
0.994741
0.993121
0.991232
0.989111
0.986823
0.984486
0.982311
0.980631
0.979867
0.980365
0.981873
0.983967
0.986288
0.988597
0.990761
0.992705
0.994388
0.995791
0.99691
0.997738
0.998252
0.998403
0.998147
0.997544
0.996636
0.995441
0.993962
0.992205
0.990198
0.987986
0.985656
0.983366
0.981384
0.980097
0.979927
0.980971
0.982818
0.985064
0.987405
0.98966
0.991729
0.993552
0.995102
0.996369
0.997349
0.998029
0.998374
0.998971
0.99871
0.998274
0.997699
0.997011
0.996225
0.995346
0.994389
0.993418
0.992494
0.991697
0.991119
0.990866
0.99103
0.991542
0.992298
0.993199
0.994165
0.995128
0.996029
0.996836
0.997547
0.99815
0.998622
0.998929
0.999021
0.998865
0.998509
0.998
0.997366
0.996629
0.995798
0.994873
0.993903
0.992948
0.992076
0.991373
0.990941
0.990885
0.991233
0.991878
0.992716
0.993659
0.994633
0.995579
0.996433
0.997194
0.997855
0.998397
0.998794
0.999003
0.999645
0.999562
0.999431
0.99927
0.999092
0.998901
0.998691
0.998459
0.998232
0.998028
0.997859
0.997742
0.997692
0.997725
0.997828
0.997985
0.998183
0.998406
0.998638
0.998855
0.999048
0.999229
0.999395
0.999535
0.999631
0.999662
0.999611
0.9995
0.999352
0.999182
0.998998
0.998801
0.998576
0.998344
0.998127
0.997938
0.997793
0.997707
0.997696
0.997765
0.997897
0.998076
0.998288
0.998518
0.99875
0.998951
0.999138
0.999312
0.999467
0.999588
0.999656
)
;

boundaryField
{
    top
    {
        type            calculated;
        value           uniform 1;
    }
    bottom
    {
        type            calculated;
        value           uniform 0.148957;
    }
    frontAndBack
    {
        type            empty;
    }
    left_cyc
    {
        type            cyclic;
    }
    right_cyc
    {
        type            cyclic;
    }
}


// ************************************************************************* //
