/*--------------------------------*- C++ -*----------------------------------*\
| =========                 |                                                 |
| \\      /  F ield         | OpenFOAM: The Open Source CFD Toolbox           |
|  \\    /   O peration     | Version:  2.3.0                                 |
|   \\  /    A nd           | Web:      www.OpenFOAM.org                      |
|    \\/     M anipulation  |                                                 |
\*---------------------------------------------------------------------------*/
FoamFile
{
    version     2.0;
    format      ascii;
    class       volScalarField;
    location    "11000";
    object      p;
}
// * * * * * * * * * * * * * * * * * * * * * * * * * * * * * * * * * * * * * //

dimensions      [0 2 -2 0 0 0 0];

internalField   nonuniform List<scalar> 
3060
(
0
-3.18979
-9.15956
-17.8476
-29.1845
-43.1087
-59.575
-78.5437
-99.9509
-123.671
-149.491
-177.086
-206.004
-235.631
-265.138
-293.499
-319.65
-342.68
-361.844
-376.717
-387.502
-394.716
-399.151
-401.645
-402.87
-403.232
-402.869
-401.661
-399.222
-394.9
-387.857
-377.287
-362.649
-343.704
-320.837
-294.784
-266.459
-236.952
-207.315
-178.4
-150.842
-125.11
-101.535
-80.3398
-61.651
-45.535
-32.0333
-21.1921
-13.0714
-7.73618
-5.24118
-5.61656
-8.85725
-14.9257
-23.7632
-35.3044
-49.4929
-66.2854
-85.6375
-107.47
-131.634
-157.881
-185.845
-215.017
-244.713
-274.018
-301.848
-327.148
-349.054
-366.883
-380.42
-390.001
-396.25
-400.004
-402.069
-403.03
-403.202
-402.638
-401.131
-398.203
-393.124
-385.046
-373.229
-357.23
-336.993
-313.068
-286.242
-257.475
-227.842
-198.331
-169.706
-142.537
-117.241
-94.1092
-73.3318
-55.0143
-39.2106
-25.9595
-15.3105
-7.32836
-2.08222
0.370931
34.2757
31.749
26.9842
19.9666
10.67
-0.936349
-14.8709
-31.1117
-49.5704
-70.0781
-92.3767
-116.099
-140.729
-165.584
-189.981
-213.602
-236.318
-257.345
-275.254
-289.056
-299.034
-305.833
-310.202
-312.819
-314.192
-314.621
-314.209
-312.867
-310.308
-306.042
-299.398
-289.624
-276.069
-258.389
-237.502
-214.849
-191.277
-166.94
-142.147
-117.582
-93.9461
-71.77
-51.4315
-33.1949
-17.2311
-3.62693
7.59909
16.4689
23.0166
27.271
29.2472
28.9505
26.3801
21.529
14.378
4.89596
-6.95024
-21.175
-37.7442
-56.5503
-77.3987
-99.9983
-123.936
-148.635
-173.365
-197.508
-220.869
-243.179
-263.371
-280.005
-292.514
-301.398
-307.35
-311.112
-313.313
-314.393
-314.584
-313.925
-312.264
-309.246
-304.31
-296.753
-285.832
-270.939
-252.075
-230.481
-207.49
-183.662
-159.092
-134.223
-109.771
-86.3782
-64.5179
-44.5257
-26.6351
-10.9931
2.33122
13.3295
22.0256
28.4505
32.6277
34.5684
63.2584
60.6919
55.881
48.8694
39.7311
28.5852
15.6058
1.01741
-14.931
-32.0005
-49.9863
-68.7239
-88.0961
-108.051
-128.534
-149.042
-168.193
-184.728
-198.673
-210.437
-219.424
-225.106
-228.375
-230.175
-231.068
-231.335
-231.069
-230.189
-228.431
-225.265
-219.771
-211.012
-199.403
-185.623
-169.311
-150.362
-129.984
-109.598
-89.7504
-70.5022
-51.9023
-34.0716
-17.1834
-1.453
12.8713
25.5348
36.3115
45.0289
51.5709
55.8663
57.8733
57.5713
54.9638
50.0768
42.9582
33.6895
22.4009
9.28001
-5.4367
-21.4926
-38.6462
-56.6929
-75.471
-94.878
-114.876
-135.351
-155.517
-173.845
-189.439
-202.648
-213.619
-221.484
-226.268
-228.992
-230.483
-231.185
-231.31
-230.895
-229.801
-227.686
-223.888
-217.398
-207.575
-195.232
-180.668
-163.395
-143.731
-123.128
-102.767
-82.9619
-63.7483
-45.1939
-27.4304
-10.633
4.98326
19.1738
31.6927
42.3269
50.9172
57.3574
61.5833
63.5566
110.963
108.482
103.845
97.1208
88.4125
77.8685
65.6861
52.1049
37.3854
21.7767
5.48747
-11.3302
-28.5808
-46.1945
-63.9725
-81.2596
-97.0199
-110.925
-123.263
-133.121
-140.165
-145.125
-147.595
-148.52
-148.823
-148.882
-148.802
-148.495
-147.617
-145.301
-140.525
-133.669
-124.083
-111.948
-98.2294
-82.67
-65.5386
-47.874
-30.3711
-13.2442
3.43405
19.5644
34.9884
49.4895
62.8107
74.6861
84.8731
93.1744
99.443
103.578
105.516
105.224
102.708
98.0082
91.1972
82.3872
71.7381
59.4602
45.8048
31.0389
15.4117
-0.874309
-17.6767
-34.9086
-52.4859
-70.1089
-86.9221
-101.976
-115.286
-126.879
-135.675
-141.987
-146.115
-147.931
-148.603
-148.832
-148.874
-148.768
-148.357
-147.145
-144.053
-138.524
-130.834
-120.21
-107.435
-93.0779
-76.8365
-59.3211
-41.5498
-24.0214
-6.87737
9.81344
25.9417
41.3398
55.7862
69.0257
80.8004
90.8804
99.081
105.266
109.343
111.251
158.086
155.863
151.712
145.698
137.921
128.509
117.628
105.466
92.2328
78.1364
63.3801
48.1599
32.6775
17.1687
1.95858
-12.477
-25.6994
-37.8268
-48.9779
-57.8089
-63.5164
-66.6464
-67.797
-67.8748
-67.6227
-67.487
-67.5845
-67.8186
-67.7904
-66.7706
-63.8705
-58.4452
-49.9148
-38.9268
-26.9063
-13.8092
0.507325
15.6118
31.0137
46.3787
61.4656
76.0675
89.9828
103.003
114.913
125.502
134.577
141.976
147.569
151.262
152.993
152.733
150.485
146.288
140.213
132.363
122.875
111.921
99.7005
86.4259
72.3114
57.5635
42.3832
26.9828
11.6206
-3.33323
-17.3564
-30.1342
-41.9289
-52.4483
-60.1376
-64.8554
-67.1672
-67.8593
-67.7513
-67.5333
-67.4949
-67.6789
-67.91
-67.6198
-66.0525
-62.286
-55.8017
-46.1982
-34.729
-22.3556
-8.79934
5.89246
21.2204
36.7492
52.1838
67.3014
81.904
95.7943
108.767
120.613
131.126
140.124
147.451
152.984
156.634
158.345
199.461
197.439
193.667
188.215
181.184
172.705
162.935
152.055
140.26
127.746
114.709
101.343
87.8461
74.4422
61.409
49.1129
37.9723
28.271
20.2062
13.934
9.7761
8.6768
9.81698
11.7245
12.9545
13.327
13.0187
11.8694
9.94401
8.63257
9.42933
13.3171
19.4362
27.3537
36.9201
47.9305
60.1075
73.0301
86.3224
99.6994
112.932
125.816
138.154
149.743
160.383
169.876
178.041
184.718
189.779
193.128
194.699
194.463
192.423
188.619
183.125
176.046
167.518
157.707
146.8
134.995
122.496
109.502
96.2106
82.8316
69.6048
56.8354
44.9252
34.2734
25.114
17.6701
12.0294
8.93471
8.84512
10.4575
12.2751
13.1726
13.3027
12.7363
11.2492
9.39681
8.68935
10.5879
15.4169
22.1487
30.6673
40.7629
52.2417
64.7723
77.9338
91.3861
104.869
118.167
131.086
143.43
155.005
165.612
175.06
183.174
189.802
194.822
198.14
199.697
237.916
236.091
232.69
227.785
221.475
213.888
205.176
195.507
185.064
174.033
162.604
150.966
139.317
127.872
116.875
106.617
97.4055
89.5072
83.2155
78.9555
77.2496
78.8194
83.2213
88.1706
91.6418
92.7405
91.8077
88.4965
83.545
78.9315
77.0486
78.5072
82.5883
88.7293
96.4994
105.592
115.739
126.629
137.966
149.5
161.01
172.295
183.158
193.407
202.851
211.305
218.599
224.582
229.127
232.14
233.555
233.342
231.505
228.085
223.153
216.815
209.203
200.473
190.8
180.372
169.381
158.018
146.482
134.977
123.73
113.004
103.102
94.3321
86.9513
81.309
77.8398
77.2092
79.9617
84.9114
89.5891
92.2655
92.6621
90.9698
86.96
81.9182
78.0849
77.4073
79.8588
84.6893
91.4404
99.7061
109.22
119.703
130.842
142.362
154.028
165.63
176.973
187.867
198.125
207.56
215.994
223.259
229.212
233.731
236.724
238.129
273.883
272.239
269.18
264.778
259.131
252.367
244.632
236.09
226.914
217.282
207.374
197.374
187.468
177.854
168.748
160.393
153.048
146.962
142.413
139.776
139.561
142.741
149.911
158.51
164.943
167.362
165.276
159.074
150.469
142.999
139.478
139.466
141.935
146.344
152.31
159.544
167.795
176.8
186.313
196.111
205.992
215.764
225.241
234.237
242.571
250.068
256.562
261.907
265.98
268.685
269.957
269.766
268.115
265.045
260.63
254.972
248.201
240.469
231.945
222.805
213.234
203.415
193.537
183.793
174.391
165.558
157.547
150.62
145.03
141.088
139.202
140.009
144.636
152.783
161.034
166.256
167.167
163.612
156.357
147.748
141.513
139.345
140.265
143.442
148.426
154.866
162.501
171.077
180.337
190.048
199.997
209.99
219.842
229.372
238.399
246.746
254.242
260.726
266.057
270.116
272.809
274.075
308.207
306.73
303.986
300.046
295.01
289.004
282.17
274.668
266.664
258.33
249.838
241.359
233.067
225.142
217.771
211.162
205.53
201.098
198.118
196.917
197.913
201.804
209.542
219.95
228.639
232.087
229.1
220.683
210.186
202.106
197.934
196.742
197.791
200.643
204.964
210.496
217.011
224.29
232.122
240.316
248.686
257.056
265.249
273.088
280.401
287.017
292.777
297.537
301.176
303.598
304.739
304.567
303.088
300.34
296.398
291.364
285.366
278.553
271.086
263.137
254.881
246.494
238.153
230.036
222.33
215.229
208.949
203.711
199.746
197.331
196.818
198.699
203.831
212.866
223.27
230.487
231.801
226.782
217.206
207.142
200.453
197.415
197.045
198.747
202.135
206.904
212.813
219.642
227.177
235.216
243.573
252.072
260.539
268.803
276.692
284.034
290.666
296.431
301.19
304.825
307.242
308.38
341.493
340.171
337.719
334.208
329.738
324.432
318.431
311.891
304.972
297.837
290.651
283.573
276.764
270.382
264.591
259.564
255.476
252.511
250.875
250.822
252.669
256.844
263.911
273.452
282.117
285.745
282.592
274.153
264.484
257.158
252.773
250.766
250.689
252.214
255.082
259.082
264.026
269.736
276.036
282.759
289.741
296.819
303.827
310.6
316.97
322.774
327.856
332.077
335.315
337.476
338.495
338.341
337.02
334.57
331.066
326.608
321.323
315.356
308.865
302.014
294.972
287.903
280.974
274.346
268.185
262.658
257.942
254.219
251.68
250.546
251.093
253.671
258.777
266.882
276.674
284.045
285.44
280.203
270.86
261.77
255.501
251.986
250.672
251.168
253.174
256.451
260.802
266.046
272.007
278.517
285.412
292.533
299.721
306.815
313.651
320.065
325.897
330.997
335.226
338.468
340.629
341.648
374.179
373.003
370.826
367.719
363.78
359.131
353.909
348.265
342.353
336.33
330.349
324.559
319.105
314.127
309.764
306.155
303.438
301.752
301.246
302.089
304.479
308.633
314.739
322.404
329.436
332.477
329.826
322.958
315.21
308.944
304.645
302.134
301.188
301.604
303.21
305.853
309.391
313.686
318.595
323.975
329.683
335.57
341.484
347.267
352.761
357.807
362.256
365.971
368.833
370.748
371.652
371.516
370.343
368.174
365.08
361.161
356.542
351.364
345.78
339.948
334.026
328.171
322.535
317.265
312.503
308.393
305.074
302.689
301.378
301.3
302.635
305.591
310.394
317.153
324.983
331.041
332.219
327.858
320.337
312.958
307.368
303.697
301.733
301.26
302.091
304.061
307.024
310.843
315.381
320.497
326.053
331.907
337.913
343.922
349.778
355.327
360.412
364.888
368.619
371.491
373.41
374.316
406.546
405.512
403.601
400.884
397.456
393.434
388.954
384.158
379.195
374.211
369.35
364.748
360.535
356.833
353.757
351.414
349.905
349.323
349.76
351.305
354.046
358.035
363.228
369.174
374.401
376.649
374.685
369.587
363.615
358.339
354.261
351.438
349.817
349.312
349.831
351.282
353.568
356.59
360.235
364.388
368.921
373.704
378.596
383.449
388.114
392.441
396.285
399.515
402.015
403.693
404.486
404.367
403.338
401.439
398.739
395.337
391.353
386.924
382.195
377.318
372.441
367.71
363.264
359.233
355.739
352.9
350.823
349.606
349.346
350.133
352.061
355.209
359.614
365.154
371.099
375.585
376.459
373.234
367.609
361.77
356.875
353.214
350.793
349.546
349.385
350.219
351.955
354.5
357.751
361.598
365.924
370.607
375.513
380.506
385.44
390.167
394.54
398.418
401.67
404.184
405.87
406.667
438.748
437.855
436.21
433.879
430.955
427.551
423.793
419.818
415.764
411.768
407.961
404.467
401.4
398.864
396.951
395.739
395.293
395.665
396.894
399.003
401.987
405.788
410.234
414.875
418.706
420.309
418.91
415.189
410.563
406.088
402.243
399.211
397.054
395.777
395.36
395.762
396.932
398.804
401.297
404.316
407.757
411.501
415.421
419.383
423.248
426.874
430.126
432.878
435.019
436.461
437.145
437.042
436.156
434.525
432.215
429.322
425.959
422.258
418.354
414.39
410.503
406.827
403.486
400.594
398.255
396.56
395.585
395.392
396.031
397.536
399.924
403.177
407.212
411.791
416.309
419.554
420.175
417.865
413.69
409.03
404.725
401.127
398.37
396.492
395.49
395.336
395.988
397.39
399.475
402.159
405.348
408.936
412.804
416.829
420.875
424.806
428.484
431.774
434.552
436.711
438.164
438.852
470.835
470.087
468.715
466.779
464.368
461.586
458.552
455.391
452.229
449.19
446.394
443.949
441.954
440.495
439.642
439.448
439.945
441.15
443.056
445.632
448.809
452.458
456.35
460.079
462.955
464.115
463.106
460.329
456.642
452.758
449.099
445.903
443.303
441.369
440.136
439.61
439.776
440.6
442.029
443.989
446.394
449.142
452.121
455.209
458.281
461.206
463.861
466.127
467.902
469.104
469.675
469.589
468.85
467.492
465.58
463.202
460.465
457.49
454.402
451.33
448.4
445.731
443.434
441.604
440.328
439.672
439.684
440.394
441.811
443.924
446.689
450.022
453.767
457.651
461.181
463.573
464.019
462.337
459.155
455.329
451.471
447.928
444.899
442.493
440.769
439.75
439.436
439.807
440.824
442.431
444.552
447.099
449.97
453.052
456.226
459.366
462.346
465.041
467.337
469.132
470.346
470.922
502.78
502.186
501.1
499.579
497.702
495.564
493.273
490.938
488.672
486.584
484.777
483.346
482.373
481.925
482.053
482.786
484.131
486.073
488.571
491.551
494.903
498.457
501.97
505.094
507.354
508.233
507.474
505.306
502.24
498.761
495.223
491.876
488.89
486.383
484.427
483.067
482.318
482.172
482.601
483.552
484.956
486.729
488.773
490.983
493.249
495.456
497.492
499.253
500.646
501.595
502.047
501.979
501.394
500.323
498.827
496.985
494.894
492.661
490.399
488.221
486.238
484.554
483.26
482.44
482.157
482.458
483.367
484.886
486.991
489.632
492.724
496.141
499.691
503.101
505.984
507.828
508.16
506.879
504.341
501.074
497.521
494
490.732
487.869
485.511
483.722
482.537
481.964
481.99
482.582
483.682
485.22
487.11
489.255
491.549
493.884
496.145
498.224
500.016
501.43
502.392
502.85
534.499
534.069
533.289
532.21
530.901
529.445
527.93
526.452
525.106
523.983
523.167
522.737
522.757
523.277
524.33
525.924
528.045
530.653
533.68
537.026
540.55
544.069
547.344
550.088
551.969
552.677
552.071
550.278
547.603
544.377
540.893
537.391
534.057
531.034
528.425
526.301
524.701
523.641
523.112
523.081
523.495
524.29
525.385
526.693
528.123
529.577
530.961
532.185
533.169
533.847
534.173
534.124
533.703
532.94
531.887
530.613
529.202
527.745
526.339
525.077
524.053
523.35
523.046
523.203
523.869
525.071
526.81
529.066
531.791
534.906
538.299
541.817
545.258
548.37
550.847
552.355
552.619
551.58
549.44
546.527
543.162
539.622
536.128
532.854
529.928
527.442
525.456
524.004
523.092
522.707
522.811
523.349
524.252
525.443
526.832
528.329
529.837
531.263
532.519
533.526
534.217
534.549
565.856
565.605
565.158
564.557
563.859
563.13
562.441
561.867
561.48
561.352
561.548
562.125
563.131
564.599
566.543
568.954
571.802
575.027
578.543
582.231
585.938
589.475
592.624
595.146
596.807
597.417
596.899
595.324
592.875
589.787
586.296
582.624
578.959
575.459
572.244
569.402
566.994
565.051
563.583
562.574
561.991
561.786
561.901
562.268
562.816
563.469
564.155
564.801
565.344
565.729
565.917
565.888
565.647
565.217
564.642
563.979
563.295
562.662
562.154
561.846
561.809
562.108
562.797
563.923
565.516
567.582
570.108
573.054
576.354
579.91
583.592
587.237
590.644
593.588
595.83
597.143
597.367
596.468
594.56
591.851
588.579
584.977
581.258
577.601
574.151
571.018
568.28
565.989
564.17
562.826
561.936
561.463
561.358
561.56
562.003
562.615
563.321
564.049
564.727
565.292
565.691
565.886
596.679
596.623
596.539
596.458
596.421
596.474
596.668
597.053
597.677
598.589
599.831
601.44
603.445
605.86
608.684
611.892
615.439
619.254
623.238
627.263
631.169
634.775
637.882
640.293
641.838
642.396
641.924
640.462
638.126
635.085
631.533
627.669
623.677
619.717
615.919
612.384
609.185
606.369
603.96
601.96
600.354
599.114
598.203
597.576
597.187
596.984
596.918
596.939
597.002
597.067
597.105
597.099
597.053
596.985
596.93
596.927
597.024
597.271
597.718
598.414
599.408
600.74
602.446
604.552
607.069
609.988
613.28
616.892
620.744
624.726
628.7
632.501
635.939
638.813
640.935
642.147
642.349
641.525
639.739
637.128
633.871
630.168
626.214
622.186
618.235
614.481
611.017
607.906
605.189
602.881
600.982
599.472
598.321
597.488
596.931
596.602
596.449
596.424
596.477
596.562
596.642
596.686
626.76
626.917
627.226
627.707
628.383
629.278
630.416
631.822
633.518
635.525
637.862
640.542
643.575
646.957
650.669
654.675
658.918
663.318
667.767
672.134
676.263
679.982
683.112
685.49
686.987
687.523
687.069
685.651
683.348
680.285
676.623
672.541
668.21
663.789
659.411
655.185
651.192
647.491
644.12
641.098
638.428
636.104
634.11
632.429
631.04
629.921
629.046
628.393
627.936
627.654
627.527
627.546
627.712
628.039
628.545
629.254
630.191
631.379
632.842
634.602
636.681
639.095
641.856
644.97
648.43
652.211
656.272
660.547
664.947
669.359
673.64
677.629
681.151
684.029
686.112
687.282
687.477
686.685
684.947
682.358
679.057
675.214
671.007
666.604
662.156
657.788
653.6
649.667
646.039
642.747
639.807
637.217
634.968
633.044
631.427
630.093
629.021
628.186
627.563
627.129
626.862
626.742
655.859
656.245
656.978
658.062
659.501
661.294
663.439
665.931
668.762
671.927
675.417
679.22
683.325
687.708
692.336
697.16
702.114
707.111
712.039
716.769
721.149
725.021
728.226
730.627
732.121
732.651
732.198
730.779
728.449
725.309
721.494
717.161
712.469
707.57
702.597
697.661
692.852
688.237
683.866
679.776
675.989
672.521
669.383
666.583
664.131
662.034
660.295
658.919
657.904
657.247
656.943
656.989
657.384
658.135
659.244
660.716
662.549
664.74
667.284
670.173
673.398
676.951
680.819
684.985
689.423
694.094
698.944
703.899
708.864
713.722
718.335
722.548
726.201
729.141
731.24
732.41
732.606
731.82
730.081
727.458
724.064
720.044
715.557
710.761
705.803
700.808
695.881
691.103
686.535
682.222
678.194
674.471
671.066
667.988
665.244
662.843
660.79
659.089
657.743
656.752
656.11
655.814
683.71
684.34
685.522
687.246
689.492
692.235
695.443
699.081
703.111
707.496
712.199
717.184
722.413
727.846
733.431
739.109
744.805
750.427
755.863
760.985
765.651
769.715
773.039
775.504
777.028
777.564
777.098
775.644
773.244
769.981
765.969
761.347
756.261
750.853
745.253
739.574
733.91
728.337
722.918
717.706
712.742
708.068
703.722
699.741
696.166
693.035
690.382
688.239
686.632
685.578
685.087
685.161
685.8
687
688.749
691.028
693.809
697.061
700.746
704.826
709.262
714.015
719.048
724.319
729.783
735.386
741.062
746.73
752.291
757.628
762.606
767.082
770.91
773.958
776.116
777.315
777.518
776.721
774.945
772.245
768.715
764.479
759.68
754.462
748.966
743.315
737.615
731.955
726.405
721.021
715.851
710.937
706.313
702.018
698.087
694.559
691.469
688.854
686.742
685.159
684.121
683.637
710.027
710.91
712.561
714.951
718.039
721.771
726.087
730.919
736.2
741.86
747.833
754.056
760.466
767.001
773.593
780.172
786.654
792.942
798.925
804.479
809.472
813.77
817.253
819.818
821.395
821.945
821.458
819.942
817.435
814.006
809.754
804.8
799.277
793.317
787.047
780.578
774.01
767.427
760.905
754.512
748.314
742.377
736.767
731.553
726.807
722.597
718.991
716.051
713.827
712.358
711.671
711.774
712.667
714.336
716.752
719.872
723.642
727.999
732.875
738.199
743.902
749.914
756.169
762.603
769.147
775.733
782.283
788.71
794.91
800.768
806.155
810.937
814.985
818.181
820.434
821.683
821.899
821.078
819.237
816.423
812.716
808.223
803.071
797.392
791.317
784.968
778.452
771.862
765.278
758.77
752.403
746.239
740.341
734.774
729.605
724.901
720.732
717.164
714.255
712.055
710.603
709.924
734.507
735.65
737.779
740.848
744.793
749.535
754.983
761.039
767.604
774.578
781.865
789.371
797.01
804.696
812.347
819.877
827.194
834.198
840.777
846.811
852.177
856.755
860.437
863.135
864.786
865.358
864.84
863.24
860.591
856.954
852.413
847.078
841.067
834.505
827.513
820.202
812.677
805.032
797.356
789.734
782.255
775.011
768.099
761.618
755.67
750.358
745.779
742.024
739.17
737.279
736.391
736.525
737.678
739.825
742.921
746.899
751.679
757.167
763.265
769.869
776.877
784.192
791.718
799.363
807.039
814.66
822.138
829.376
836.267
842.696
848.542
853.68
857.994
861.38
863.759
865.077
865.311
864.454
862.524
859.562
855.635
850.84
845.286
839.098
832.396
825.3
817.917
810.347
802.679
794.997
787.384
779.927
772.713
765.837
759.396
753.49
748.218
743.677
739.954
737.127
735.253
734.374
756.84
758.241
760.844
764.587
769.385
775.132
781.709
788.989
796.842
805.139
813.755
822.568
831.466
840.339
849.088
857.614
865.815
873.585
880.811
887.378
893.169
898.076
902
904.863
906.61
907.21
906.653
904.947
902.122
898.232
893.353
887.583
881.03
873.812
866.045
857.842
849.314
840.565
831.698
822.816
814.033
805.466
797.241
789.488
782.339
775.927
770.38
765.815
762.335
760.024
758.937
759.1
760.511
763.134
766.906
771.738
777.524
784.141
791.461
799.35
807.677
816.312
825.133
834.022
842.868
851.569
860.022
868.121
875.755
882.811
889.17
894.717
899.345
902.963
905.5
906.907
907.161
906.259
904.215
901.068
896.878
891.73
885.724
878.974
871.594
863.7
855.403
846.808
838.017
829.127
820.241
811.469
802.925
794.732
787.017
779.909
773.538
768.029
763.499
760.047
757.755
756.677
776.715
778.362
781.421
785.813
791.431
798.145
805.812
814.277
823.383
832.974
842.896
853.002
863.155
873.222
883.087
892.636
901.756
910.333
918.252
925.4
931.666
936.947
941.154
944.215
946.077
946.712
946.109
944.276
941.242
937.058
931.793
925.537
918.392
910.47
901.886
892.756
883.198
873.327
863.26
853.122
843.047
833.18
823.673
814.682
806.37
798.896
792.415
787.07
782.989
780.274
778.995
779.188
780.847
783.927
788.348
794.003
800.758
808.466
816.971
826.112
835.729
845.664
855.77
865.902
875.929
885.73
895.187
904.185
912.607
920.337
927.26
933.266
938.256
942.145
944.869
946.382
946.661
945.703
943.523
940.156
935.66
930.112
923.604
916.243
908.14
899.409
890.166
880.523
870.593
860.491
850.338
840.266
830.417
820.939
811.986
803.716
796.284
789.844
784.537
780.486
777.791
776.523
793.827
795.702
799.181
804.17
810.544
818.153
826.828
836.394
846.668
857.47
868.624
879.96
891.317
902.542
913.501
924.065
934.107
943.507
952.145
959.906
966.681
972.372
976.894
980.176
982.17
982.845
982.19
980.214
976.946
972.435
966.748
959.971
952.202
943.551
934.134
924.072
913.492
902.52
891.291
879.947
868.645
857.552
846.842
836.699
827.306
818.848
811.505
805.441
800.806
797.718
796.262
796.482
798.369
801.871
806.892
813.304
820.956
829.675
839.282
849.591
860.418
871.583
882.912
894.24
905.415
916.298
926.755
936.66
945.888
954.32
961.839
968.34
973.727
977.919
980.852
982.484
982.791
981.769
979.435
975.822
970.987
965.003
957.959
949.957
941.108
931.528
921.336
910.657
899.614
888.34
876.975
865.671
854.593
843.912
833.807
824.457
816.045
808.745
802.721
798.117
795.052
793.608
807.89
809.964
813.809
819.319
826.353
834.742
844.3
854.83
866.132
878.006
890.257
902.696
915.144
927.432
939.407
950.923
961.845
972.039
981.38
989.751
997.04
1003.15
1008
1011.51
1013.64
1014.36
1013.65
1011.53
1008.02
1003.17
997.05
989.747
981.358
971.993
961.772
950.823
939.282
927.289
914.995
902.558
890.154
877.969
866.197
855.039
844.698
835.38
827.283
820.592
815.473
812.06
810.45
810.693
812.78
816.649
822.193
829.268
837.702
847.306
857.88
869.218
881.117
893.378
905.808
918.224
930.454
942.344
953.744
964.516
974.525
983.646
991.762
998.764
1004.56
1009.06
1012.21
1013.97
1014.3
1013.22
1010.72
1006.85
1001.66
995.236
987.653
979.017
969.44
959.043
947.952
936.301
924.229
911.884
899.422
887.015
874.845
863.102
851.983
841.689
832.419
824.368
817.719
812.633
809.245
807.647
818.655
820.889
825.029
830.958
838.522
847.539
857.806
869.114
881.246
893.989
907.134
920.48
933.835
947.017
959.857
972.195
983.883
994.779
1004.75
1013.67
1021.43
1027.93
1033.08
1036.81
1039.07
1039.83
1039.07
1036.81
1033.07
1027.91
1021.39
1013.61
1004.66
994.655
983.724
972.001
959.632
946.769
933.579
920.235
906.926
893.851
881.218
869.24
858.136
848.126
839.423
832.228
826.719
823.044
821.311
821.572
823.82
827.985
833.949
841.557
850.621
860.937
872.29
884.46
897.229
910.385
923.721
937.043
950.164
962.914
975.129
986.659
997.36
1007.1
1015.75
1023.22
1029.38
1034.18
1037.54
1039.41
1039.77
1038.62
1035.97
1031.86
1026.35
1019.51
1011.44
1002.23
992.003
980.887
969.014
956.528
943.583
930.339
916.968
903.656
890.597
877.994
866.057
855.002
845.043
836.389
829.237
823.764
820.115
818.394
825.855
828.204
832.553
838.78
846.72
856.181
866.95
878.806
891.524
904.882
918.663
932.659
946.671
960.509
973.992
986.95
999.221
1010.66
1021.11
1030.47
1038.6
1045.41
1050.8
1054.71
1057.07
1057.86
1057.06
1054.69
1050.77
1045.35
1038.52
1030.36
1020.97
1010.47
998.996
986.685
973.693
960.184
946.336
932.336
918.379
904.672
891.428
878.871
867.228
856.729
847.597
840.043
834.257
830.396
828.574
828.849
831.211
835.587
841.851
849.835
859.345
870.165
882.068
894.826
908.212
922.005
935.992
949.971
963.749
977.14
989.97
1002.08
1013.31
1023.53
1032.61
1040.43
1046.9
1051.93
1055.45
1057.42
1057.8
1056.6
1053.83
1049.52
1043.75
1036.59
1028.12
1018.47
1007.74
996.075
983.61
970.498
956.905
943.003
928.977
915.018
901.327
888.116
875.602
864.01
853.563
844.481
836.973
831.224
827.39
825.581
829.441
831.849
836.307
842.687
850.82
860.506
871.528
883.659
896.669
910.331
924.425
938.741
953.079
967.248
981.058
994.33
1006.9
1018.61
1029.32
1038.89
1047.21
1054.18
1059.7
1063.69
1066.11
1066.92
1066.1
1063.66
1059.65
1054.11
1047.11
1038.76
1029.14
1018.39
1006.64
994.028
980.719
966.883
952.704
938.379
924.103
910.084
896.538
883.693
871.78
861.034
851.684
843.946
838.018
834.061
832.192
832.474
834.896
839.381
845.798
853.976
863.712
874.785
886.964
900.014
913.704
927.811
942.12
956.425
970.534
984.25
997.393
1009.79
1021.3
1031.77
1041.06
1049.07
1055.69
1060.84
1064.45
1066.46
1066.86
1065.63
1062.79
1058.39
1052.48
1045.15
1036.49
1026.61
1015.63
1003.68
990.909
977.479
963.558
949.326
934.976
920.698
906.696
893.183
880.382
868.519
857.826
848.527
840.836
834.945
831.015
829.16
)
;

boundaryField
{
    top
    {
        type            calculated;
        value           nonuniform List<scalar> 
102
(
829.711
832.152
836.67
843.131
851.362
861.161
872.305
884.564
897.707
911.504
925.735
940.187
954.663
968.975
982.927
996.338
1009.04
1020.87
1031.69
1041.37
1049.78
1056.82
1062.4
1066.44
1068.89
1069.71
1068.88
1066.41
1062.35
1056.75
1049.68
1041.23
1031.51
1020.65
1008.77
996.024
982.575
968.595
954.272
939.807
925.393
911.237
897.555
884.577
872.535
861.668
852.208
844.375
838.37
834.359
832.465
832.75
835.206
839.75
846.25
854.528
864.377
875.573
887.882
901.066
914.893
929.138
943.585
958.031
972.284
986.143
999.424
1011.96
1023.59
1034.16
1043.56
1051.66
1058.35
1063.56
1067.21
1069.25
1069.65
1068.4
1065.53
1061.08
1055.11
1047.7
1038.95
1028.96
1017.86
1005.78
992.881
979.312
965.248
950.875
936.386
921.971
907.833
894.186
881.252
869.263
858.45
849.042
841.257
835.29
831.306
829.426
)
;
    }
    bottom
    {
        type            calculated;
        value           nonuniform List<scalar> 
102
(
-38.8525
-42.055
-48.0481
-56.7696
-68.1495
-82.1258
-98.6527
-117.69
-139.174
-162.98
-188.893
-216.589
-245.617
-275.359
-304.984
-333.466
-359.742
-382.898
-402.188
-417.185
-428.088
-435.408
-439.934
-442.5
-443.772
-444.151
-443.773
-442.521
-440.013
-435.6
-428.451
-417.765
-403.002
-383.931
-360.937
-334.758
-306.311
-276.684
-246.93
-217.905
-190.245
-164.419
-140.76
-119.487
-100.73
-84.5542
-71.0016
-60.1189
-51.9667
-46.6105
-44.1055
-44.4824
-47.736
-53.8283
-62.6999
-74.2851
-88.5268
-105.381
-124.804
-146.716
-170.968
-197.31
-225.379
-254.663
-284.477
-313.901
-341.854
-367.281
-389.314
-407.27
-420.929
-430.624
-436.975
-440.815
-442.943
-443.941
-444.119
-443.53
-441.969
-438.964
-433.79
-425.601
-413.665
-397.542
-377.178
-353.127
-326.177
-297.289
-267.539
-237.914
-209.182
-181.914
-156.526
-133.312
-112.46
-94.0753
-78.2131
-64.9123
-54.2227
-46.2098
-40.9431
-38.4801
)
;
    }
    frontAndBack
    {
        type            empty;
    }
    left_cyc
    {
        type            cyclic;
    }
    right_cyc
    {
        type            cyclic;
    }
}


// ************************************************************************* //
