/*--------------------------------*- C++ -*----------------------------------*\
| =========                 |                                                 |
| \\      /  F ield         | OpenFOAM: The Open Source CFD Toolbox           |
|  \\    /   O peration     | Version:  2.3.0                                 |
|   \\  /    A nd           | Web:      www.OpenFOAM.org                      |
|    \\/     M anipulation  |                                                 |
\*---------------------------------------------------------------------------*/
FoamFile
{
    version     2.0;
    format      ascii;
    class       volScalarField;
    location    "11000";
    object      p;
}
// * * * * * * * * * * * * * * * * * * * * * * * * * * * * * * * * * * * * * //

dimensions      [0 2 -2 0 0 0 0];

internalField   nonuniform List<scalar> 
3060
(
0
-3.06194e-05
-8.80133e-05
-0.000171744
-0.000281362
-0.000416518
-0.000576968
-0.000762424
-0.000972251
-0.00120514
-0.00145885
-0.00173003
-0.00201397
-0.00230442
-0.0025932
-0.00287062
-0.00312685
-0.00335292
-0.00354136
-0.00368873
-0.00379702
-0.00387103
-0.003918
-0.00394549
-0.00395957
-0.00396392
-0.00395983
-0.00394624
-0.00391968
-0.0038743
-0.00380261
-0.00369718
-0.00355294
-0.00336753
-0.00314385
-0.00288917
-0.00261254
-0.00232404
-0.0020336
-0.00174966
-0.00147872
-0.00122568
-0.000994007
-0.000786032
-0.000603107
-0.000445897
-0.000314701
-0.000209762
-0.000131408
-8.00439e-05
-5.60456e-05
-5.96407e-05
-9.07891e-05
-0.000149215
-0.000234523
-0.000346322
-0.00048431
-0.000648252
-0.000837785
-0.0010521
-0.0012896
-0.0015477
-0.00182255
-0.00210888
-0.00239972
-0.00268611
-0.00295794
-0.00320537
-0.00341967
-0.0035944
-0.00372818
-0.00382419
-0.00388828
-0.00392808
-0.00395079
-0.00396168
-0.00396356
-0.00395689
-0.00393977
-0.00390786
-0.0038546
-0.00377229
-0.00365417
-0.0034961
-0.0032973
-0.00306256
-0.0027999
-0.00251854
-0.00222842
-0.00193897
-0.00165781
-0.00139079
-0.00114223
-0.000915183
-0.00071162
-0.000532648
-0.000378778
-0.000250262
-0.000147363
-7.04643e-05
-2.00229e-05
3.54644e-06
-0.326611
-0.326637
-0.326686
-0.326758
-0.326853
-0.326971
-0.327112
-0.327275
-0.32746
-0.327665
-0.327887
-0.328124
-0.328369
-0.328617
-0.328861
-0.329095
-0.329319
-0.329524
-0.329698
-0.329834
-0.329934
-0.330002
-0.330045
-0.330072
-0.330086
-0.33009
-0.330086
-0.330073
-0.330047
-0.330005
-0.329939
-0.329842
-0.32971
-0.329538
-0.329335
-0.329113
-0.328879
-0.328636
-0.328389
-0.328144
-0.327908
-0.327687
-0.327484
-0.3273
-0.327139
-0.327002
-0.326887
-0.326796
-0.326729
-0.326685
-0.326665
-0.326668
-0.326695
-0.326744
-0.326818
-0.326915
-0.327035
-0.327179
-0.327346
-0.327535
-0.327743
-0.327968
-0.328207
-0.328453
-0.3287
-0.328941
-0.329172
-0.32939
-0.329586
-0.329748
-0.329871
-0.329959
-0.330018
-0.330055
-0.330077
-0.330088
-0.33009
-0.330083
-0.330066
-0.330036
-0.329986
-0.329911
-0.329802
-0.329656
-0.329473
-0.329262
-0.329035
-0.328798
-0.328552
-0.328304
-0.328061
-0.327828
-0.32761
-0.32741
-0.327231
-0.327073
-0.326938
-0.326826
-0.326737
-0.326671
-0.326628
-0.326608
-0.653309
-0.653335
-0.653382
-0.653452
-0.653543
-0.653653
-0.653782
-0.653927
-0.654086
-0.654257
-0.654438
-0.654628
-0.654825
-0.655029
-0.655237
-0.655443
-0.655635
-0.655799
-0.655933
-0.656043
-0.656128
-0.656184
-0.656218
-0.656237
-0.656247
-0.65625
-0.656247
-0.656237
-0.656219
-0.656187
-0.656133
-0.656051
-0.655943
-0.655811
-0.65565
-0.655461
-0.655256
-0.655049
-0.654847
-0.65465
-0.654462
-0.654282
-0.654113
-0.653956
-0.653814
-0.653688
-0.653581
-0.653495
-0.65343
-0.653387
-0.653367
-0.65337
-0.653396
-0.653444
-0.653515
-0.653607
-0.653719
-0.653849
-0.653996
-0.654156
-0.654328
-0.65451
-0.654701
-0.654899
-0.655103
-0.65531
-0.655512
-0.655695
-0.655848
-0.655973
-0.656075
-0.656149
-0.656197
-0.656225
-0.656241
-0.656248
-0.656249
-0.656245
-0.656233
-0.656211
-0.656172
-0.656109
-0.656017
-0.655901
-0.655759
-0.655587
-0.65539
-0.655182
-0.654975
-0.654773
-0.654578
-0.65439
-0.654211
-0.654043
-0.653888
-0.653747
-0.653623
-0.653517
-0.653432
-0.653368
-0.653326
-0.653306
-0.979836
-0.979861
-0.979907
-0.979974
-0.980061
-0.980167
-0.980288
-0.980424
-0.980572
-0.980728
-0.98089
-0.981058
-0.981229
-0.981402
-0.981577
-0.981749
-0.98191
-0.982057
-0.982184
-0.982281
-0.982345
-0.982388
-0.98241
-0.98242
-0.982423
-0.982424
-0.982423
-0.98242
-0.982411
-0.98239
-0.982349
-0.982287
-0.982195
-0.982071
-0.981926
-0.981767
-0.981597
-0.981423
-0.981251
-0.981081
-0.980915
-0.980754
-0.9806
-0.980455
-0.980321
-0.980203
-0.980101
-0.980018
-0.979955
-0.979914
-0.979894
-0.979897
-0.979922
-0.979969
-0.980037
-0.980126
-0.980232
-0.980355
-0.980492
-0.980639
-0.980796
-0.980958
-0.981125
-0.981295
-0.981468
-0.981642
-0.98181
-0.981965
-0.982105
-0.982223
-0.982306
-0.982361
-0.982397
-0.982414
-0.982421
-0.982424
-0.982424
-0.982423
-0.982418
-0.982406
-0.982378
-0.98233
-0.982259
-0.982154
-0.98202
-0.981869
-0.981705
-0.981531
-0.981357
-0.981184
-0.981014
-0.980847
-0.980686
-0.980532
-0.980388
-0.980255
-0.980137
-0.980037
-0.979955
-0.979893
-0.979852
-0.979833
-1.30636
-1.30638
-1.30642
-1.30648
-1.30656
-1.30666
-1.30676
-1.30689
-1.30702
-1.30716
-1.30731
-1.30746
-1.30761
-1.30777
-1.30792
-1.30806
-1.30819
-1.30831
-1.30842
-1.30852
-1.30858
-1.3086
-1.30861
-1.30861
-1.30861
-1.30861
-1.30861
-1.30861
-1.30861
-1.30861
-1.30858
-1.30853
-1.30844
-1.30833
-1.30821
-1.30808
-1.30794
-1.30779
-1.30763
-1.30748
-1.30733
-1.30718
-1.30705
-1.30692
-1.3068
-1.30669
-1.3066
-1.30653
-1.30647
-1.30643
-1.30641
-1.30642
-1.30644
-1.30648
-1.30654
-1.30662
-1.30672
-1.30683
-1.30695
-1.30708
-1.30722
-1.30737
-1.30752
-1.30767
-1.30783
-1.30798
-1.30811
-1.30824
-1.30836
-1.30846
-1.30854
-1.30859
-1.30861
-1.30861
-1.30861
-1.30861
-1.30861
-1.30861
-1.30861
-1.30861
-1.3086
-1.30856
-1.3085
-1.3084
-1.30828
-1.30816
-1.30803
-1.30788
-1.30773
-1.30757
-1.30742
-1.30727
-1.30712
-1.30698
-1.30685
-1.30674
-1.30663
-1.30654
-1.30647
-1.30641
-1.30637
-1.30636
-1.63294
-1.63296
-1.633
-1.63305
-1.63312
-1.63321
-1.63331
-1.63341
-1.63353
-1.63366
-1.63379
-1.63392
-1.63406
-1.63419
-1.63432
-1.63444
-1.63455
-1.63465
-1.63473
-1.63479
-1.63483
-1.63485
-1.63484
-1.63482
-1.63481
-1.6348
-1.63481
-1.63482
-1.63483
-1.63485
-1.63484
-1.6348
-1.63474
-1.63466
-1.63457
-1.63446
-1.63434
-1.63421
-1.63407
-1.63394
-1.63381
-1.63368
-1.63356
-1.63344
-1.63333
-1.63324
-1.63316
-1.63309
-1.63304
-1.63301
-1.63299
-1.63299
-1.63301
-1.63305
-1.63311
-1.63318
-1.63326
-1.63336
-1.63347
-1.63359
-1.63371
-1.63384
-1.63398
-1.63411
-1.63424
-1.63437
-1.63449
-1.63459
-1.63468
-1.63476
-1.63481
-1.63484
-1.63484
-1.63483
-1.63481
-1.6348
-1.6348
-1.63481
-1.63482
-1.63484
-1.63485
-1.63483
-1.63478
-1.63471
-1.63463
-1.63452
-1.63441
-1.63429
-1.63415
-1.63402
-1.63389
-1.63375
-1.63362
-1.6335
-1.63338
-1.63328
-1.63318
-1.6331
-1.63304
-1.63299
-1.63295
-1.63294
-1.95955
-1.95957
-1.9596
-1.95965
-1.95971
-1.95979
-1.95988
-1.95997
-1.96008
-1.96019
-1.9603
-1.96042
-1.96054
-1.96065
-1.96076
-1.96086
-1.96095
-1.96103
-1.96109
-1.96114
-1.96115
-1.96114
-1.9611
-1.96105
-1.96102
-1.96101
-1.96102
-1.96105
-1.96109
-1.96114
-1.96116
-1.96114
-1.9611
-1.96104
-1.96096
-1.96087
-1.96077
-1.96067
-1.96055
-1.96044
-1.96032
-1.96021
-1.9601
-1.96
-1.9599
-1.95982
-1.95975
-1.95969
-1.95964
-1.95961
-1.9596
-1.9596
-1.95962
-1.95965
-1.9597
-1.95976
-1.95984
-1.95993
-1.96002
-1.96013
-1.96024
-1.96035
-1.96047
-1.96058
-1.96069
-1.9608
-1.9609
-1.96099
-1.96106
-1.96111
-1.96115
-1.96115
-1.96113
-1.96108
-1.96104
-1.96102
-1.96101
-1.96103
-1.96106
-1.96111
-1.96115
-1.96115
-1.96113
-1.96108
-1.96101
-1.96093
-1.96084
-1.96073
-1.96062
-1.96051
-1.96039
-1.96027
-1.96016
-1.96005
-1.95995
-1.95985
-1.95977
-1.9597
-1.95964
-1.95959
-1.95956
-1.95955
-2.28619
-2.2862
-2.28623
-2.28628
-2.28633
-2.2864
-2.28648
-2.28656
-2.28666
-2.28675
-2.28685
-2.28695
-2.28705
-2.28714
-2.28724
-2.28732
-2.28739
-2.28745
-2.2875
-2.28752
-2.28753
-2.28749
-2.28742
-2.28734
-2.28729
-2.28727
-2.28728
-2.28734
-2.28742
-2.28749
-2.28753
-2.28753
-2.2875
-2.28746
-2.2874
-2.28733
-2.28725
-2.28716
-2.28706
-2.28697
-2.28687
-2.28677
-2.28667
-2.28658
-2.2865
-2.28643
-2.28636
-2.28631
-2.28627
-2.28624
-2.28623
-2.28623
-2.28625
-2.28628
-2.28632
-2.28638
-2.28645
-2.28652
-2.28661
-2.2867
-2.28679
-2.28689
-2.28699
-2.28709
-2.28718
-2.28727
-2.28735
-2.28742
-2.28747
-2.28751
-2.28753
-2.28752
-2.28747
-2.28739
-2.28732
-2.28728
-2.28727
-2.2873
-2.28736
-2.28744
-2.28751
-2.28753
-2.28752
-2.28749
-2.28744
-2.28737
-2.2873
-2.28721
-2.28712
-2.28702
-2.28692
-2.28682
-2.28673
-2.28663
-2.28654
-2.28646
-2.28638
-2.28632
-2.28626
-2.28622
-2.2862
-2.28618
-2.61284
-2.61285
-2.61288
-2.61292
-2.61297
-2.61303
-2.6131
-2.61317
-2.61325
-2.61334
-2.61342
-2.6135
-2.61359
-2.61367
-2.61374
-2.61381
-2.61386
-2.61391
-2.61394
-2.61395
-2.61394
-2.6139
-2.61382
-2.61372
-2.61364
-2.61361
-2.61363
-2.61371
-2.61381
-2.61389
-2.61394
-2.61395
-2.61394
-2.61391
-2.61387
-2.61381
-2.61375
-2.61368
-2.6136
-2.61352
-2.61343
-2.61335
-2.61327
-2.61319
-2.61312
-2.61305
-2.61299
-2.61295
-2.61291
-2.61289
-2.61287
-2.61288
-2.61289
-2.61292
-2.61296
-2.61301
-2.61307
-2.61314
-2.61321
-2.61329
-2.61337
-2.61346
-2.61354
-2.61362
-2.6137
-2.61377
-2.61383
-2.61388
-2.61392
-2.61394
-2.61395
-2.61393
-2.61388
-2.61379
-2.61369
-2.61362
-2.61361
-2.61366
-2.61375
-2.61385
-2.61391
-2.61394
-2.61395
-2.61393
-2.6139
-2.61385
-2.61379
-2.61372
-2.61365
-2.61357
-2.61348
-2.6134
-2.61331
-2.61323
-2.61315
-2.61308
-2.61301
-2.61296
-2.61291
-2.61287
-2.61285
-2.61284
-2.9395
-2.93951
-2.93954
-2.93957
-2.93962
-2.93967
-2.93973
-2.93979
-2.93986
-2.93994
-2.94001
-2.94008
-2.94015
-2.94021
-2.94027
-2.94032
-2.94036
-2.94039
-2.9404
-2.9404
-2.94038
-2.94034
-2.94027
-2.94018
-2.94009
-2.94006
-2.94008
-2.94017
-2.94026
-2.94034
-2.94038
-2.9404
-2.9404
-2.94039
-2.94036
-2.94032
-2.94027
-2.94022
-2.94015
-2.94009
-2.94002
-2.93995
-2.93988
-2.93981
-2.93975
-2.93969
-2.93964
-2.9396
-2.93956
-2.93954
-2.93953
-2.93953
-2.93955
-2.93957
-2.93961
-2.93965
-2.9397
-2.93976
-2.93983
-2.9399
-2.93997
-2.94004
-2.9401
-2.94017
-2.94023
-2.94029
-2.94033
-2.94037
-2.9404
-2.94041
-2.9404
-2.94037
-2.94032
-2.94024
-2.94014
-2.94007
-2.94006
-2.94011
-2.9402
-2.94029
-2.94036
-2.94039
-2.9404
-2.9404
-2.94038
-2.94035
-2.9403
-2.94025
-2.94019
-2.94013
-2.94006
-2.93999
-2.93992
-2.93985
-2.93978
-2.93971
-2.93966
-2.9396
-2.93956
-2.93953
-2.93951
-2.9395
-3.26617
-3.26618
-3.2662
-3.26623
-3.26627
-3.26632
-3.26637
-3.26643
-3.26648
-3.26654
-3.2666
-3.26666
-3.26672
-3.26677
-3.26681
-3.26684
-3.26687
-3.26689
-3.26689
-3.26688
-3.26686
-3.26682
-3.26676
-3.26668
-3.26661
-3.26658
-3.2666
-3.26667
-3.26675
-3.26681
-3.26686
-3.26688
-3.26689
-3.26689
-3.26687
-3.26685
-3.26681
-3.26677
-3.26672
-3.26667
-3.26661
-3.26655
-3.2665
-3.26644
-3.26638
-3.26633
-3.26629
-3.26625
-3.26622
-3.2662
-3.26619
-3.2662
-3.26621
-3.26623
-3.26626
-3.2663
-3.26635
-3.2664
-3.26645
-3.26651
-3.26657
-3.26663
-3.26668
-3.26674
-3.26678
-3.26682
-3.26686
-3.26688
-3.26689
-3.26689
-3.26688
-3.26685
-3.2668
-3.26673
-3.26665
-3.26659
-3.26658
-3.26662
-3.2667
-3.26677
-3.26683
-3.26687
-3.26689
-3.26689
-3.26688
-3.26687
-3.26684
-3.2668
-3.26675
-3.2667
-3.26665
-3.26659
-3.26653
-3.26647
-3.26641
-3.26636
-3.26631
-3.26626
-3.26622
-3.26619
-3.26618
-3.26617
-3.59284
-3.59285
-3.59287
-3.5929
-3.59293
-3.59297
-3.59301
-3.59306
-3.59311
-3.59316
-3.59321
-3.59325
-3.5933
-3.59333
-3.59336
-3.59339
-3.5934
-3.59341
-3.5934
-3.59339
-3.59336
-3.59332
-3.59327
-3.5932
-3.59315
-3.59313
-3.59315
-3.5932
-3.59326
-3.59331
-3.59336
-3.59338
-3.5934
-3.59341
-3.5934
-3.59339
-3.59337
-3.59334
-3.5933
-3.59326
-3.59321
-3.59317
-3.59312
-3.59307
-3.59302
-3.59298
-3.59294
-3.59291
-3.59289
-3.59287
-3.59286
-3.59286
-3.59287
-3.59289
-3.59292
-3.59295
-3.59299
-3.59304
-3.59308
-3.59313
-3.59318
-3.59323
-3.59327
-3.59331
-3.59334
-3.59337
-3.59339
-3.5934
-3.59341
-3.5934
-3.59338
-3.59335
-3.5933
-3.59324
-3.59318
-3.59314
-3.59313
-3.59316
-3.59322
-3.59328
-3.59333
-3.59337
-3.59339
-3.5934
-3.59341
-3.5934
-3.59338
-3.59336
-3.59332
-3.59329
-3.59324
-3.5932
-3.59315
-3.5931
-3.59305
-3.593
-3.59296
-3.59292
-3.59289
-3.59286
-3.59285
-3.59284
-3.91951
-3.91952
-3.91954
-3.91956
-3.91959
-3.91962
-3.91966
-3.9197
-3.91974
-3.91978
-3.91982
-3.91985
-3.91988
-3.91991
-3.91993
-3.91994
-3.91994
-3.91994
-3.91992
-3.9199
-3.91987
-3.91983
-3.91979
-3.91974
-3.9197
-3.91968
-3.9197
-3.91974
-3.91978
-3.91983
-3.91987
-3.9199
-3.91992
-3.91994
-3.91994
-3.91994
-3.91993
-3.91991
-3.91988
-3.91985
-3.91982
-3.91978
-3.91974
-3.91971
-3.91967
-3.91963
-3.9196
-3.91957
-3.91955
-3.91954
-3.91953
-3.91953
-3.91954
-3.91956
-3.91958
-3.91961
-3.91964
-3.91968
-3.91972
-3.91976
-3.91979
-3.91983
-3.91986
-3.91989
-3.91991
-3.91993
-3.91994
-3.91994
-3.91993
-3.91992
-3.91989
-3.91986
-3.91982
-3.91977
-3.91973
-3.91969
-3.91969
-3.91971
-3.91975
-3.9198
-3.91985
-3.91988
-3.91991
-3.91993
-3.91994
-3.91994
-3.91994
-3.91992
-3.9199
-3.91987
-3.91984
-3.91981
-3.91977
-3.91973
-3.91969
-3.91965
-3.91961
-3.91958
-3.91955
-3.91953
-3.91952
-3.91951
-4.24619
-4.24619
-4.24621
-4.24623
-4.24625
-4.24628
-4.24631
-4.24634
-4.24637
-4.2464
-4.24643
-4.24645
-4.24647
-4.24649
-4.24649
-4.24649
-4.24649
-4.24648
-4.24646
-4.24643
-4.2464
-4.24636
-4.24632
-4.24628
-4.24625
-4.24624
-4.24625
-4.24628
-4.24632
-4.24636
-4.24639
-4.24643
-4.24645
-4.24647
-4.24649
-4.24649
-4.24649
-4.24648
-4.24647
-4.24645
-4.24643
-4.2464
-4.24637
-4.24634
-4.24631
-4.24628
-4.24626
-4.24623
-4.24622
-4.24621
-4.2462
-4.2462
-4.24621
-4.24622
-4.24624
-4.24626
-4.24629
-4.24632
-4.24635
-4.24638
-4.24641
-4.24644
-4.24646
-4.24648
-4.24649
-4.24649
-4.24649
-4.24648
-4.24647
-4.24645
-4.24642
-4.24639
-4.24635
-4.24631
-4.24627
-4.24625
-4.24624
-4.24626
-4.24629
-4.24633
-4.24637
-4.24641
-4.24644
-4.24646
-4.24648
-4.24649
-4.2465
-4.24649
-4.24648
-4.24647
-4.24645
-4.24642
-4.24639
-4.24636
-4.24633
-4.2463
-4.24627
-4.24624
-4.24622
-4.2462
-4.24619
-4.24619
-4.57286
-4.57287
-4.57288
-4.5729
-4.57291
-4.57293
-4.57296
-4.57298
-4.573
-4.57302
-4.57304
-4.57305
-4.57306
-4.57307
-4.57306
-4.57306
-4.57304
-4.57302
-4.573
-4.57297
-4.57293
-4.5729
-4.57286
-4.57283
-4.5728
-4.5728
-4.5728
-4.57283
-4.57286
-4.57289
-4.57293
-4.57296
-4.57299
-4.57302
-4.57304
-4.57305
-4.57306
-4.57306
-4.57306
-4.57305
-4.57304
-4.57302
-4.573
-4.57298
-4.57296
-4.57294
-4.57292
-4.5729
-4.57289
-4.57288
-4.57287
-4.57287
-4.57288
-4.57289
-4.5729
-4.57292
-4.57294
-4.57296
-4.57299
-4.57301
-4.57303
-4.57304
-4.57305
-4.57306
-4.57306
-4.57306
-4.57305
-4.57303
-4.57301
-4.57298
-4.57295
-4.57292
-4.57288
-4.57285
-4.57282
-4.5728
-4.5728
-4.57281
-4.57284
-4.57287
-4.57291
-4.57294
-4.57297
-4.573
-4.57303
-4.57305
-4.57306
-4.57306
-4.57307
-4.57306
-4.57305
-4.57304
-4.57302
-4.573
-4.57297
-4.57295
-4.57293
-4.57291
-4.57289
-4.57288
-4.57287
-4.57286
-4.89954
-4.89955
-4.89955
-4.89956
-4.89958
-4.89959
-4.89961
-4.89962
-4.89963
-4.89964
-4.89965
-4.89965
-4.89965
-4.89965
-4.89964
-4.89962
-4.8996
-4.89957
-4.89954
-4.89951
-4.89947
-4.89943
-4.8994
-4.89937
-4.89935
-4.89935
-4.89935
-4.89937
-4.8994
-4.89943
-4.89947
-4.8995
-4.89953
-4.89957
-4.89959
-4.89961
-4.89963
-4.89964
-4.89965
-4.89965
-4.89965
-4.89964
-4.89963
-4.89962
-4.8996
-4.89959
-4.89958
-4.89956
-4.89956
-4.89955
-4.89955
-4.89955
-4.89955
-4.89956
-4.89957
-4.89958
-4.89959
-4.89961
-4.89962
-4.89963
-4.89964
-4.89965
-4.89965
-4.89965
-4.89964
-4.89963
-4.89961
-4.89959
-4.89956
-4.89953
-4.89949
-4.89946
-4.89942
-4.89939
-4.89936
-4.89935
-4.89935
-4.89936
-4.89938
-4.89941
-4.89944
-4.89948
-4.89951
-4.89955
-4.89958
-4.8996
-4.89962
-4.89964
-4.89965
-4.89965
-4.89965
-4.89965
-4.89964
-4.89963
-4.89962
-4.8996
-4.89959
-4.89957
-4.89956
-4.89955
-4.89955
-4.89954
-5.22622
-5.22623
-5.22623
-5.22624
-5.22624
-5.22625
-5.22626
-5.22626
-5.22626
-5.22626
-5.22626
-5.22625
-5.22624
-5.22623
-5.22621
-5.22618
-5.22615
-5.22612
-5.22608
-5.22605
-5.22601
-5.22597
-5.22594
-5.22592
-5.2259
-5.22589
-5.2259
-5.22591
-5.22594
-5.22597
-5.22601
-5.22604
-5.22608
-5.22612
-5.22615
-5.22618
-5.2262
-5.22622
-5.22624
-5.22625
-5.22626
-5.22626
-5.22626
-5.22626
-5.22625
-5.22625
-5.22624
-5.22623
-5.22623
-5.22623
-5.22622
-5.22622
-5.22623
-5.22623
-5.22624
-5.22624
-5.22625
-5.22625
-5.22626
-5.22626
-5.22626
-5.22626
-5.22625
-5.22624
-5.22622
-5.2262
-5.22617
-5.22614
-5.22611
-5.22607
-5.22603
-5.226
-5.22596
-5.22593
-5.22591
-5.2259
-5.22589
-5.2259
-5.22592
-5.22595
-5.22598
-5.22602
-5.22606
-5.22609
-5.22613
-5.22616
-5.22619
-5.22621
-5.22623
-5.22625
-5.22626
-5.22626
-5.22626
-5.22626
-5.22626
-5.22625
-5.22625
-5.22624
-5.22624
-5.22623
-5.22623
-5.22622
-5.55291
-5.55291
-5.55291
-5.55291
-5.55291
-5.55291
-5.55291
-5.55291
-5.5529
-5.55289
-5.55287
-5.55286
-5.55284
-5.55281
-5.55278
-5.55275
-5.55271
-5.55267
-5.55263
-5.55259
-5.55255
-5.55251
-5.55248
-5.55246
-5.55244
-5.55244
-5.55244
-5.55246
-5.55248
-5.55251
-5.55255
-5.55259
-5.55263
-5.55267
-5.55271
-5.55274
-5.55278
-5.5528
-5.55283
-5.55285
-5.55287
-5.55288
-5.55289
-5.5529
-5.5529
-5.55291
-5.55291
-5.55291
-5.55291
-5.55291
-5.55291
-5.55291
-5.55291
-5.55291
-5.55291
-5.55291
-5.55291
-5.5529
-5.5529
-5.55289
-5.55288
-5.55286
-5.55285
-5.55282
-5.5528
-5.55277
-5.55273
-5.5527
-5.55266
-5.55262
-5.55258
-5.55254
-5.5525
-5.55247
-5.55245
-5.55244
-5.55244
-5.55245
-5.55246
-5.55249
-5.55252
-5.55256
-5.5526
-5.55264
-5.55268
-5.55272
-5.55276
-5.55279
-5.55282
-5.55284
-5.55286
-5.55288
-5.55289
-5.5529
-5.55291
-5.55291
-5.55291
-5.55291
-5.55291
-5.55291
-5.55291
-5.55291
-5.87961
-5.87961
-5.8796
-5.8796
-5.87959
-5.87958
-5.87957
-5.87955
-5.87954
-5.87951
-5.87949
-5.87946
-5.87943
-5.87939
-5.87936
-5.87932
-5.87927
-5.87923
-5.87918
-5.87914
-5.87909
-5.87906
-5.87903
-5.879
-5.87899
-5.87898
-5.87898
-5.879
-5.87902
-5.87905
-5.87909
-5.87913
-5.87918
-5.87922
-5.87927
-5.87931
-5.87935
-5.87939
-5.87942
-5.87945
-5.87948
-5.87951
-5.87953
-5.87955
-5.87956
-5.87957
-5.87958
-5.87959
-5.8796
-5.8796
-5.8796
-5.8796
-5.8796
-5.87959
-5.87959
-5.87958
-5.87957
-5.87956
-5.87954
-5.87952
-5.8795
-5.87948
-5.87945
-5.87941
-5.87938
-5.87934
-5.8793
-5.87925
-5.87921
-5.87916
-5.87912
-5.87908
-5.87904
-5.87902
-5.87899
-5.87898
-5.87898
-5.87899
-5.87901
-5.87903
-5.87907
-5.87911
-5.87915
-5.87919
-5.87924
-5.87928
-5.87933
-5.87937
-5.8794
-5.87944
-5.87947
-5.8795
-5.87952
-5.87954
-5.87956
-5.87957
-5.87958
-5.87959
-5.8796
-5.8796
-5.87961
-5.87961
-6.20631
-6.20631
-6.2063
-6.20629
-6.20628
-6.20626
-6.20623
-6.20621
-6.20618
-6.20615
-6.20611
-6.20607
-6.20603
-6.20598
-6.20593
-6.20589
-6.20583
-6.20578
-6.20573
-6.20568
-6.20564
-6.2056
-6.20557
-6.20554
-6.20553
-6.20552
-6.20553
-6.20554
-6.20557
-6.2056
-6.20564
-6.20568
-6.20573
-6.20578
-6.20583
-6.20588
-6.20593
-6.20598
-6.20602
-6.20606
-6.2061
-6.20614
-6.20617
-6.2062
-6.20623
-6.20625
-6.20627
-6.20628
-6.20629
-6.2063
-6.2063
-6.2063
-6.2063
-6.20629
-6.20628
-6.20626
-6.20624
-6.20622
-6.20619
-6.20616
-6.20613
-6.20609
-6.20605
-6.20601
-6.20596
-6.20592
-6.20587
-6.20582
-6.20576
-6.20571
-6.20567
-6.20563
-6.20559
-6.20556
-6.20554
-6.20553
-6.20552
-6.20553
-6.20555
-6.20558
-6.20561
-6.20565
-6.2057
-6.20575
-6.2058
-6.20585
-6.2059
-6.20595
-6.20599
-6.20604
-6.20608
-6.20612
-6.20615
-6.20619
-6.20622
-6.20624
-6.20626
-6.20628
-6.20629
-6.2063
-6.20631
-6.20631
-6.53303
-6.53303
-6.53301
-6.533
-6.53297
-6.53294
-6.53291
-6.53287
-6.53283
-6.53279
-6.53274
-6.53269
-6.53263
-6.53258
-6.53252
-6.53246
-6.5324
-6.53235
-6.53229
-6.53224
-6.53219
-6.53215
-6.53211
-6.53209
-6.53207
-6.53207
-6.53207
-6.53209
-6.53211
-6.53215
-6.53219
-6.53223
-6.53228
-6.53234
-6.5324
-6.53245
-6.53251
-6.53257
-6.53263
-6.53268
-6.53273
-6.53278
-6.53282
-6.53287
-6.5329
-6.53294
-6.53296
-6.53299
-6.533
-6.53301
-6.53302
-6.53302
-6.53301
-6.533
-6.53298
-6.53296
-6.53293
-6.53289
-6.53286
-6.53281
-6.53277
-6.53272
-6.53267
-6.53261
-6.53256
-6.5325
-6.53244
-6.53238
-6.53232
-6.53227
-6.53222
-6.53217
-6.53214
-6.5321
-6.53208
-6.53207
-6.53207
-6.53208
-6.5321
-6.53212
-6.53216
-6.5322
-6.53225
-6.5323
-6.53236
-6.53242
-6.53248
-6.53253
-6.53259
-6.53265
-6.5327
-6.53275
-6.5328
-6.53284
-6.53288
-6.53292
-6.53295
-6.53298
-6.533
-6.53302
-6.53303
-6.53303
-6.85977
-6.85976
-6.85974
-6.85972
-6.85968
-6.85965
-6.8596
-6.85955
-6.8595
-6.85944
-6.85938
-6.85931
-6.85925
-6.85918
-6.85911
-6.85905
-6.85898
-6.85892
-6.85885
-6.8588
-6.85875
-6.8587
-6.85867
-6.85864
-6.85862
-6.85862
-6.85862
-6.85864
-6.85866
-6.8587
-6.85874
-6.85879
-6.85885
-6.85891
-6.85897
-6.85904
-6.85911
-6.85917
-6.85924
-6.85931
-6.85937
-6.85943
-6.85949
-6.85954
-6.85959
-6.85964
-6.85967
-6.8597
-6.85973
-6.85974
-6.85975
-6.85975
-6.85974
-6.85972
-6.8597
-6.85966
-6.85963
-6.85958
-6.85953
-6.85948
-6.85942
-6.85935
-6.85929
-6.85922
-6.85916
-6.85909
-6.85902
-6.85896
-6.85889
-6.85883
-6.85878
-6.85873
-6.85869
-6.85866
-6.85863
-6.85862
-6.85862
-6.85863
-6.85865
-6.85868
-6.85871
-6.85876
-6.85881
-6.85887
-6.85893
-6.859
-6.85906
-6.85913
-6.8592
-6.85926
-6.85933
-6.85939
-6.85945
-6.85951
-6.85957
-6.85961
-6.85966
-6.85969
-6.85972
-6.85975
-6.85976
-6.85977
-7.18652
-7.18651
-7.18649
-7.18645
-7.18641
-7.18637
-7.18631
-7.18625
-7.18618
-7.18611
-7.18603
-7.18596
-7.18588
-7.1858
-7.18572
-7.18564
-7.18557
-7.1855
-7.18543
-7.18537
-7.18531
-7.18527
-7.18523
-7.1852
-7.18519
-7.18518
-7.18518
-7.1852
-7.18523
-7.18526
-7.18531
-7.18537
-7.18543
-7.18549
-7.18556
-7.18564
-7.18572
-7.18579
-7.18587
-7.18595
-7.18603
-7.1861
-7.18617
-7.18624
-7.1863
-7.18636
-7.1864
-7.18644
-7.18647
-7.18649
-7.1865
-7.1865
-7.18649
-7.18646
-7.18643
-7.18639
-7.18634
-7.18629
-7.18622
-7.18616
-7.18608
-7.18601
-7.18593
-7.18585
-7.18577
-7.1857
-7.18562
-7.18555
-7.18548
-7.18541
-7.18535
-7.1853
-7.18525
-7.18522
-7.1852
-7.18518
-7.18518
-7.18519
-7.18521
-7.18524
-7.18528
-7.18533
-7.18538
-7.18545
-7.18552
-7.18559
-7.18566
-7.18574
-7.18582
-7.1859
-7.18598
-7.18605
-7.18613
-7.1862
-7.18626
-7.18633
-7.18638
-7.18643
-7.18646
-7.18649
-7.18651
-7.18652
-7.51329
-7.51328
-7.51325
-7.51322
-7.51317
-7.51311
-7.51304
-7.51297
-7.51289
-7.5128
-7.51271
-7.51262
-7.51253
-7.51244
-7.51235
-7.51226
-7.51218
-7.5121
-7.51203
-7.51196
-7.5119
-7.51185
-7.51181
-7.51178
-7.51176
-7.51176
-7.51176
-7.51178
-7.51181
-7.51185
-7.5119
-7.51196
-7.51202
-7.5121
-7.51218
-7.51226
-7.51235
-7.51244
-7.51253
-7.51262
-7.51271
-7.5128
-7.51288
-7.51296
-7.51303
-7.5131
-7.51315
-7.5132
-7.51324
-7.51326
-7.51327
-7.51327
-7.51326
-7.51323
-7.51319
-7.51314
-7.51308
-7.51301
-7.51294
-7.51286
-7.51277
-7.51268
-7.51259
-7.5125
-7.51241
-7.51232
-7.51224
-7.51215
-7.51208
-7.512
-7.51194
-7.51188
-7.51184
-7.5118
-7.51177
-7.51176
-7.51176
-7.51177
-7.51179
-7.51182
-7.51186
-7.51191
-7.51198
-7.51204
-7.51212
-7.5122
-7.51229
-7.51237
-7.51246
-7.51255
-7.51265
-7.51274
-7.51282
-7.51291
-7.51299
-7.51306
-7.51312
-7.51318
-7.51323
-7.51326
-7.51329
-7.5133
-7.84009
-7.84008
-7.84005
-7.84
-7.83994
-7.83988
-7.8398
-7.83971
-7.83962
-7.83952
-7.83942
-7.83931
-7.83921
-7.83911
-7.83901
-7.83891
-7.83882
-7.83873
-7.83865
-7.83857
-7.83851
-7.83846
-7.83841
-7.83838
-7.83836
-7.83836
-7.83836
-7.83838
-7.83841
-7.83845
-7.83851
-7.83857
-7.83864
-7.83873
-7.83881
-7.83891
-7.839
-7.8391
-7.83921
-7.83931
-7.83941
-7.83952
-7.83961
-7.8397
-7.83979
-7.83987
-7.83993
-7.83999
-7.84003
-7.84006
-7.84007
-7.84007
-7.84005
-7.84002
-7.83997
-7.83992
-7.83985
-7.83977
-7.83968
-7.83959
-7.83949
-7.83939
-7.83928
-7.83918
-7.83908
-7.83898
-7.83888
-7.83879
-7.8387
-7.83862
-7.83855
-7.83849
-7.83844
-7.8384
-7.83837
-7.83836
-7.83836
-7.83837
-7.83839
-7.83842
-7.83847
-7.83853
-7.83859
-7.83867
-7.83875
-7.83884
-7.83893
-7.83903
-7.83913
-7.83924
-7.83934
-7.83944
-7.83955
-7.83964
-7.83973
-7.83982
-7.83989
-7.83996
-7.84001
-7.84006
-7.84008
-7.8401
-8.16692
-8.1669
-8.16687
-8.16682
-8.16675
-8.16667
-8.16659
-8.16649
-8.16638
-8.16627
-8.16616
-8.16604
-8.16593
-8.16581
-8.1657
-8.16559
-8.16549
-8.16539
-8.1653
-8.16522
-8.16516
-8.1651
-8.16505
-8.16502
-8.165
-8.16499
-8.165
-8.16502
-8.16505
-8.1651
-8.16515
-8.16522
-8.1653
-8.16539
-8.16549
-8.16559
-8.1657
-8.16581
-8.16592
-8.16604
-8.16616
-8.16627
-8.16638
-8.16648
-8.16658
-8.16667
-8.16674
-8.1668
-8.16685
-8.16688
-8.1669
-8.16689
-8.16687
-8.16684
-8.16679
-8.16672
-8.16664
-8.16655
-8.16646
-8.16635
-8.16624
-8.16613
-8.16601
-8.16589
-8.16578
-8.16567
-8.16556
-8.16546
-8.16537
-8.16528
-8.1652
-8.16514
-8.16508
-8.16504
-8.16501
-8.16499
-8.16499
-8.165
-8.16502
-8.16506
-8.16511
-8.16517
-8.16524
-8.16533
-8.16542
-8.16551
-8.16562
-8.16573
-8.16584
-8.16596
-8.16607
-8.16619
-8.1663
-8.16641
-8.16651
-8.16661
-8.1667
-8.16677
-8.16683
-8.16688
-8.16691
-8.16692
-8.49378
-8.49376
-8.49372
-8.49366
-8.49359
-8.49351
-8.49341
-8.4933
-8.49319
-8.49306
-8.49294
-8.49281
-8.49269
-8.49256
-8.49244
-8.49232
-8.49221
-8.4921
-8.49201
-8.49192
-8.49185
-8.49179
-8.49174
-8.4917
-8.49168
-8.49167
-8.49168
-8.4917
-8.49173
-8.49178
-8.49185
-8.49192
-8.49201
-8.4921
-8.49221
-8.49232
-8.49244
-8.49256
-8.49268
-8.49281
-8.49294
-8.49306
-8.49318
-8.4933
-8.4934
-8.4935
-8.49358
-8.49365
-8.4937
-8.49374
-8.49375
-8.49375
-8.49373
-8.49369
-8.49363
-8.49356
-8.49347
-8.49338
-8.49327
-8.49315
-8.49303
-8.49291
-8.49278
-8.49265
-8.49253
-8.49241
-8.49229
-8.49218
-8.49208
-8.49198
-8.4919
-8.49183
-8.49177
-8.49172
-8.49169
-8.49167
-8.49167
-8.49168
-8.49171
-8.49175
-8.4918
-8.49187
-8.49194
-8.49203
-8.49213
-8.49224
-8.49235
-8.49247
-8.49259
-8.49272
-8.49285
-8.49297
-8.4931
-8.49322
-8.49333
-8.49344
-8.49353
-8.49361
-8.49368
-8.49373
-8.49377
-8.49378
-8.82067
-8.82065
-8.82061
-8.82055
-8.82047
-8.82038
-8.82027
-8.82016
-8.82003
-8.8199
-8.81977
-8.81963
-8.8195
-8.81936
-8.81923
-8.8191
-8.81898
-8.81887
-8.81877
-8.81868
-8.8186
-8.81853
-8.81848
-8.81844
-8.81842
-8.81841
-8.81842
-8.81844
-8.81848
-8.81853
-8.8186
-8.81868
-8.81877
-8.81887
-8.81898
-8.8191
-8.81923
-8.81936
-8.8195
-8.81963
-8.81977
-8.8199
-8.82003
-8.82015
-8.82027
-8.82037
-8.82046
-8.82053
-8.82059
-8.82063
-8.82065
-8.82064
-8.82062
-8.82058
-8.82052
-8.82044
-8.82034
-8.82024
-8.82012
-8.82
-8.81987
-8.81973
-8.8196
-8.81946
-8.81933
-8.8192
-8.81907
-8.81895
-8.81884
-8.81874
-8.81866
-8.81858
-8.81852
-8.81847
-8.81843
-8.81841
-8.81841
-8.81842
-8.81845
-8.81849
-8.81855
-8.81862
-8.8187
-8.8188
-8.8189
-8.81901
-8.81914
-8.81926
-8.8194
-8.81953
-8.81967
-8.8198
-8.81994
-8.82007
-8.82019
-8.8203
-8.8204
-8.82049
-8.82057
-8.82062
-8.82066
-8.82068
-9.1476
-9.14758
-9.14753
-9.14747
-9.14739
-9.14729
-9.14718
-9.14706
-9.14693
-9.14679
-9.14665
-9.14651
-9.14636
-9.14622
-9.14608
-9.14595
-9.14583
-9.14571
-9.1456
-9.14551
-9.14542
-9.14535
-9.1453
-9.14526
-9.14523
-9.14522
-9.14523
-9.14526
-9.1453
-9.14535
-9.14542
-9.14551
-9.1456
-9.14571
-9.14583
-9.14595
-9.14609
-9.14622
-9.14637
-9.14651
-9.14665
-9.14679
-9.14693
-9.14706
-9.14718
-9.14728
-9.14738
-9.14746
-9.14751
-9.14755
-9.14757
-9.14757
-9.14755
-9.1475
-9.14744
-9.14735
-9.14726
-9.14715
-9.14702
-9.14689
-9.14676
-9.14661
-9.14647
-9.14633
-9.14619
-9.14605
-9.14592
-9.1458
-9.14568
-9.14558
-9.14548
-9.1454
-9.14534
-9.14529
-9.14525
-9.14523
-9.14523
-9.14524
-9.14527
-9.14531
-9.14537
-9.14544
-9.14553
-9.14563
-9.14574
-9.14586
-9.14599
-9.14612
-9.14626
-9.1464
-9.14655
-9.14669
-9.14683
-9.14696
-9.14709
-9.14721
-9.14732
-9.14741
-9.14749
-9.14755
-9.14759
-9.1476
-9.47457
-9.47454
-9.4745
-9.47443
-9.47435
-9.47425
-9.47413
-9.47401
-9.47388
-9.47374
-9.47359
-9.47344
-9.4733
-9.47315
-9.47301
-9.47287
-9.47274
-9.47262
-9.47251
-9.47242
-9.47233
-9.47226
-9.4722
-9.47216
-9.47213
-9.47213
-9.47213
-9.47216
-9.4722
-9.47226
-9.47233
-9.47242
-9.47251
-9.47262
-9.47275
-9.47287
-9.47301
-9.47315
-9.4733
-9.47345
-9.47359
-9.47374
-9.47388
-9.47401
-9.47413
-9.47424
-9.47434
-9.47442
-9.47448
-9.47452
-9.47454
-9.47454
-9.47451
-9.47447
-9.4744
-9.47431
-9.47421
-9.4741
-9.47397
-9.47384
-9.4737
-9.47355
-9.47341
-9.47326
-9.47312
-9.47298
-9.47284
-9.47271
-9.47259
-9.47249
-9.47239
-9.47231
-9.47224
-9.47219
-9.47215
-9.47213
-9.47213
-9.47214
-9.47217
-9.47221
-9.47228
-9.47235
-9.47244
-9.47254
-9.47265
-9.47278
-9.47291
-9.47305
-9.47319
-9.47334
-9.47348
-9.47363
-9.47377
-9.47391
-9.47404
-9.47417
-9.47428
-9.47437
-9.47445
-9.47451
-9.47455
-9.47457
)
;

boundaryField
{
    top
    {
        type            calculated;
        value           nonuniform List<scalar> 
102
(
-9.63806
-9.63804
-9.63799
-9.63793
-9.63784
-9.63774
-9.63763
-9.6375
-9.63736
-9.63722
-9.63708
-9.63693
-9.63678
-9.63663
-9.63649
-9.63635
-9.63622
-9.6361
-9.63599
-9.63589
-9.6358
-9.63573
-9.63567
-9.63563
-9.63561
-9.6356
-9.63561
-9.63563
-9.63567
-9.63573
-9.6358
-9.63589
-9.63599
-9.6361
-9.63622
-9.63635
-9.63649
-9.63663
-9.63678
-9.63693
-9.63708
-9.63722
-9.63736
-9.6375
-9.63762
-9.63773
-9.63783
-9.63791
-9.63797
-9.63802
-9.63804
-9.63803
-9.63801
-9.63796
-9.63789
-9.63781
-9.63771
-9.63759
-9.63746
-9.63733
-9.63719
-9.63704
-9.63689
-9.63674
-9.6366
-9.63645
-9.63632
-9.63619
-9.63607
-9.63596
-9.63587
-9.63578
-9.63571
-9.63566
-9.63562
-9.6356
-9.6356
-9.63561
-9.63564
-9.63569
-9.63575
-9.63582
-9.63591
-9.63602
-9.63613
-9.63626
-9.63639
-9.63653
-9.63667
-9.63682
-9.63697
-9.63711
-9.63726
-9.6374
-9.63753
-9.63766
-9.63777
-9.63786
-9.63795
-9.63801
-9.63805
-9.63807
)
;
    }
    bottom
    {
        type            calculated;
        value           nonuniform List<scalar> 
102
(
0.16311
0.163079
0.163021
0.162937
0.162827
0.162692
0.16253
0.162344
0.162134
0.1619
0.161645
0.161373
0.161088
0.160797
0.160507
0.160228
0.159971
0.159743
0.159554
0.159405