/*--------------------------------*- C++ -*----------------------------------*\
| =========                 |                                                 |
| \\      /  F ield         | OpenFOAM: The Open Source CFD Toolbox           |
|  \\    /   O peration     | Version:  2.3.0                                 |
|   \\  /    A nd           | Web:      www.OpenFOAM.org                      |
|    \\/     M anipulation  |                                                 |
\*---------------------------------------------------------------------------*/
FoamFile
{
    version     2.0;
    format      ascii;
    class       volScalarField;
    location    "11000";
    object      p_rgh;
}
// * * * * * * * * * * * * * * * * * * * * * * * * * * * * * * * * * * * * * //

dimensions      [0 2 -2 0 0 0 0];

internalField   nonuniform List<scalar> 
3060
(
0.16311
0.163079
0.163021
0.162937
0.162827
0.162692
0.16253
0.162344
0.162134
0.1619
0.161645
0.161373
0.161088
0.160797
0.160507
0.160228
0.159971
0.159743
0.159554
0.159405
0.159295
0.15922
0.159172
0.159144
0.15913
0.159125
0.159129
0.159143
0.159171
0.159217
0.15929
0.159396
0.159542
0.159728
0.159953
0.160209
0.160487
0.160777
0.161068
0.161354
0.161625
0.161879
0.162112
0.162321
0.162504
0.162662
0.162794
0.162899
0.162978
0.163029
0.163054
0.16305
0.163019
0.16296
0.162874
0.162762
0.162624
0.162459
0.162269
0.162054
0.161815
0.161556
0.16128
0.160993
0.160701
0.160413
0.16014
0.159892
0.159676
0.1595
0.159365
0.159268
0.159203
0.159162
0.159139
0.159128
0.159126
0.159133
0.15915
0.159183
0.159237
0.15932
0.15944
0.159599
0.159799
0.160035
0.160299
0.160582
0.160873
0.161163
0.161446
0.161714
0.161963
0.162191
0.162395
0.162575
0.162729
0.162858
0.162962
0.163039
0.16309
0.163113
0.162871
0.162844
0.162793
0.162719
0.16262
0.162498
0.162352
0.162183
0.161991
0.161779
0.161549
0.161304
0.161049
0.160791
0.160537
0.160292
0.160057
0.15984
0.159655
0.159508
0.159398
0.15932
0.159268
0.159235
0.159217
0.159211
0.159217
0.159234
0.159266
0.159316
0.159391
0.159498
0.159642
0.159825
0.16004
0.160273
0.160518
0.160771
0.161029
0.161283
0.161528
0.161757
0.161968
0.162157
0.162324
0.162467
0.162586
0.16268
0.16275
0.162795
0.162816
0.162813
0.162786
0.162734
0.162658
0.162557
0.162432
0.162283
0.16211
0.161915
0.161699
0.161466
0.161218
0.160962
0.160705
0.160453
0.160211
0.159981
0.159774
0.159601
0.159467
0.159369
0.159301
0.159256
0.159228
0.159214
0.159212
0.159221
0.159242
0.15928
0.159338
0.159423
0.159542
0.159699
0.159894
0.160117
0.160355
0.160603
0.160858
0.161116
0.161369
0.161611
0.161836
0.162043
0.162229
0.162392
0.162532
0.162648
0.162741
0.162809
0.162854
0.162874
0.162733
0.162705
0.162652
0.162576
0.162476
0.162354
0.162212
0.162051
0.161875
0.161685
0.161483
0.161271
0.161049
0.160818
0.160582
0.160346
0.160124
0.159929
0.159763
0.159623
0.15951
0.159427
0.159371
0.159334
0.159313
0.159305
0.159312
0.159332
0.159368
0.159422
0.159502
0.159613
0.159751
0.159914
0.160106
0.160326
0.16056
0.160796
0.161026
0.161247
0.161458
0.161659
0.161847
0.162021
0.162179
0.162318
0.162436
0.162531
0.162603
0.16265
0.162673
0.162669
0.162641
0.162587
0.162509
0.162407
0.162283
0.16214
0.161978
0.1618
0.161608
0.161404
0.16119
0.160967
0.160735
0.160498
0.160267
0.160053
0.159869
0.159713
0.159581
0.159479
0.159406
0.159357
0.159325
0.159309
0.159306
0.159317
0.159342
0.159384
0.159446
0.159536
0.159658
0.159804
0.159977
0.16018
0.160407
0.160644
0.160879
0.161108
0.161327
0.161537
0.161736
0.161923
0.162095
0.162251
0.162388
0.162504
0.162598
0.162669
0.162715
0.162737
0.162921
0.162891
0.162836
0.162755
0.162651
0.162525
0.162379
0.162215
0.162036
0.161845
0.161644
0.161435
0.161219
0.160996
0.160769
0.160542
0.160324
0.160118
0.159932
0.159778
0.159659
0.159566
0.1595
0.159456
0.15943
0.15942
0.159428
0.159453
0.159495
0.159559
0.159649
0.159765
0.159915
0.160099
0.160302
0.160519
0.160745
0.160972
0.161193
0.161409
0.161617
0.161817
0.162006
0.162182
0.162343
0.162486
0.162609
0.162708
0.162784
0.162833
0.162857
0.162853
0.162823
0.162766
0.162685
0.162579
0.162451
0.162303
0.162138
0.161958
0.161766
0.161564
0.161354
0.161136
0.160913
0.160686
0.160462
0.160248
0.160049
0.159872
0.159732
0.159623
0.15954
0.159482
0.159445
0.159424
0.159421
0.159435
0.159466
0.159515
0.159588
0.159687
0.159814
0.159978
0.16017
0.16038
0.160601
0.160828
0.161055
0.161276
0.16149
0.161698
0.161896
0.162084
0.162259
0.162419
0.16256
0.16268
0.162779
0.162853
0.162902
0.162924
0.163225
0.163195
0.163139
0.163059
0.162954
0.162828
0.162681
0.162517
0.162336
0.162142
0.161936
0.16172
0.161496
0.161267
0.161035
0.160807
0.160587
0.160376
0.160172
0.159988
0.159841
0.159733
0.159655
0.159601
0.159567
0.159554
0.159565
0.159596
0.159649
0.159724
0.159828
0.159971
0.16015
0.160353
0.160564
0.160783
0.16101
0.161241
0.16147
0.161693
0.161909
0.162113
0.162306
0.162485
0.162647
0.16279
0.162912
0.163012
0.163087
0.163137
0.163161
0.163157
0.163127
0.16307
0.162988
0.162882
0.162754
0.162606
0.16244
0.162257
0.162061
0.161853
0.161636
0.161411
0.161181
0.16095
0.160725
0.160508
0.160299
0.1601
0.15993
0.159798
0.159702
0.159633
0.159586
0.15956
0.159555
0.159574
0.159613
0.159673
0.159758
0.159876
0.160033
0.160224
0.16043
0.160644
0.160866
0.161096
0.161327
0.161555
0.161777
0.161991
0.162194
0.162385
0.162561
0.162721
0.162863
0.162984
0.163082
0.163156
0.163206
0.163229
0.163547
0.163516
0.163458
0.163374
0.163267
0.163137
0.162987
0.162819
0.162634
0.162436
0.162225
0.162004
0.161775
0.161539
0.1613
0.16106
0.160826
0.160602
0.160392
0.160201
0.160036
0.15991
0.159822
0.159762
0.159722
0.159706
0.159719
0.159756
0.159814
0.159898
0.160019
0.16018
0.160369
0.160578
0.160801
0.161035
0.161274
0.161513
0.161748
0.161978
0.162198
0.162408
0.162605
0.162787
0.162953
0.1631
0.163225
0.163328
0.163406
0.163458
0.163482
0.163478
0.163447
0.163388
0.163303
0.163195
0.163063
0.162911
0.162741
0.162555
0.162354
0.162141
0.161919
0.161688
0.161451
0.161211
0.160973
0.160742
0.160522
0.160318
0.160134
0.159983
0.159874
0.159797
0.159745
0.159713
0.159708
0.159731
0.159776
0.159842
0.159939
0.160075
0.160249
0.160445
0.160659
0.160886
0.161122
0.161362
0.161601
0.161835
0.162063
0.162281
0.162489
0.162684
0.162864
0.163028
0.163173
0.163297
0.163398
0.163475
0.163526
0.16355
0.163875
0.163843
0.163782
0.163695
0.163584
0.163449
0.163294
0.16312
0.16293
0.162726
0.162509
0.162281
0.162044
0.161801
0.161552
0.1613
0.161051
0.160808
0.160577
0.160368
0.160191
0.16006
0.159974
0.159917
0.15988
0.159864
0.159876
0.159911
0.159966
0.160047
0.160172
0.160346
0.160552
0.160781
0.161024
0.161273
0.161525
0.161774
0.162018
0.162255
0.162482
0.162698
0.162901
0.163089
0.16326
0.163412
0.163543
0.16365
0.163731
0.163785
0.163811
0.163807
0.163774
0.163712
0.163624
0.163511
0.163375
0.163218
0.163042
0.16285
0.162643
0.162424
0.162194
0.161955
0.161709
0.161459
0.161208
0.16096
0.16072
0.160496
0.160297
0.160135
0.160022
0.159949
0.1599
0.15987
0.159865
0.159887
0.15993
0.159993
0.160089
0.160233
0.16042
0.160636
0.16087
0.161115
0.161366
0.161617
0.161865
0.162107
0.162342
0.162567
0.16278
0.162981
0.163167
0.163336
0.163486
0.163615
0.16372
0.163801
0.163854
0.163879
0.164192
0.164157
0.164092
0.164
0.163882
0.163741
0.163579
0.163398
0.1632
0.162989
0.162765
0.16253
0.162285
0.162033
0.161774
0.16151
0.161246
0.160986
0.160736
0.160507
0.160309
0.16016
0.160075
0.160032
0.160006
0.159995
0.160003
0.160027
0.160066
0.160145
0.160288
0.160482
0.160709
0.160957
0.161217
0.161482
0.161746
0.162006
0.162259
0.162504
0.162739
0.162962
0.163173
0.163369
0.163547
0.163706
0.163843
0.163956
0.164043
0.1641
0.164127
0.164123
0.164088
0.164023
0.163929
0.16381
0.163667
0.163502
0.163319
0.163119
0.162905
0.162679
0.162441
0.162194
0.161939
0.161678
0.161413
0.161149
0.160891
0.160648
0.160427
0.160245
0.160119
0.160054
0.160019
0.159999
0.159996
0.160011
0.160041
0.160092
0.160193
0.160357
0.160564
0.1608
0.161053
0.161315
0.161579
0.161842
0.1621
0.16235
0.162592
0.162824
0.163045
0.163253
0.163447
0.163623
0.16378
0.163916
0.164027
0.164112
0.164169
0.164196
0.164488
0.16445
0.164381
0.164282
0.164156
0.164005
0.163833
0.163643
0.163436
0.163215
0.162983
0.16274
0.162487
0.162226
0.161957
0.161681
0.161403
0.161127
0.16086
0.160612
0.160393
0.160221
0.160115
0.160073
0.160059
0.160054
0.160057
0.160069
0.160106
0.160203
0.160369
0.160585
0.160831
0.161097
0.161374
0.161653
0.161929
0.162199
0.162461
0.162715
0.162958
0.163191
0.163411
0.163616
0.163804
0.163973
0.164119
0.164241
0.164333
0.164396
0.164425
0.164421
0.164382
0.164312
0.164212
0.164084
0.163931
0.163757
0.163564
0.163355
0.163131
0.162896
0.16265
0.162394
0.162129
0.161857
0.16158
0.161301
0.161027
0.160765
0.160525
0.160321
0.160171
0.160092
0.160065
0.160056
0.160055
0.160062
0.16008
0.160136
0.16026
0.160446
0.160674
0.160929
0.161199
0.161476
0.161754
0.162028
0.162295
0.162554
0.162804
0.163045
0.163274
0.163491
0.163694
0.16388
0.164047
0.164191
0.16431
0.164402
0.164463
0.164493
0.164764
0.164722
0.164646
0.164538
0.1644
0.164238
0.164053
0.16385
0.163631
0.1634
0.163157
0.162905
0.162643
0.162373
0.162095
0.161808
0.161518
0.161228
0.160946
0.160679
0.160441
0.160246
0.160112
0.160046
0.160026
0.160022
0.160024
0.16004
0.160099
0.160226
0.160415
0.16065
0.160915
0.161197
0.161488
0.161779
0.162067
0.162347
0.162619
0.162881
0.163135
0.163378
0.163609
0.163827
0.164028
0.16421
0.164368
0.1645
0.164602
0.16467
0.164703
0.164698
0.164656
0.164578
0.164469
0.164329
0.164165
0.163977
0.163772
0.16355
0.163316
0.16307
0.162814
0.162549
0.162275
0.161992
0.161703
0.161412
0.161123
0.160844
0.160586
0.160361
0.160186
0.160078
0.160034
0.160023
0.160023
0.160029
0.160057
0.16014
0.160292
0.1605
0.160747
0.161018
0.161303
0.161594
0.161884
0.162168
0.162445
0.162713
0.162972
0.163221
0.163461
0.16369
0.163905
0.164103
0.164282
0.164439
0.164569
0.164669
0.164737
0.164769
0.165022
0.164976
0.164891
0.164771
0.164619
0.164441
0.16424
0.16402
0.163787
0.163541
0.163286
0.163023
0.162752
0.162473
0.162185
0.161889
0.161589
0.161287
0.160992
0.16071
0.160455
0.160239
0.160078
0.159981
0.15994
0.159929
0.159936
0.159972
0.160062
0.160216
0.160427
0.16068
0.16096
0.161256
0.161558
0.16186
0.162158
0.162448
0.162729
0.163002
0.163267
0.163523
0.163769
0.164002
0.16422
0.164418
0.164592
0.164738
0.164851
0.164927
0.164963
0.164958
0.164911
0.164825
0.164703
0.164549
0.164369
0.164165
0.163943
0.163706
0.163457
0.163199
0.162932
0.162657
0.162373
0.162081
0.161782
0.161479
0.161178
0.160885
0.160611
0.160368
0.16017
0.160032
0.159959
0.159933
0.15993
0.159947
0.16
0.160114
0.160291
0.160518
0.160782
0.161068
0.161366
0.161668
0.161967
0.162261
0.162547
0.162824
0.163093
0.163354
0.163606
0.163849
0.164079
0.164294
0.16449
0.164661
0.164805
0.164916
0.164991
0.165027
0.165268
0.165216
0.16512
0.164986
0.164816
0.164618
0.164397
0.164158
0.163905
0.163643
0.163373
0.163097
0.162814
0.162526
0.162229
0.161925
0.161617
0.161307
0.161001
0.160708
0.160439
0.160206
0.160023
0.159901
0.159836
0.159816
0.159831
0.159889
0.160005
0.160182
0.16041
0.160677
0.160969
0.161275
0.161586
0.161897
0.162203
0.162503
0.162794
0.163079
0.163358
0.16363
0.163893
0.164146
0.164384
0.164603
0.164796
0.164959
0.165086
0.165171
0.165212
0.165206
0.165153
0.165056
0.16492
0.164748
0.164548
0.164324
0.164082
0.163826
0.16356
0.163286
0.163006
0.162719
0.162426
0.162124
0.161817
0.161505
0.161194
0.160891
0.160604
0.160346
0.16013
0.159969
0.159869
0.159824
0.159818
0.159848
0.159927
0.160065
0.160262
0.160506
0.160782
0.16108
0.161387
0.161698
0.162005
0.162307
0.162602
0.162889
0.163169
0.163444
0.163712
0.163973
0.164222
0.164457
0.164673
0.164864
0.165024
0.165149
0.165234
0.165274
0.165508
0.165449
0.165341
0.165189
0.164999
0.164777
0.164532
0.164268
0.163993
0.16371
0.163421
0.16313
0.162835
0.162536
0.162231
0.16192
0.161606
0.161289
0.160977
0.160677
0.160398
0.160154
0.159956
0.159816
0.159734
0.159707
0.159728
0.159803
0.159937
0.160129
0.160369
0.160646
0.160946
0.161258
0.161576
0.161894
0.162208
0.162516
0.162819
0.163117
0.163412
0.163703
0.163988
0.164264
0.164526
0.164769
0.164986
0.165169
0.165313
0.16541
0.165456
0.165449
0.165389
0.16528
0.165125
0.164933
0.164708
0.16446
0.164193
0.163914
0.163627
0.163335
0.16304
0.16274
0.162436
0.162126
0.161811
0.161493
0.161176
0.160866
0.160571
0.160303
0.160074
0.159896
0.159778
0.159718
0.159709
0.15975
0.159847
0.160003
0.160214
0.160468
0.160753
0.161058
0.161372
0.161688
0.162002
0.162311
0.162615
0.162912
0.163206
0.163497
0.163784
0.164066
0.164339
0.164598
0.164838
0.165052
0.165232
0.165374
0.16547
0.165515
0.165749
0.165682
0.165559
0.165386
0.165172
0.164923
0.164649
0.164358
0.164056
0.163748
0.163439
0.163129
0.16282
0.162509
0.162196
0.16188
0.161561
0.161241
0.160926
0.160622
0.160339
0.160089
0.159883
0.159732
0.15964
0.159608
0.159633
0.159718
0.159863
0.160064
0.160311
0.160592
0.160896
0.161212
0.161534
0.161856
0.162176
0.162493
0.162808
0.163122
0.163435
0.163748
0.164059
0.164362
0.164653
0.164924
0.165168
0.165375
0.165538
0.165648
0.165701
0.165693
0.165625
0.1655
0.165325
0.165108
0.164856
0.164579
0.164284
0.163978
0.163667
0.163354
0.16304
0.162726
0.162411
0.162093
0.161772
0.16145
0.161129
0.160815
0.160516
0.160243
0.160007
0.15982
0.15969
0.159621
0.159611
0.159658
0.159766
0.159932
0.160151
0.160411
0.1607
0.161007
0.161324
0.161644
0.161963
0.162278
0.162591
0.162901
0.16321
0.16352
0.163829
0.164136
0.164435
0.164723
0.164991
0.165231
0.165436
0.165596
0.165705
0.165757
0.165995
0.165918
0.165779
0.165584
0.165342
0.165063
0.164758
0.164435
0.164103
0.163767
0.163433
0.163103
0.162778
0.162455
0.162133
0.161812
0.16149
0.161169
0.160854
0.160551
0.160269
0.160018
0.15981
0.159654
0.159557
0.159522
0.15955
0.15964
0.159791
0.159995
0.160242
0.160523
0.160826
0.161142
0.161465
0.161791
0.162117
0.162443
0.162771
0.163102
0.163437
0.163776
0.164114
0.164449
0.164771
0.165075
0.165348
0.165582
0.165766
0.165891
0.165951
0.165942
0.165864
0.165723
0.165526
0.16528
0.164998
0.164689
0.164362
0.164026
0.163687
0.16335
0.163016
0.162685
0.162358
0.162032
0.161706
0.161381
0.161059
0.160745
0.160447
0.160174
0.159937
0.159746
0.159611
0.159537
0.159525
0.159576
0.159689
0.15986
0.16008
0.16034
0.160628
0.160935
0.161252
0.161574
0.161896
0.162217
0.162539
0.162862
0.163189
0.16352
0.163855
0.16419
0.16452
0.16484
0.165139
0.165409
0.16564
0.165821
0.165945
0.166004
0.16625
0.166163
0.166006
0.165787
0.165515
0.165204
0.164864
0.164507
0.164142
0.163776
0.163415
0.163062
0.162718
0.162382
0.162052
0.161725
0.161402
0.161083
0.160772
0.160473
0.160195
0.159948
0.159741
0.159585
0.159487
0.159451
0.15948
0.159572
0.159723
0.159926
0.16017
0.160447
0.160746
0.161059
0.161382
0.161709
0.16204
0.162375
0.162718
0.163068
0.163427
0.163793
0.164163
0.164531
0.164889
0.165226
0.165532
0.165794
0.166001
0.166142
0.16621
0.1662
0.166113
0.165953
0.165731
0.165456
0.165141
0.164797
0.164436
0.164067
0.163697
0.163333
0.162976
0.162628
0.162287
0.161953
0.161623
0.161297
0.160977
0.160666
0.160372
0.160103
0.159868
0.159679
0.159542
0.159467
0.159455
0.159507
0.159621
0.159791
0.160009
0.160265
0.160549
0.160852
0.161166
0.161486
0.16181
0.162137
0.162469
0.162807
0.163154
0.163509
0.163871
0.164237
0.164601
0.164955
0.165288
0.165591
0.16585
0.166054
0.166193
0.16626
0.166516
0.16642
0.166244
0.165999
0.165697
0.165351
0.164976
0.164583
0.164184
0.163787
0.163398
0.163021
0.162657
0.162306
0.161966
0.161636
0.161312
0.160995
0.160688
0.160396
0.160125
0.159885
0.159683
0.15953
0.159433
0.159398
0.159427
0.159518
0.159667
0.159864
0.160103
0.160373
0.160666
0.160975
0.161295
0.161623
0.16196
0.162306
0.162663
0.163034
0.163418
0.163814
0.164216
0.164619
0.165012
0.165385
0.165725
0.166017
0.166248
0.166406
0.166482
0.16647
0.166372
0.166194
0.165946
0.16564
0.165291
0.164911
0.164514
0.164111
0.16371
0.163317
0.162936
0.162569
0.162214
0.161871
0.161537
0.161211
0.160894
0.160588
0.1603
0.160038
0.159809
0.159623
0.159489
0.159413
0.159401
0.159453
0.159565
0.159731
0.159944
0.160193
0.160471
0.160767
0.161077
0.161396
0.161721
0.162054
0.162396
0.162751
0.163118
0.163498
0.16389
0.164289
0.164687
0.165076
0.165445
0.165781
0.166069
0.166297
0.166453
0.166528
0.166798
0.166691
0.166497
0.166226
0.165894
0.165515
0.165105
0.164677
0.164243
0.163814
0.163396
0.162993
0.162609
0.162243
0.161893
0.161556
0.161231
0.160918
0.160616
0.160332
0.16007
0.159837
0.159643
0.159495
0.159402
0.159368
0.159396
0.159485
0.159628
0.15982
0.16005
0.160312
0.160598
0.160902
0.16122
0.16155
0.161892
0.162249
0.162623
0.163015
0.163425
0.16385
0.164286
0.164723
0.165152
0.16556
0.165933
0.166254
0.166509
0.166684
0.166768
0.166756
0.166647
0.16645
0.166176
0.16584
0.165457
0.165042
0.16461
0.164172
0.163739
0.163317
0.162911
0.162524
0.162154
0.161802
0.161463
0.161136
0.160821
0.160522
0.160242
0.159987
0.159766
0.159586
0.159456
0.159383
0.159371
0.159421
0.159529
0.15969
0.159894
0.160135
0.160404
0.160694
0.160998
0.161315
0.161643
0.161983
0.162337
0.162708
0.163097
0.163504
0.163925
0.164356
0.164789
0.165214
0.165618
0.165986
0.166303
0.166555
0.166728
0.166811
0.167097
0.16698
0.166768
0.166474
0.166113
0.165703
0.16526
0.164799
0.164333
0.163873
0.163426
0.162998
0.162593
0.16221
0.161849
0.161506
0.161179
0.160867
0.160571
0.160294
0.160041
0.159818
0.159632
0.159491
0.159402
0.159369
0.159397
0.159482
0.15962
0.159803
0.160025
0.160279
0.160557
0.160856
0.161173
0.161505
0.161855
0.162223
0.162614
0.163029
0.163465
0.163919
0.164386
0.164856
0.165319
0.16576
0.166163
0.166512
0.16679
0.16698
0.167073
0.167059
0.16694
0.166725
0.166427
0.166063
0.165648
0.1652
0.164734
0.164264
0.1638
0.163349
0.162918
0.16251
0.162125
0.161762
0.161417
0.161089
0.160777
0.160483
0.16021
0.159964
0.159752
0.159579
0.159455
0.159384
0.159372
0.15942
0.159523
0.159677
0.159873
0.160105
0.160364
0.160647
0.160947
0.161263
0.161594
0.161942
0.162308
0.162697
0.163108
0.163541
0.163992
0.164455
0.164921
0.165378
0.165814
0.166213
0.166557
0.166832
0.16702
0.167111
0.167415
0.167288
0.167061
0.166747
0.166362
0.165926
0.165454
0.164964
0.164469
0.163981
0.163508
0.163056
0.16263
0.162231
0.161858
0.161507
0.161177
0.160865
0.160574
0.160303
0.160059
0.159845
0.159667
0.159533
0.159448
0.159418
0.159444
0.159526
0.159657
0.159833
0.160047
0.160292
0.160565
0.16086
0.161176
0.161512
0.16187
0.162251
0.162659
0.163095
0.163556
0.164037
0.164532
0.165032
0.165524
0.165993
0.166422
0.166795
0.167092
0.167296
0.167396
0.16738
0.167253
0.167023
0.166704
0.166315
0.165874
0.165397
0.164902
0.164403
0.16391
0.163433
0.162979
0.16255
0.16215
0.161775
0.161423
0.161092
0.160781
0.160491
0.160226
0.159988
0.159783
0.159619
0.1595
0.159432
0.15942
0.159465
0.159564
0.15971
0.159897
0.16012
0.160372
0.160648
0.160945
0.161261
0.161597
0.161953
0.162333
0.162739
0.163172
0.16363
0.164108
0.164599
0.165093
0.16558
0.166044
0.166469
0.166836
0.16713
0.167332
0.16743
0.167752
0.167619
0.16738
0.167051
0.166648
0.166192
0.165699
0.165187
0.16467
0.164159
0.163663
0.163191
0.162746
0.162332
0.161947
0.161588
0.161252
0.16094
0.160651
0.160386
0.160149
0.159943
0.159773
0.159645
0.159565
0.159536
0.159562
0.15964
0.159765
0.159934
0.16014
0.160379
0.160647
0.16094
0.161257
0.161599
0.161965
0.162359
0.162783
0.163238
0.163719
0.164223
0.164741
0.165264
0.165778
0.166268
0.166717
0.167107
0.167418
0.167634
0.167738
0.167723
0.167588
0.167346
0.167013
0.166605
0.166144
0.165646
0.165128
0.164606
0.164091
0.163592
0.163116
0.162669
0.162254
0.161867
0.161507
0.161172
0.160861
0.160574
0.160314
0.160083
0.159886
0.159728
0.159615
0.15955
0.159538
0.159581
0.159674
0.159814
0.159993
0.160208
0.160453
0.160724
0.161019
0.161338
0.161679
0.162045
0.162438
0.16286
0.163312
0.163791
0.164291
0.164805
0.165322
0.16583
0.166315
0.166759
0.167144
0.167452
0.167665
0.167768
0.16811
0.167973
0.167728
0.16739
0.166978
0.166511
0.166007
0.165483
0.164952
0.164427
0.163917
0.16343
0.162971
0.162545
0.162149
0.161782
0.161441
0.161127
0.160839
0.160578
0.160346
0.160147
0.159984
0.159862
0.159785
0.159758
0.159783
0.159858
0.159979
0.160142
0.160342
0.160576
0.16084
0.161132
0.161452
0.161799
0.162174
0.162579
0.163015
0.163484
0.16398
0.164499
0.165031
0.165567
0.166093
0.166595
0.167054
0.167453
0.167773
0.167994
0.168102
0.168085
0.167947
0.167698
0.167357
0.16694
0.166468
0.165958
0.165428
0.164892
0.164363
0.163849
0.163359
0.162898
0.16247
0.162073
0.161706
0.161366
0.161053
0.160768
0.160512
0.160286
0.160095
0.159943
0.159834
0.159771
0.15976
0.1598
0.159889
0.160023
0.160196
0.160404
0.160644
0.160912
0.161207
0.161528
0.161875
0.16225
0.162654
0.163089
0.163555
0.164049
0.164563
0.165091
0.165621
0.166142
0.166637
0.167092
0.167486
0.167801
0.16802
0.168126
0.168489
0.168352
0.168106
0.167769
0.167359
0.166893
0.166391
0.165867
0.165336
0.164809
0.164296
0.163804
0.163339
0.162906
0.162503
0.162131
0.161787
0.161472
0.161184
0.160926
0.160699
0.160505
0.160347
0.16023
0.160156
0.160131
0.160155
0.160228
0.160345
0.160503
0.160698
0.160928
0.161189
0.161481
0.161803
0.162153
0.162534
0.162945
0.163388
0.163863
0.164365
0.164887
0.165421
0.165956
0.166482
0.166982
0.16744
0.167838
0.168157
0.168378
0.168486
0.16847
0.168331
0.168082
0.167741
0.167326
0.166855
0.166347
0.165818
0.165281
0.164749
0.164232
0.163737
0.16327
0.162835
0.162432
0.162059
0.161716
0.161403
0.161118
0.160865
0.160644
0.160458
0.16031
0.160204
0.160144
0.160133
0.160171
0.160256
0.160385
0.160552
0.160755
0.160991
0.161257
0.161551
0.161874
0.162225
0.162606
0.163016
0.163458
0.16393
0.164429
0.164946
0.165475
0.166006
0.166525
0.167019
0.167472
0.167865
0.16818
0.168399
0.168505
0.168889
0.168755
0.168518
0.168192
0.167796
0.167347
0.166862
0.166356
0.165841
0.165329
0.164827
0.164344
0.163885
0.163455
0.163054
0.162682
0.16234
0.162026
0.161742
0.161488
0.161266
0.161077
0.160925
0.160812
0.160742
0.160717
0.160741
0.160811
0.160924
0.161078
0.161268
0.161494
0.161751
0.16204
0.16236
0.162709
0.163089
0.163498
0.163938
0.164406
0.164898
0.165408
0.165928
0.166447
0.166955
0.167437
0.167879
0.168263
0.168571
0.168786
0.168891
0.168875
0.16874
0.1685
0.16817
0.167769
0.167315
0.166825
0.166313
0.165792
0.165275
0.164769
0.164282
0.163821
0.163389
0.162987
0.162615
0.162274
0.161962
0.161681
0.161432
0.161215
0.161034
0.160891
0.160789
0.16073
0.160719
0.160756
0.160837
0.160961
0.161123
0.161321
0.161552
0.161814
0.162105
0.162427
0.162777
0.163156
0.163565
0.164002
0.164468
0.164957
0.165462
0.165976
0.16649
0.166992
0.167469
0.167905
0.168285
0.168589
0.168801
0.168905
0.169308
0.169184
0.168964
0.168662
0.168295
0.16788
0.167432
0.166962
0.166484
0.166006
0.165535
0.16508
0.164644
0.164232
0.163846
0.163487
0.163155
0.162851
0.162576
0.162331
0.162117
0.161936
0.16179
0.161683
0.161616
0.161593
0.161616
0.161683
0.161792
0.161939
0.162122
0.162339
0.162588
0.162868
0.163178
0.163516
0.163883
0.164278
0.164698
0.165143
0.165607
0.166084
0.166568
0.167051
0.167522
0.167968
0.168377
0.168733
0.169019
0.169218
0.169316
0.169301
0.169175
0.168952
0.168646
0.168275
0.167855
0.167401
0.166926
0.166443
0.165959
0.165485
0.165025
0.164587
0.164173
0.163785
0.163426
0.163094
0.162792
0.16252
0.162279
0.162071
0.161897
0.16176
0.161661
0.161605
0.161594
0.161629
0.161707
0.161825
0.16198
0.162169
0.162392
0.162645
0.162927
0.163239
0.163578
0.163945
0.164338
0.164756
0.165197
0.165657
0.16613
0.166609
0.167086
0.167551
0.167993
0.168396
0.168748
0.16903
0.169227
0.169323
0.169748
0.169638
0.169444
0.16918
0.16886
0.168497
0.168105
0.167695
0.167276
0.166856
0.166442
0.166037
0.165646
0.165274
0.164921
0.164591
0.164285
0.164004
0.163749
0.163522
0.163324
0.163157
0.163023
0.162924
0.162862
0.162841
0.162863
0.162925
0.163025
0.163161
0.163331
0.163532
0.163763
0.164022
0.164309
0.164621
0.164958
0.165318
0.165699
0.166097
0.166509
0.16693
0.167355
0.167777
0.168189
0.168579
0.168936
0.169247
0.169498
0.169673
0.16976
0.169746
0.169636
0.16944
0.169172
0.168847
0.16848
0.168084
0.167669
0.167245
0.16682
0.166401
0.165992
0.165599
0.165223
0.164869
0.164538
0.164232
0.163952
0.1637
0.163477
0.163284
0.163123
0.162996
0.162905
0.162853
0.162842
0.162874
0.162946
0.163054
0.163197
0.163373
0.163578
0.163813
0.164074
0.164362
0.164675
0.165011
0.165369
0.165747
0.166141
0.166549
0.166966
0.167386
0.167804
0.16821
0.168595
0.168948
0.169255
0.169503
0.169676
0.169761
0.170205
0.170116
0.16996
0.169747
0.169489
0.169199
0.168886
0.168559
0.168225
0.167889
0.167556
0.16723
0.166912
0.166603
0.166309
0.166031
0.165773
0.165534
0.165317
0.165123
0.164954
0.164811
0.164696
0.164611
0.164558
0.16454
0.164559
0.164613
0.164699
0.164816
0.164961
0.165134
0.165331
0.165552
0.165796
0.16606
0.166343
0.166644
0.166958
0.167282
0.167615
0.167953
0.168293
0.16863
0.168959
0.169271
0.169557
0.169807
0.170009
0.170151
0.170221
0.170211
0.170121
0.169962
0.169746
0.169486
0.169192
0.168875
0.168543
0.168205
0.167865
0.167528
0.167197
0.166876
0.166564
0.166268
0.165989
0.16573
0.165493
0.165277
0.165086
0.164921
0.164783
0.164673
0.164595
0.16455
0.164541
0.164568
0.16463
0.164723
0.164845
0.164995
0.165171
0.165371
0.165594
0.165838
0.166102
0.166384
0.166683
0.166993
0.167314
0.167643
0.167977
0.168312
0.168645
0.168969
0.169277
0.16956
0.169807
0.170006
0.170147
0.170216
0.17068
0.170617
0.170508
0.17036
0.170182
0.169984
0.169771
0.16955
0.169326
0.169101
0.168877
0.168657
0.168441
0.168227
0.16802
0.167823
0.167639
0.167467
0.167311
0.167171
0.167047
0.166943
0.166859
0.166796
0.166758
0.166744
0.166758
0.166798
0.166862
0.166948
0.167055
0.16718
0.167323
0.167483
0.167658
0.167847
0.168048
0.168259
0.168478
0.168699
0.168923
0.16915
0.169379
0.169606
0.169829
0.170041
0.170238
0.170411
0.170551
0.170651
0.1707
0.170692
0.170629
0.170518
0.170368
0.170189
0.169987
0.169772
0.169547
0.16932
0.169091
0.168864
0.168641
0.168421
0.168204
0.167995
0.167797
0.167611
0.16744
0.167285
0.167146
0.167025
0.166924
0.166843
0.166786
0.166752
0.166745
0.166765
0.16681
0.166879
0.166968
0.167078
0.167206
0.16735
0.167511
0.167685
0.167873
0.168073
0.168282
0.168496
0.168714
0.168935
0.169159
0.169384
0.169608
0.169828
0.170037
0.170231
0.170401
0.17054
0.170638
0.170687
0.17117
0.171139
0.171086
0.171016
0.170934
0.170844
0.170751
0.170658
0.170565
0.170474
0.170386
0.170299
0.170212
0.170123
0.170034
0.169949
0.169869
0.169794
0.169724
0.169661
0.169605
0.169558
0.169519
0.169489
0.169471
0.169464
0.169472
0.169491
0.169521
0.169561
0.169611
0.169668
0.169733
0.169804
0.169882
0.169965
0.170053
0.170144
0.170236
0.170325
0.170414
0.170506
0.170599
0.170694
0.17079
0.170884
0.170973
0.171054
0.171121
0.171169
0.171194
0.17119
0.171159
0.171105
0.171034
0.170951
0.17086
0.170765
0.170669
0.170575
0.170482
0.170391
0.170302
0.170212
0.17012
0.17003
0.169943
0.169861
0.169785
0.169715
0.169652
0.169597
0.16955
0.169512
0.169485
0.169468
0.169465
0.169474
0.169496
0.169528
0.169569
0.169619
0.169677
0.169742
0.169813
0.169889
0.169971
0.170057
0.170146
0.170234
0.170321
0.170408
0.170497
0.170589
0.170682
0.170776
0.170868
0.170956
0.171035
0.171102
0.171149
0.171174
0.171673
0.171679
0.17169
0.171709
0.171735
0.17177
0.171812
0.171862
0.171918
0.171979
0.172044
0.172111
0.172178
0.172239
0.172298
0.172354
0.172407
0.172455
0.172499
0.172538
0.172571
0.172598
0.172619
0.172634
0.172643
0.172646
0.172644
0.172635
0.172621
0.1726
0.172573
0.172541
0.172502
0.172459
0.172411
0.172359
0.172304
0.172246
0.172185
0.172119
0.172054
0.17199
0.17193
0.171876
0.171828
0.171788
0.171756
0.171732
0.171715
0.171705
0.171701
0.171702
0.171707
0.171719
0.171737
0.171763
0.171798
0.17184
0.171889
0.171945
0.172006
0.172071
0.172137
0.172201
0.172261
0.172319
0.172373
0.172424
0.172471
0.172513
0.17255
0.172581
0.172606
0.172625
0.172638
0.172645
0.172646
0.172642
0.172631
0.172615
0.172592
0.172563
0.172528
0.172488
0.172443
0.172393
0.17234
0.172283
0.172223
0.17216
0.172094
0.172027
0.171963
0.171903
0.171848
0.1718
0.17176
0.171728
0.171703
0.171687
0.171677
0.171673
)
;

boundaryField
{
    top
    {
        type            fixedFluxPressure;
        gradient        nonuniform List<scalar> 
102
(
0.0157087
0.0168967
0.0190073
0.021895
0.0254084
0.0294027
0.0337483
0.0383346
0.0430716
0.0478906
0.0527454
0.0576186
0.0625412
0.0676519
0.0727143
0.0776171
0.0822887
0.0866712
0.0907122
0.0943616
0.0975708
0.100292
0.102481
0.104093
0.105089
0.105427
0.105076
0.104065
0.102432
0.100218
0.0974639
0.0942155
0.09052
0.0864262
0.0819852
0.077251
0.0722842
0.067162
0.0620094
0.0570365
0.0521127
0.0472129
0.0423596
0.0376046
0.0330228
0.0287108
0.0247859
0.0213841
0.0186546
0.0167504
0.015814
0.0159579
0.0171579
0.0192907
0.0222094
0.0257608
0.0297985
0.034191
0.0388263
0.0436134
0.0484834
0.0533917
0.0583272
0.0633381
0.0685016
0.0735934
0.0785068
0.0831706
0.0875266
0.0915217
0.0951057
0.0982298
0.100848
0.102915
0.104389
0.105232
0.105405
0.104891
0.103731
0.101964
0.0996323
0.096779
0.0934503
0.089694
0.085559
0.0810961
0.0763591
0.0714095
0.0663296
0.0612673
0.0563545
0.0514816
0.0466306
0.0418262
0.0371202
0.0325867
0.0283211
0.0244389
0.0210743
0.0183747
0.0164914
0.0155655
)
;
        value           nonuniform List<scalar> 
102
(
0.171935
0.171961
0.172007
0.172074
0.172159
0.17226
0.172375
0.172501
0.172636
0.172777
0.172924
0.173072
0.17322
0.173367
0.17351
0.173648
0.173778
0.1739
0.174011
0.174111
0.174197
0.17427
0.174328
0.174369
0.174395
0.174403
0.174395
0.17437
0.174328
0.17427
0.174198
0.174111
0.174011
0.173899
0.173778
0.173647
0.173509
0.173365
0.173218
0.17307
0.172922
0.172777
0.172636
0.172503
0.172379
0.172266
0.172169
0.172088
0.172026
0.171984
0.171965
0.171968
0.171993
0.17204
0.172107
0.172193
0.172294
0.17241
0.172536
0.172672
0.172814
0.17296
0.173109
0.173257
0.173403
0.173545
0.173682
0.17381
0.17393
0.174038
0.174135
0.174218
0.174287
0.17434
0.174378
0.174399
0.174403
0.17439
0.17436
0.174314
0.174252
0.174176
0.174086
0.173983
0.173869
0.173745