/*--------------------------------*- C++ -*----------------------------------*\
| =========                 |                                                 |
| \\      /  F ield         | OpenFOAM: The Open Source CFD Toolbox           |
|  \\    /   O peration     | Version:  2.3.0                                 |
|   \\  /    A nd           | Web:      www.OpenFOAM.org                      |
|    \\/     M anipulation  |                                                 |
\*---------------------------------------------------------------------------*/
FoamFile
{
    version     2.0;
    format      ascii;
    class       surfaceScalarField;
    location    "11000";
    object      phi;
}
// * * * * * * * * * * * * * * * * * * * * * * * * * * * * * * * * * * * * * //

dimensions      [0 3 -1 0 0 0 0];

internalField   nonuniform List<scalar> 
1464
(
0.308004
0.00246598
0.312918
-0.00491382
0.326931
-0.0140131
0.349951
-0.0230206
0.378038
-0.0280862
0.401113
-0.0230756
0.40198
-0.00086734
0.358586
0.043394
0.250048
0.108538
0.0716234
0.178425
-0.136112
0.207735
-0.293861
0.157749
-0.379812
0.0859514
-0.4064
0.0265871
-0.396084
-0.0103152
-0.369643
-0.0264417
-0.342259
-0.0273836
-0.321843
-0.0204164
-0.310823
-0.0110195
-0.308501
-0.00232218
-0.312893
0.00439223
-0.321903
0.0090097
-0.334143
0.0122402
-0.348979
0.0148363
-0.366424
0.0174442
-0.387082
0.0206582
-0.412141
0.0250588
-0.442958
0.0308169
-0.479348
0.0363905
-0.514901
0.035553
-0.527825
0.0129244
-0.488012
-0.0398131
-0.397366
-0.0906461
-0.272852
-0.124514
-0.125445
-0.147407
0.0264656
-0.151911
0.17776
-0.151294
0.319656
-0.141896
0.433404
-0.113748
0.509451
-0.0760468
0.527162
-0.0177115
0.502594
0.0245678
0.465517
0.0370777
0.431084
0.0344329
0.40258
0.0285036
0.379318
0.0232626
0.359926
0.0193921
0.343434
0.0164918
0.329451
0.0139826
0.318172
0.0112792
0.00770223
0.546992
-0.00566998
0.561875
-0.0197974
0.583854
-0.0359919
0.610865
-0.0500309
0.636631
-0.0538525
0.648673
-0.0351183
0.626985
0.0208214
0.54406
0.126319
0.372436
0.280162
0.105231
0.44563
-0.200676
0.513642
-0.439722
0.396795
-0.580505
0.226734
-0.64043
0.0865119
-0.648321
-0.00242388
-0.629841
-0.0449215
-0.602514
-0.0547111
-0.576584
-0.046346
-0.556734
-0.0308694
-0.544064
-0.0149922
-0.537742
-0.00193007
-0.536032
0.00729985
-0.53681
0.013018
-0.537974
0.0160008
-0.537448
0.0169179
-0.532987
0.0161971
-0.521992
0.014064
-0.50135
0.0101748
-0.46748
0.00252005
-0.416636
-0.0152903
-0.345974
-0.0577382
-0.261334
-0.124452
-0.179288
-0.172693
-0.110222
-0.19358
-0.0508448
-0.206784
0.00997807
-0.212734
0.0702946
-0.211611
0.131585
-0.203187
0.206044
-0.188206
0.291457
-0.16146
0.373051
-0.0993054
0.43688
-0.0392606
0.481422
-0.00746457
0.510195
0.0056595
0.527
0.0116993
0.535299
0.0149631
0.538021
0.0166707
0.537618
0.0168943
0.536246
0.015355
0.535954
0.0115705
0.00480073
0.578164
-0.0202293
0.595723
-0.0373565
0.615417
-0.0556862
0.634464
-0.0690777
0.647097
-0.0664856
0.643256
-0.0312772
0.607153
0.0569249
0.517057
0.216414
0.349585
0.447634
0.0979867
0.697228
-0.186952
0.798581
-0.413816
0.623659
-0.554273
0.367191
-0.624223
0.156462
-0.647616
0.020969
-0.644691
-0.0478463
-0.629091
-0.0703113
-0.609322
-0.066114
-0.590057
-0.0501347
-0.573361
-0.0316888
-0.559645
-0.0156454
-0.548319
-0.00402687
-0.537924
0.00262313
-0.526361
0.00443807
-0.510975
0.00153189
-0.488586
-0.00619189
-0.45566
-0.0188617
-0.409152
-0.0363333
-0.348409
-0.0582228
-0.278781
-0.084919
-0.215901
-0.120617
-0.170599
-0.169755
-0.130064
-0.213228
-0.0853004
-0.238343
-0.0391971
-0.252888
0.00757928
-0.25951
0.0541951
-0.258227
0.100065
-0.249057
0.143498
-0.23164
0.183233
-0.201195
0.235963
-0.152036
0.304019
-0.107317
0.371849
-0.0752948
0.427689
-0.0501802
0.469011
-0.0296224
0.49767
-0.0136963
0.517059
-0.00271808
0.530626
0.00332719
0.541363
0.00461773
0.551729
0.00120464
-0.00707486
0.517124
-0.0333651
0.529917
-0.0501493
0.540862
-0.0666313
0.547249
-0.0754649
0.544663
-0.0638989
0.526287
-0.0129013
0.48216
0.101052
0.399343
0.299231
0.263892
0.583085
0.0730029
0.888118
-0.138855
1.01044
-0.313817
0.798621
-0.431241
0.484615
-0.500088
0.225309
-0.534691
0.0555719
-0.547126
-0.0354108
-0.54624
-0.0711971
-0.537988
-0.074366
-0.526182
-0.0619408
-0.513111
-0.0447605
-0.49996
-0.0287962
-0.487049
-0.0169382
-0.47392
-0.0105057
-0.459266
-0.0102156
-0.440943
-0.0167914
-0.416056
-0.031079
-0.381293
-0.0536242
-0.334022
-0.0836048
-0.274591
-0.117654
-0.209995
-0.149515
-0.156444
-0.174169
-0.122389
-0.203809
-0.0937837
-0.241833
-0.0631146
-0.269012
-0.0295058
-0.286497
0.00564751
-0.294663
0.0404416
-0.293021
0.0730853
-0.281701
0.102531
-0.261086
0.131447
-0.23011
0.172978
-0.193567
0.232698
-0.167036
0.296926
-0.139522
0.352362
-0.105617
0.39493
-0.0721898
0.425721
-0.044488
0.447814
-0.0248111
0.464442
-0.0133003
0.478249
-0.00918912
0.491095
-0.0116414
-0.0199687
0.40918
-0.040144
0.41318
-0.0541494
0.412857
-0.0663084
0.406138
-0.0687458
0.39029
-0.0480512
0.361725
0.0156641
0.316155
0.146622
0.248993
0.366393
0.156694
0.675384
0.0421488
1.00266
-0.0792821
1.13187
-0.188263
0.907602
-0.272738
0.569089
-0.332756
0.285328
-0.372598
0.0954132
-0.396797
-0.0112118
-0.409446
-0.0585481
-0.413871
-0.069941
-0.412599
-0.0632121
-0.407542
-0.0498179
-0.400085
-0.0362533
-0.391093
-0.02593
-0.380847
-0.0207519
-0.368903
-0.0221601
-0.353974
-0.0317199
-0.333912
-0.0511408
-0.30597
-0.0815669
-0.26769
-0.121885
-0.218872
-0.166472
-0.164246
-0.204141
-0.115973
-0.222441
-0.0853173
-0.234465
-0.0635862
-0.263564
-0.0425733
-0.290025
-0.0199726
-0.309097
0.00373811
-0.318374
0.0271822
-0.316465
0.0491879
-0.303706
0.0699839
-0.281882
0.0931424
-0.253269
0.130151
-0.230576
0.182939
-0.219825
0.236628
-0.193211
0.282025
-0.151014
0.31648
-0.106645
0.34131
-0.0693189
0.359247
-0.042748
0.372893
-0.0269458
0.384108
-0.0204042
0.393881
-0.0214146
-0.0284885
0.26687
-0.0389851
0.261569
-0.0488488
0.251028
-0.0557677
0.234153
-0.0518702
0.209944
-0.0238421
0.17777
0.047838
0.138026
0.186365
0.0929567
0.411463
0.0481389
0.720202
0.0114401
1.03936
-0.0199213
1.16323
-0.060473
0.948154
-0.106859
0.615475
-0.151109
0.329577
-0.188886
0.13319
-0.218716
0.018618
-0.240586
-0.0366781
-0.255361
-0.0551661
-0.264122
-0.0544514
-0.267989
-0.04595
-0.268053
-0.0361898
-0.265282
-0.0287006
-0.2604
-0.0256338
-0.253683
-0.0288775
-0.244745
-0.0406577
-0.232389
-0.0634967
-0.214677
-0.0992795
-0.189473
-0.147088
-0.155836
-0.200109
-0.115933
-0.244044
-0.0767794
-0.261595
-0.0517104
-0.259534
-0.0371964
-0.278078
-0.0247692
-0.302452
-0.0117046
-0.322162
0.00210823
-0.332187
0.0157318
-0.330089
0.0284442
-0.316419
0.0413443
-0.294782
0.0590105
-0.270935
0.089345
-0.26091
0.129763
-0.260243
0.167786
-0.231233
0.198466
-0.181695
0.220868
-0.129047
0.236515
-0.0849653
0.247549
-0.0537826
0.255674
-0.0350702
0.261798
-0.0265287
0.266064
-0.0256808
-0.0304527
0.100967
-0.0308122
0.0884147
-0.0362967
0.0710221
-0.038375
0.0486556
-0.0295038
0.0217993
0.00301422
-0.00764681
0.0772841
-0.0356136
0.214332
-0.0542502
0.430099
-0.0510492
0.717001
-0.016007
1.00432
0.0330022
1.11422
0.0571514
0.924005
0.0510656
0.621561
0.0277172
0.352926
-0.00174649
0.162654
-0.030906
0.0477775
-0.0565532
-0.0110309
-0.07741
-0.0343092
-0.0932715
-0.03859
-0.104407
-0.0348141
-0.111366
-0.0292309
-0.114899
-0.0251677
-0.115849
-0.0246837
-0.114937
-0.0297895
-0.112484
-0.0431109
-0.108188
-0.067793
-0.101086
-0.106381
-0.0898431
-0.158331
-0.0735797
-0.216372
-0.0529748
-0.264648
-0.0312768
-0.283293
-0.0187053
-0.272106
-0.0132492
-0.283534
-0.00911059
-0.306591
-0.0044794
-0.326793
0.000727475
-0.337394
0.00578471
-0.335146
0.0101213
-0.320755
0.0145571
-0.299218
0.0229711
-0.279349
0.0392904
-0.277229
0.0602697
-0.281222
0.0789488
-0.249912
0.0932295
-0.195975
0.102909
-0.138726
0.109015
-0.0910713
0.112736
-0.0575039
0.11479
-0.0371242
0.115246
-0.0269845
0.113624
-0.0240585
-0.0259686
-0.0719136
-0.0182045
-0.0885323
-0.019678
-0.109118
-0.0177891
-0.133004
-0.00561778
-0.158289
0.0282987
-0.180829
0.099824
-0.193143
0.226646
-0.182959
0.419916
-0.134234
0.668275
-0.0385563
0.908642
0.0759422
0.999724
0.156701
0.843246
0.190676
0.587586
0.191461
0.35214
0.174409
0.179707
0.15018
0.0720058
0.12491
0.0142393
0.101863
-0.0112626
0.0824337
-0.0191603
0.0670367
-0.0194171
0.0555677
-0.017762
0.047534
-0.017134
0.0421235
-0.0192731
0.0383907
-0.0260567
0.0355395
-0.0402597
0.0330963
-0.0653498
0.0308769
-0.104162
0.0288116
-0.156266
0.0266745
-0.214235
0.0242205
-0.262194
0.0213733
-0.280446
0.0160011
-0.266733
0.0100074
-0.277541
0.00557265
-0.302156
0.00224379
-0.323464
-0.00054141
-0.334608
-0.00345988
-0.332227
-0.00716244
-0.317053
-0.0121646
-0.294215
-0.0186966
-0.272817
-0.0234174
-0.272509
-0.0265568
-0.278083
-0.0290971
-0.247372
-0.0311019
-0.19397
-0.0330045
-0.136824
-0.0350491
-0.0890266
-0.0373737
-0.0551793
-0.0402632
-0.0342347
-0.0442983
-0.0229494
-0.050339
-0.0180177
-0.0170017
-0.233232
-0.00414031
-0.251048
-0.001862
-0.272187
0.00334914
-0.295124
0.0173194
-0.316402
0.049577
-0.329646
0.113068
-0.324359
0.22136
-0.285695
0.381252
-0.197552
0.580132
-0.0554888
0.766579
0.107264
0.836971
0.233098
0.717413
0.303499
0.517184
0.329273
0.326366
0.326923
0.182057
0.310022
0.088907
0.287562
0.0366994
0.264844
0.0114551
0.244576
0.00110764
0.227855
-0.00269595
0.214868
-0.00477424
0.205206
-0.0074725
0.197966
-0.0120333
0.191929
-0.0200191
0.185864
-0.0341947
0.17858
-0.0580664
0.168694
-0.0942757
0.154502
-0.142074
0.134202
-0.193935
0.107398
-0.23539
0.076921
-0.249969
0.0513569
-0.241169
0.0337326
-0.259916
0.0206391
-0.289063
0.00915942
-0.311985
-0.00191097
-0.323538
-0.0130726
-0.321066
-0.0249376
-0.305188
-0.0395185
-0.279634
-0.0626273
-0.249708
-0.0912671
-0.243869
-0.120397
-0.248952
-0.144489
-0.22328
-0.161993
-0.176467
-0.174075
-0.124742
-0.18255
-0.0805518
-0.189008
-0.0487214
-0.194725
-0.0285183
-0.200856
-0.0168178
-0.208625
-0.0102486
-0.00645862
-0.365229
0.00907865
-0.382098
0.0150072
-0.401791
0.0230416
-0.421936
0.0374648
-0.437708
0.0653493
-0.440784
0.116143
-0.418687
0.199263
-0.355877
0.318441
-0.238433
0.462687
-0.066371
0.594518
0.126159
0.64444
0.28266
0.560912
0.381592
0.418252
0.429535
0.278423
0.441869
0.169723
0.433474
0.0973023
0.415483
0.0546902
0.394996
0.0319423
0.375937
0.0201667
0.360097
0.0131436
0.347952
0.00737079
0.339115
0.00136463
0.332439
-0.00535698
0.326223
-0.0138034
0.318676
-0.0266475
0.30789
-0.0472809
0.291451
-0.0778362
0.266496
-0.117119
0.230176
-0.157615
0.181865
-0.18708
0.127491
-0.195594
0.0848867
-0.198566
0.0589752
-0.234005
0.0375646
-0.267652
0.0169946
-0.291415
-0.00364198
-0.302901
-0.0242917
-0.300416
-0.045057
-0.284423
-0.0682265
-0.256465
-0.100301
-0.217634
-0.148084
-0.196086
-0.201664
-0.195372
-0.245917
-0.179027
-0.27777
-0.144613
-0.299204
-0.103308
-0.313163
-0.0665924
-0.322413
-0.0394716
-0.329164
-0.0217672
-0.335209
-0.0107729
-0.342305
-0.00315285
0.00324642
-0.449428
0.0200527
-0.463515
0.0290937
-0.479659
0.0391856
-0.495073
0.0528791
-0.504239
0.0745148
-0.497965
0.10987
-0.463282
0.16458
-0.38543
0.24059
-0.253347
0.330604
-0.0704015
0.411572
0.131419
0.442619
0.300708
0.391624
0.415351
0.303609
0.478121
0.215653
0.50222
0.145624
0.502305
0.0972171
0.490269
0.0667265
0.474086
0.048125
0.458306
0.0359473
0.445068
0.0263814
0.435042
0.0173968
0.42794
0.00846619
0.422502
8.1822e-05
0.416579
-0.00788116
0.407898
-0.017966
0.393973
-0.033356
0.371702
-0.055565
0.337897
-0.0833147
0.289773
-0.109491
0.227212
-0.124518
0.164014
-0.132396
0.120076
-0.154627
0.0882182
-0.202147
0.0578572
-0.237291
0.0264236
-0.259981
-0.00576948
-0.270708
-0.0378328
-0.268353
-0.0690038
-0.253252
-0.0995428
-0.225926
-0.13152
-0.185657
-0.182271
-0.145334
-0.249881
-0.127762
-0.308524
-0.120385
-0.351621
-0.101516
-0.381179
-0.0737495
-0.400194
-0.0475777
-0.411969
-0.0276959
-0.419423
-0.0143131
-0.424882
-0.00531458
-0.430585
0.0025501
0.0111159
-0.46653
0.027811
-0.475646
0.0382102
-0.485293
0.0488321
-0.493133
0.0607189
-0.494321
0.0757035
-0.480664
0.0962126
-0.440687
0.124602
-0.361754
0.161657
-0.235304
0.204155
-0.0656873
0.241955
0.120135
0.256797
0.278814
0.232945
0.390645
0.191778
0.456407
0.149891
0.486839
0.115191
0.494722
0.0893342
0.490676
0.070773
0.481823
0.0569775
0.472128
0.0456429
0.463351
0.035158
0.456016
0.0247321
0.449984
0.0144977
0.444374
0.00569242
0.437439
-0.000946305
0.427015
-0.0075417
0.410265
-0.0166066
0.383719
-0.0290189
0.345089
-0.0446844
0.295385
-0.0597877
0.240078
-0.0692107
0.193014
-0.0853321
0.159887
-0.121501
0.122558
-0.164817
0.0812926
-0.196026
0.0372611
-0.215949
-0.00812519
-0.225322
-0.0532174
-0.22326
-0.0964155
-0.210054
-0.136036
-0.186306
-0.171008
-0.150684
-0.209176
-0.107167
-0.260186
-0.0767515
-0.31413
-0.0664414
-0.360156
-0.0554901
-0.394512
-0.0393938
-0.417357
-0.0247328
-0.431603
-0.0134491
-0.440597
-0.00531999
-0.446864
0.000952793
-0.45242
0.00810589
0.0174677
-0.410476
0.0304612
-0.411148
0.0388823
-0.40965
0.0473338
-0.404983
0.0560526
-0.394562
0.0652818
-0.373564
0.0752153
-0.33487
0.0859085
-0.27033
0.0971163
-0.174194
0.108019
-0.0490656
0.116826
0.0875528
0.120179
0.205649
0.114848
0.29236
0.105067
0.348367
0.0938835
0.380812
0.0827469
0.397885
0.0722611
0.406112
0.062546
0.409602
0.0534876
0.410377
0.0448682
0.409095
0.0364398
0.405847
0.0279798
0.400852
0.0194929
0.394775
0.011769
0.38825
0.00557923
0.380628
8.03356e-05
0.369659
-0.00563798
0.352425
-0.0117845
0.326394
-0.0186535
0.293897
-0.0272913
0.263886
-0.039199
0.236699
-0.0581454
0.202492
-0.0872941
0.156936
-0.11926
0.104444
-0.143535
0.0479405
-0.159446
-0.010445
-0.166937
-0.06842
-0.165285
-0.123747
-0.154726
-0.174147
-0.135906
-0.216207
-0.108624
-0.247503
-0.0758707
-0.273815
-0.0504391
-0.305463
-0.0347938
-0.336695
-0.0242579
-0.359677
-0.0164121
-0.374548
-0.00986187
-0.384129
-0.00386806
-0.391182
0.001733
-0.397529
0.00730035
-0.403331
0.0139074
0.0219626
-0.355636
0.0187283
-0.339561
0.0228076
-0.319177
0.0269495
-0.29435
0.0312258
-0.264746
0.0356781
-0.229807
0.0402759
-0.188771
0.044873
-0.140821
0.0491663
-0.0854974
0.0526953
-0.0236207
0.0549496
0.040982
0.0555762
0.101349
0.0544818
0.154593
0.0518225
0.200463
0.0480137
0.239629
0.0435801
0.272941
0.0389496
0.301108
0.0343785
0.324622
0.0299737
0.343751
0.0257393
0.358573
0.0216185
0.36901
0.0175428
0.374939
0.0135634
0.376678
0.0100304
0.375146
0.00711126
0.370883
0.00434331
0.363736
0.00150846
0.353356
-0.00140486
0.339395
-0.00469237
0.321521
-0.00941687
0.299676
-0.0173538
0.272144
-0.0306142
0.233695
-0.0488442
0.18252
-0.0680862
0.122271
-0.0832851
0.0563332
-0.0935084
-0.012252
-0.0983514
-0.0802561
-0.0972812
-0.14452
-0.0904625
-0.201978
-0.0784479
-0.249015
-0.0615878
-0.282964
-0.0419214
-0.307963
-0.0254395
-0.328491
-0.0142658
-0.345093
-0.00765596
-0.357891
-0.0036144
-0.367229
-0.000524129
-0.373452
0.00235465
-0.376889
0.00517032
-0.37753
0.00794163
-0.374625
0.011002
0.0147063
-0.343426
-0.326124
-0.304422
-0.278126
-0.246993
-0.210801
-0.16947
-0.123235
-0.07285
-0.0197067
0.0342307
0.0867897
0.136124
0.18102
0.220886
0.255603
0.285313
0.310255
0.330664
0.346712
0.35851
0.36623
0.370362
0.371563
0.370119
0.366163
0.359889
0.351323
0.339716
0.322869
0.296656
0.256866
0.202475
0.136629
0.0632214
-0.0137371
-0.0899113
-0.161072
-0.223289
-0.272732
-0.307298
-0.329766
-0.344555
-0.355062
-0.362931
-0.368553
-0.371793
-0.372471
-0.370451
-0.365336
)
;

boundaryField
{
    top
    {
        type            calculated;
        value           nonuniform List<scalar> 
51
(
0.00570116
0.00550617
0.0052476
0.00492928
0.00454507
0.00408447
0.00354175
0.00293099
0.00231067
0.00180628
0.00163888
0.0019228
0.0024879
0.00311841
0.00371412
0.00423244
0.00466852
0.00503122
0.00533074
0.0055707
0.00574415
0.005844
0.00589843
0.00591021
0.00578735
0.00546437
0.00486918
0.00387374
0.00219019
-0.000507134
-0.00440161
-0.00905431
-0.0136943
-0.0174397
-0.0201006
-0.0213929
-0.021107
-0.0193022
-0.0162303
-0.0121451
-0.00735523
-0.00297199
0.000523192
0.00285177
0.00425428
0.00509822
0.0055941
0.00584835
0.00592164
0.0058868
0.00582329
)
;
    }
    bottom
    {
        type            calculated;
        value           uniform 0;
    }
    frontAndBack
    {
        type            empty;
        value           nonuniform 0();
    }
    left_cyc
    {
        type            cyclic;
        value           nonuniform List<scalar> 
15
(
-0.31047
-0.538856
-0.563605
-0.503989
-0.402401
-0.268029
-0.10914
0.059306
0.219168
0.35201
0.438454
0.458772
0.407826
0.367369
0.356453
)
;
    }
    right_cyc
    {
        type            cyclic;
        value           nonuniform List<scalar> 
15
(
0.31047
0.538856
0.563605
0.503989
0.402401
0.268029
0.10914
-0.059306
-0.219168
-0.35201
-0.438454
-0.458772
-0.407826
-0.367369
-0.356453
)
;
    }
}


// ************************************************************************* //
