/*--------------------------------*- C++ -*----------------------------------*\
| =========                 |                                                 |
| \\      /  F ield         | OpenFOAM: The Open Source CFD Toolbox           |
|  \\    /   O peration     | Version:  2.3.0                                 |
|   \\  /    A nd           | Web:      www.OpenFOAM.org                      |
|    \\/     M anipulation  |                                                 |
\*---------------------------------------------------------------------------*/
FoamFile
{
    version     2.0;
    format      ascii;
    class       surfaceScalarField;
    location    "11000";
    object      phi;
}
// * * * * * * * * * * * * * * * * * * * * * * * * * * * * * * * * * * * * * //

dimensions      [0 3 -1 0 0 0 0];

internalField   nonuniform List<scalar> 
5988
(
0.00364622
-0.00322235
0.00681318
-0.00316696
0.00987757
-0.00306439
0.0127948
-0.00291722
0.0155237
-0.00272891
0.0180279
-0.00250424
0.0202773
-0.0022494
0.0222487
-0.00197137
0.0239247
-0.00167599
0.0252897
-0.00136499
0.026323
-0.00103334
0.0269917
-0.000668691
0.0272456
-0.00025392
0.027019
0.000226682
0.0262413
0.000777617
0.0248629
0.00137839
0.0228826
0.00198033
0.0203564
0.00252618
0.0174212
0.00293519
0.0142921
0.00312915
0.0111823
0.0031098
0.00826592
0.00291637
0.00563456
0.00263136
0.00328178
0.00235279
0.00112553
0.00215625
-0.000956907
0.00208243
-0.00310068
0.00214377
-0.00543036
0.00232968
-0.00803248
0.00260212
-0.0109206
0.00288809
-0.0140103
0.00308972
-0.0171318
0.00312152
-0.0200724
0.0029406
-0.0226133
0.00254085
-0.0246094
0.0019961
-0.025998
0.0013886
-0.0267753
0.00077732
-0.0269891
0.000213854
-0.0267103
-0.000278805
-0.0260061
-0.00070426
-0.0249281
-0.00107797
-0.0235112
-0.00141694
-0.0217778
-0.00173333
-0.0197459
-0.00203188
-0.0174353
-0.00231068
-0.0148715
-0.00256379
-0.0120871
-0.00278434
-0.00912081
-0.00296633
-0.00601559
-0.00310522
-0.00281785
-0.00319773
0.000423581
-0.00324144
0.00365841
-0.00323483
0.00683663
-0.00317821
0.00990998
-0.00307335
0.0128328
-0.00292286
0.0155631
-0.00273031
0.0180638
-0.00250064
0.0203039
-0.00224015
0.0222597
-0.00195573
0.0239122
-0.00165255
0.0252432
-0.00133103
0.0262276
-0.000984397
0.0268265
-0.000598863
0.0269835
-0.000157009
0.0266289
0.000354586
0.0256949
0.000934021
0.0241449
0.00155002
0.0219975
0.00214733
0.0193342
0.00266339
0.0163241
0.00301007
0.0131912
0.00313293
0.0101409
0.00305029
0.00732353
0.00281734
0.00479747
0.00252606
0.00252677
0.0022707
0.000411764
0.00211501
-0.00167712
0.00208889
-0.00387403
0.00219691
-0.00629421
0.00242018
-0.00900329
0.00270908
-0.0119829
0.00297961
-0.0151172
0.00313433
-0.0182174
0.00310018
-0.0210643
0.00284691
-0.0234571
0.00239273
-0.0252828
0.00182577
-0.0265016
0.00121876
-0.0271289
0.000627298
-0.0272228
9.39299e-05
-0.0268544
-0.000368409
-0.0260861
-0.000768344
-0.0249632
-0.00112283
-0.023515
-0.00144818
-0.0217601
-0.00175492
-0.019714
-0.00204614
-0.0173952
-0.00231876
-0.0148289
-0.00256636
-0.0120468
-0.00278204
-0.00908686
-0.00295996
-0.00599112
-0.00309574
-0.00280497
-0.00318615
-0.00322884
0.00545181
-0.0080415
0.0102314
-0.00794652
0.014938
-0.00777104
0.0195415
-0.00752072
0.0240148
-0.00720222
0.0283318
-0.00682124
0.0324627
-0.00638027
0.036368
-0.00587666
0.0399935
-0.00530152
0.0432682
-0.00463964
0.0461042
-0.00386936
0.0483975
-0.002962
0.0500253
-0.00188172
0.0508414
-0.000589384
0.0506809
0.000938031
0.0493897
0.00266968
0.0468604
0.00450961
0.0430661
0.00632043
0.0381339
0.00786744
0.0323858
0.00887719
0.0262106
0.00928501
0.0199888
0.00913822
0.0139897
0.00863038
0.00831053
0.00803199
0.00289179
0.00757499
-0.00242229
0.00739652
-0.00782005
0.00754153
-0.0134621
0.00797173
-0.0194179
0.0085579
-0.0256041
0.00907429
-0.0317626
0.00924821
-0.0375163
0.00887523
-0.0424728
0.00789708
-0.0462986
0.00636665
-0.0488522
0.00454976
-0.0501537
0.00269006
-0.0503072
0.00093083
-0.049467
-0.000626298
-0.0478004
-0.00194545
-0.0454567
-0.00304793
-0.0425621
-0.00397255
-0.0392238
-0.00475531
-0.0355319
-0.00542516
-0.0315598
-0.00600405
-0.027363
-0.00650746
-0.0229824
-0.00694437
-0.0184492
-0.00731753
-0.013791
-0.00762451
-0.00903645
-0.00785981
-0.00421699
-0.00801719
0.000633156
-0.00809159
0.0054787
-0.00808038
0.0102845
-0.00798398
0.0150168
-0.00780571
0.0196451
-0.00755111
0.0241412
-0.00722643
0.0284771
-0.00683658
0.0326198
-0.00638281
0.0365249
-0.00586082
0.0401323
-0.00525991
0.0433642
-0.00456291
0.0461259
-0.00374614
0.0483058
-0.00277872
0.049772
-0.00162328
0.0503691
-0.000242456
0.049929
0.00137409
0.0483077
0.00317127
0.0454187
0.00503634
0.0412749
0.00680724
0.036073
0.00821191
0.0301745
0.00903146
0.0239759
0.00924887
0.0178319
0.00896139
0.0119571
0.00840088
0.00639032
0.00783744
0.0010319
0.00747343
-0.0042918
0.00741259
-0.00976642
0.00767152
-0.015529
0.00818281
-0.021603
0.00878299
-0.0278446
0.00922124
-0.0339472
0.00923691
-0.0395187
0.00867173
-0.0441777
0.00750593
-0.0476452
0.00586023
-0.0498438
0.00402437
-0.0508263
0.00220125
-0.0507149
0.000515856
-0.0496707
-0.00095022
-0.0478555
-0.00218362
-0.045409
-0.0032149
-0.0424486
-0.0040832
-0.0390741
-0.00482264
-0.0353691
-0.00545998
-0.0314001
-0.00601517
-0.0272171
-0.00650176
-0.0228564
-0.00692698
-0.0183465
-0.00729199
-0.0137132
-0.00759324
-0.00898437
-0.00782457
-0.00419111
-0.00797941
-0.0080526
0.00611218
-0.0134443
0.011465
-0.0132994
0.0167244
-0.0130304
0.021847
-0.0126433
0.0267896
-0.0121448
0.0315076
-0.0115392
0.0359538
-0.0108265
0.040078
-0.0100008
0.0438265
-0.00905009
0.0471444
-0.00795746
0.0499774
-0.00670239
0.0522768
-0.00526141
0.0540039
-0.00360881
0.0551318
-0.00171725
0.0556245
0.000445249
0.0553697
0.00292449
0.0541168
0.00576254
0.051552
0.0088852
0.0474485
0.011971
0.0417824
0.0145432
0.0348536
0.0162138
0.0272266
0.0167653
0.0194058
0.0164511
0.0116772
0.0157606
0.00410343
0.0151488
-0.00339585
0.0148958
-0.0109493
0.015095
-0.0186447
0.0156671
-0.0264345
0.0163478
-0.0340526
0.0166924
-0.041008
0.0162037
-0.0467303
0.0145975
-0.0508919
0.0120587
-0.0534978
0.00897252
-0.0547658
0.00581778
-0.0550107
0.00293497
-0.0544917
0.000411854
-0.0533279
-0.00179017
-0.0515565
-0.00371679
-0.049205
-0.00539947
-0.0463128
-0.00686475
-0.0429302
-0.00813789
-0.0391131
-0.00924226
-0.0349186
-0.0101986
-0.0304022
-0.0110239
-0.0256162
-0.0117304
-0.0206096
-0.0123242
-0.0154287
-0.0128053
-0.0101187
-0.0131698
-0.00472435
-0.0134116
0.00070939
-0.0135253
0.00613723
-0.0135082
0.0115139
-0.0133607
0.0167945
-0.0130863
0.0219343
-0.0126909
0.0268879
-0.0121801
0.0316085
-0.0115571
0.0360461
-0.0108204
0.0401475
-0.00996228
0.0438567
-0.00896909
0.0471165
-0.00782269
0.049872
-0.00650162
0.0520752
-0.00498193
0.0536899
-0.00323804
0.0546903
-0.0012428
0.0550265
0.00103793
0.0545443
0.00365344
0.0529557
0.00662495
0.0499576
0.00980527
0.0453774
0.0127922
0.0392856
0.0151232
0.0321013
0.0164332
0.0243989
0.0166637
0.0166179
0.0161819
0.00896217
0.0154931
0.00143434
0.0150013
-0.00607256
0.0149195
-0.0136832
0.0152822
-0.0214501
0.0159497
-0.0292577
0.0165906
-0.0367572
0.0167208
-0.0434057
0.0158854
-0.0486765
0.0139426
-0.0523649
0.0111943
-0.0545586
0.00805388
-0.0555198
0.00498555
-0.0555604
0.00224185
-0.0548952
-0.000149296
-0.0536081
-0.00223734
-0.0517281
-0.00406365
-0.0492846
-0.00565834
-0.0463195
-0.00704828
-0.0428835
-0.00825868
-0.0390312
-0.0093123
-0.0348175
-0.0102288
-0.0302953
-0.011024
-0.025514
-0.0117083
-0.02052
-0.012286
-0.0153574
-0.0127559
-0.0100693
-0.0131126
-0.00469912
-0.0133496
-0.0134612
0.0063953
-0.019097
0.0119843
-0.0188884
0.0174537
-0.0184998
0.0227481
-0.0179378
0.0278127
-0.0172094
0.0325935
-0.0163199
0.0370374
-0.0152704
0.0410932
-0.0140567
0.044713
-0.0126698
0.0478521
-0.0110966
0.0504711
-0.00932143
0.0525363
-0.00732661
0.0540199
-0.00509235
0.0548972
-0.00259454
0.055141
0.000201398
0.0547207
0.00334477
0.0536109
0.0068724
0.0517525
0.0107436
0.0488996
0.0148239
0.0445857
0.0188571
0.0385348
0.0222648
0.0309639
0.0243362
0.0225041
0.0249108
0.0137132
0.0245515
0.00486302
0.023999
-0.00397968
0.0237385
-0.012817
0.0239323
-0.0215934
0.0244435
-0.0300602
0.0248145
-0.0376829
0.024315
-0.0438191
0.0223399
-0.0482109
0.0189892
-0.0511041
0.0149519
-0.0529683
0.0108367
-0.0540679
0.00691747
-0.0544689
0.00333588
-0.0541966
0.00013962
-0.0532821
-0.00270471
-0.051753
-0.00524586
-0.0496347
-0.00751781
-0.0469557
-0.00954377
-0.0437508
-0.0113427
-0.0400612
-0.0129318
-0.0359332
-0.0143266
-0.0314171
-0.01554
-0.0265663
-0.0165812
-0.0214361
-0.0174543
-0.016083
-0.0181584
-0.010564
-0.0186888
-0.00493662
-0.019039
0.000741389
-0.0192033
0.0064118
-0.0191786
0.0120165
-0.0189654
0.0174977
-0.0185675
0.0227981
-0.0179913
0.0278608
-0.0172427
0.0326296
-0.0163259
0.0370494
-0.0152403
0.0410677
-0.0139806
0.044635
-0.0125364
0.0477063
-0.0108939
0.0502419
-0.00903727
0.0522088
-0.00694883
0.0535797
-0.0046089
0.0543292
-0.00199233
0.0544283
0.000938821
0.0538471
0.00423467
0.0525586
0.00791339
0.0504631
0.0119008
0.0472232
0.0160321
0.0423813
0.0199651
0.0358092
0.0230053
0.0279007
0.0245723
0.0193131
0.0247695
0.010507
0.0242992
0.00166742
0.0238409
-0.00717766
0.0237646
-0.0160247
0.0241292
-0.0247667
0.0246918
-0.0330583
0.0248821
-0.0402829
0.0239454
-0.0458779
0.0214804
-0.0497668
0.0178315
-0.0523192
0.0137467
-0.0539688
0.00970357
-0.0548957
0.00591245
-0.0551394
0.00248553
-0.0547268
-0.000561925
-0.0536884
-0.00327577
-0.0520501
-0.00570195
-0.0498369
-0.00787153
-0.0470781
-0.0098071
-0.0438089
-0.0115278
-0.0400705
-0.0130508
-0.0359081
-0.0143912
-0.0313709
-0.0155612
-0.0265106
-0.0165686
-0.0213804
-0.0174162
-0.0160348
-0.0181015
-0.0105287
-0.0186187
-0.00491755
-0.0189607
-0.0191213
0.00645429
-0.0248016
0.0120848
-0.0245189
0.0175766
-0.0239916
0.0228662
-0.0232274
0.0278921
-0.0222353
0.0325951
-0.021023
0.0369197
-0.019595
0.0408146
-0.0179516
0.0442338
-0.016089
0.0471367
-0.0139995
0.0494878
-0.0116726
0.0512567
-0.00909548
0.0524171
-0.00625279
0.0529475
-0.00312489
0.0528345
0.000314439
0.0520832
0.00409607
0.0507195
0.00823609
0.0487575
0.0127056
0.0461503
0.0174311
0.0427288
0.0222785
0.0380676
0.026926
0.0316661
0.0307377
0.0236336
0.0329433
0.014638
0.0335472
0.00524398
0.033393
-0.00424986
0.0332323
-0.013647
0.0333295
-0.0226665
0.0334629
-0.0307709
0.032919
-0.0372807
0.0308249
-0.0420266
0.0270858
-0.0454818
0.0224443
-0.0480948
0.017565
-0.0500485
0.0127904
-0.0513956
0.00826456
-0.0521242
0.00406444
-0.0522077
0.000223166
-0.0516401
-0.00327237
-0.0504343
-0.0064516
-0.0486126
-0.00933954
-0.0462018
-0.0119545
-0.0432337
-0.0143109
-0.039745
-0.0164205
-0.0357785
-0.0182931
-0.0313824
-0.0199361
-0.0266104
-0.0213532
-0.0215208
-0.0225439
-0.0161753
-0.0235039
-0.010638
-0.0242261
-0.00497479
-0.0247022
0.000747197
-0.0249253
0.00646035
-0.0248918
0.0120971
-0.0246021
0.0175907
-0.0240611
0.0228755
-0.0232761
0.0278881
-0.0222553
0.0325674
-0.0210052
0.0368564
-0.0195293
0.0407026
-0.0178268
0.0440592
-0.015893
0.0468852
-0.0137199
0.0491449
-0.011297
0.0508082
-0.00861206
0.0518491
-0.00564982
0.0522473
-0.0023905
0.0519935
0.00119263
0.0511003
0.00512782
0.0495953
0.0094184
0.0474779
0.0140181
0.0446705
0.0188395
0.0409348
0.0237008
0.0357546
0.0281856
0.02878
0.0315469
0.0203681
0.0331814
0.0112109
0.0334565
0.0017681
0.0332836
-0.00771938
0.0332521
-0.0170465
0.0334563
-0.0258572
0.0335024
-0.0335164
0.0325413
-0.0394415
0.0298706
-0.0437197
0.0257586
-0.0469004
0.0210121
-0.0493291
0.0161754
-0.0511333
0.0115077
-0.0523395
0.00711863
-0.0529256
0.00307167
-0.0528697
-0.000617779
-0.0521726
-0.00397287
-0.0508506
-0.00702404
-0.0489265
-0.00979561
-0.0464277
-0.0123059
-0.0433859
-0.0145696
-0.0398379
-0.0165988
-0.0358257
-0.0184034
-0.0313968
-0.0199901
-0.0266036
-0.0213618
-0.0215028
-0.022517
-0.0161542
-0.0234502
-0.0106198
-0.0241531
-0.00496353
-0.024617
-0.0248345
0.00633716
-0.0304024
0.0118568
-0.0300385
0.0172245
-0.0293593
0.0223718
-0.0283747
0.0272332
-0.0270967
0.0317473
-0.025537
0.0358576
-0.0237052
0.0395137
-0.0216077
0.0426715
-0.0192469
0.0452934
-0.0166214
0.0473476
-0.0137267
0.0488074
-0.0105553
0.0496513
-0.00709667
0.0498638
-0.0033374
0.0494398
0.000738393
0.0483914
0.00514447
0.0467489
0.00987861
0.0445477
0.0149068
0.0418153
0.0201636
0.0385415
0.0255523
0.0345654
0.0309022
0.0294535
0.0358495
0.022692
0.0397049
0.0143966
0.0418425
0.00522947
0.0425601
-0.00420218
0.042664
-0.0134001
0.0425274
-0.0217742
0.041837
-0.0286517
0.0397964
-0.033853
0.0360262
-0.0378659
0.0310987
-0.0411458
0.0257243
-0.0438722
0.0202913
-0.0460611
0.0149793
-0.0476858
0.00988935
-0.048711
0.00508963
-0.0491055
0.000617582
-0.0488562
-0.00352166
-0.0479679
-0.00733981
-0.0464565
-0.0108509
-0.0443443
-0.0140668
-0.0416589
-0.0169963
-0.0384337
-0.0196457
-0.0347083
-0.0220185
-0.0305292
-0.0241152
-0.0259494
-0.025933
-0.0210281
-0.0274652
-0.0158295
-0.0287025
-0.0104221
-0.0296335
-0.004877
-0.0302473
0.000732554
-0.0305349
0.00633242
-0.0304916
0.0118486
-0.0301183
0.0172083
-0.0294208
0.022341
-0.0284088
0.0271792
-0.0270935
0.0316599
-0.0254859
0.0357254
-0.0235948
0.0393244
-0.0214258
0.0424122
-0.0189808
0.044951
-0.0162586
0.0469088
-0.0132549
0.0482593
-0.00996263
0.0489818
-0.00637232
0.0490628
-0.00247148
0.0485014
0.00175402
0.047316
0.00631328
0.0455405
0.0111939
0.0432091
0.0163495
0.0403436
0.021705
0.0368997
0.0271447
0.0326318
0.0324535
0.0270209
0.0371578
0.0197032
0.0404991
0.0110463
0.0421133
0.00173775
0.0425922
-0.00767371
0.0426635
-0.0166794
0.042462
-0.0246274
0.0414505
-0.0309351
0.0388489
-0.0356922
0.0346277
-0.0394546
0.029521
-0.04258
0.0241375
-0.0451753
0.0187707
-0.0472334
0.0135658
-0.0487239
0.0086092
-0.0496112
0.00395893
-0.0498689
-0.000360123
-0.04949
-0.00435174
-0.048483
-0.00803101
-0.0468652
-0.0114134
-0.0446596
-0.0145116
-0.041894
-0.0173352
-0.0386017
-0.0198911
-0.0348221
-0.022183
-0.0306009
-0.0242113
-0.0259901
-0.0259725
-0.0210477
-0.0274594
-0.0158361
-0.0286617
-0.0104218
-0.0295674
-0.004874
-0.0301648
-0.0304448
0.00607582
-0.0357721
0.01136
-0.0353227
0.0164847
-0.034484
0.0213787
-0.0332687
0.0259749
-0.0316929
0.0302114
-0.0297735
0.0340325
-0.0275263
0.0373894
-0.0249646
0.0402406
-0.022098
0.0425515
-0.0189323
0.0442942
-0.0154694
0.0454467
-0.0117078
0.0459932
-0.00764311
0.0459249
-0.00326913
0.0452436
0.00141967
0.0439651
0.00642301
0.042119
0.0117247
0.039742
0.0172837
0.0368722
0.0230333
0.0335427
0.0288818
0.0297448
0.0347001
0.0253135
0.0402808
0.019818
0.0452004
0.012878
0.0487825
0.00476113
0.0506769
-0.00379152
0.0512166
-0.0119677
0.0507036
-0.0190116
0.0488809
-0.024599
0.0453838
-0.0290723
0.0404996
-0.0328799
0.0349063
-0.036207
0.0290514
-0.0390686
0.0231529
-0.0414327
0.0173435
-0.0432611
0.0117177
-0.0445166
0.0063451
-0.0451687
0.00126975
-0.0452012
-0.00348923
-0.0446119
-0.00792907
-0.0434098
-0.012053
-0.0416114
-0.0158652
-0.0392399
-0.0193679
-0.0363246
-0.022561
-0.0329021
-0.025441
-0.0290163
-0.028001
-0.0247186
-0.0302306
-0.0200676
-0.0321162
-0.0151283
-0.0336419
-0.00997055
-0.0347912
-0.0046685
-0.0355493
0.000701258
-0.0359046
0.00606083
-0.0358512
0.0113325
-0.03539
0.0164403
-0.0345286
0.0213109
-0.0332795
0.0258757
-0.0316583
0.0300713
-0.0296815
0.0338408
-0.0273643
0.0371349
-0.0247198
0.0399114
-0.0217574
0.0421359
-0.0184831
0.0437806
-0.0148995
0.044824
-0.011006
0.0452513
-0.00679969
0.0450563
-0.00227643
0.0442442
0.00256607
0.0428357
0.00772187
0.0408635
0.013166
0.0383657
0.0188474
0.0353802
0.0246905
0.0319326
0.0305923
0.02798
0.0364061
0.0232668
0.0418709
0.0173084
0.0464575
0.00991063
0.0495111
0.00155802
0.0509448
-0.00695891
0.0511804
-0.0148298
0.0503329
-0.0213882
0.0480088
-0.0265534
0.0440142
-0.0307877
0.038862
-0.0344568
0.0331901
-0.037668
0.0273487
-0.0404125
0.0215152
-0.0426542
0.0158075
-0.0443552
0.0103102
-0.0454797
0.00508348
-0.0460014
0.000161506
-0.0459083
-0.00444477
-0.045202
-0.00873734
-0.0438931
-0.0127223
-0.0419992
-0.0164055
-0.0395439
-0.0197906
-0.0365566
-0.0228783
-0.0330738
-0.0256658
-0.0291388
-0.0281462
-0.0248024
-0.0303089
-0.0201219
-0.0321399
-0.0151608
-0.0336229
-0.00998728
-0.0347409
-0.00467346
-0.0354786
-0.0358244
0.00569734
-0.0408071
0.0106452
-0.0402705
0.0154306
-0.0392695
0.0199821
-0.0378202
0.0242326
-0.0359434
0.0281213
-0.0336622
0.0315945
-0.0309995
0.034606
-0.0279761
0.0371175
-0.0246096
0.0390985
-0.0209133
0.0405253
-0.0168963
0.0413814
-0.0125639
0.0416568
-0.00791848
0.0413492
-0.00296155
0.0404659
0.00230299
0.0390254
0.00786349
0.0370572
0.0136929
0.0345978
0.0197431
0.0316876
0.0259435
0.0283684
0.032201
0.0246724
0.0383961
0.0205848
0.0443684
0.0159388
0.0498464
0.0103994
0.0543219
0.00389176
0.0571846
-0.00305961
0.058168
-0.00962728
0.0572713
-0.0152423
0.0544959
-0.0199325
0.0500741
-0.0240334
0.0446005
-0.0277299
0.0386028
-0.0310442
0.0323656
-0.0339453
0.026054
-0.0363917
0.0197898
-0.0383423
0.0136683
-0.0397601
0.00776293
-0.0406151
0.00212478
-0.0408882
-0.0032161
-0.040572
-0.00824526
-0.039669
-0.0129561
-0.0381896
-0.0173446
-0.0361516
-0.0214058
-0.0335801
-0.0251325
-0.0305076
-0.0285135
-0.0269748
-0.0315339
-0.0230304
-0.0341751
-0.018731
-0.0364155
-0.0141406
-0.0382323
-0.00932894
-0.0396029
-0.00437066
-0.0405076
0.000656523
-0.0409318
0.00567334
-0.040868
0.0106008
-0.0403174
0.0153617
-0.0392895
0.0198827
-0.0378005
0.0240953
-0.0358709
0.0279375
-0.0335236
0.0313545
-0.0307814
0.0342998
-0.0276651
0.0367349
-0.0241925
0.0386291
-0.0203774
0.0399595
-0.0162299
0.04071
-0.0117566
0.0408722
-0.00696187
0.0404459
-0.00185016
0.0394415
0.00357045
0.0378812
0.00928218
0.0357973
0.0152499
0.033228
0.0214167
0.030215
0.0277035
0.0267987
0.0340086
0.0230027
0.0402021
0.0187751
0.0460985
0.0138741
0.0513585
0.0079877
0.0553975
0.00124501
0.0576875
-0.00566736
0.0580928
-0.0119491
0.0566146
-0.0172258
0.0532856
-0.0216967
0.048485
-0.0256744
0.0428397
-0.0292737
0.0367894
-0.0324897
0.0305647
-0.035286
0.0243115
-0.0376206
0.0181422
-0.039454
0.0121436
-0.0407511
0.00638052
-0.0414849
0.000895343
-0.0416401
-0.00428958
-0.0412121
-0.00916534
-0.0402053
-0.0137291
-0.0386314
-0.0179793
-0.0365089
-0.0219131
-0.0338632
-0.0255241
-0.0307267
-0.0288023
-0.0271399
-0.0317331
-0.0231509
-0.034298
-0.0188154
-0.0364754
-0.0141959
-0.0382423
-0.00936078
-0.039576
-0.00438275
-0.0404567
-0.0408695
0.005224
-0.0454235
0.00975391
-0.0448004
0.0141229
-0.0436385
0.0182605
-0.0419578
0.0221017
-0.0397846
0.025588
-0.0371485
0.0286687
-0.0340802
0.0313012
-0.0306087
0.0334515
-0.0267598
0.0350932
-0.022555
0.0362081
-0.0180112
0.0367851
-0.0131408
0.0368202
-0.00795361
0.0363173
-0.00245866
0.0352888
0.00333153
0.0337564
0.00939588
0.0317508
0.0156985
0.0293095
0.0221845
0.026475
0.0287779
0.0232945
0.0353816
0.0198166
0.0418741
0.0160829
0.048102
0.0120888
0.0538405
0.00772042
0.0586903
0.00287718
0.0620278
-0.00221584
0.063261
-0.00709059
0.0621461
-0.0114888
0.0588941
-0.0154934
0.0540786
-0.0192264
0.0483336
-0.0226996
0.042076
-0.0258728
0.0355388
-0.0286969
0.0288781
-0.0311245
0.0222174
-0.0331125
0.0156562
-0.0346227
0.00927314
-0.035624
0.00312608
-0.0360941
-0.00274595
-0.0360206
-0.00831879
-0.0353997
-0.0135769
-0.034236
-0.0185083
-0.0325415
-0.0231003
-0.0303361
-0.0273379
-0.0276478
-0.0312018
-0.024513
-0.0346687
-0.020977
-0.0377111
-0.0170932
-0.0402993
-0.0129231
-0.0424024
-0.00853454
-0.0439914
-0.00400091
-0.0450412
0.000600977
-0.0455337
0.00519259
-0.0454596
0.00969565
-0.0448205
0.0140341
-0.0436279
0.0181358
-0.0419022
0.0219345
-0.0396695
0.0253706
-0.0369598
0.0283929
-0.0338037
0.0309583
-0.0302306
0.0330327
-0.0262669
0.0345902
-0.0219349
0.0356131
-0.0172527
0.0360911
-0.0122346
0.036022
-0.00689275
0.0354116
-0.00123974
0.0342748
0.00470719
0.0326365
0.0109205
0.0305298
0.0173567
0.0279941
0.0239523
0.025074
0.0306236
0.0218177
0.0372649
0.0182736
0.0437461
0.0144747
0.0498975
0.0103831
0.05545
0.00585813
0.0599225
0.000885859
0.0626598
-0.0041843
0.063163
-0.00890831
0.0613386
-0.0131627
0.05754
-0.0170826
0.052405
-0.020752
0.0465091
-0.0241569
0.0401942
-0.0272515
0.0336593
-0.0299875
0.0270475
-0.0323187
0.0204734
-0.0342038
0.0140286
-0.0356069
0.00778361
-0.0364995
0.00178795
-0.0368623
-0.00392675
-0.0366853
-0.00934231
-0.0359668
-0.0144476
-0.0347126
-0.0192336
-0.0329356
-0.0236901
-0.0306561
-0.0278035
-0.0279025
-0.0315559
-0.0247111
-0.0349245
-0.0211266
-0.0378824
-0.0172019
-0.0404002
-0.0129971
-0.0424471
-0.00857891
-0.0439942
-0.00401901
-0.0450166
-0.0454961
0.00467395
-0.0495537
0.00872027
-0.0488468
0.0126109
-0.0475291
0.0162782
-0.0456251
0.0196604
-0.0431667
0.0227027
-0.0401908
0.0253584
-0.0367359
0.0275894
-0.0328397
0.0293662
-0.0285366
0.0306678
-0.0238566
0.0314812
-0.0188246
0.0318011
-0.0134608
0.0316297
-0.00778217
0.0309765
-0.00180555
0.0298593
0.00444877
0.0283037
0.0109515
0.0263432
0.017659
0.0240179
0.0245098
0.0213743
0.0314216
0.0184654
0.0382905
0.0153519
0.0449875
0.0121028
0.0513511
0.00878437
0.0571589
0.00542254
0.0620521
0.00199083
0.0654595
-0.00148796
0.0667398
-0.00492267
0.0655808
-0.00828149
0.0622529
-0.011591
0.0573881
-0.0148301
0.0515726
-0.0179336
0.0451795
-0.0208318
0.038437
-0.0234631
0.0315094
-0.0257735
0.0245279
-0.0277161
0.0175988
-0.0292499
0.010807
-0.0303411
0.00421725
-0.0309634
-0.00212361
-0.0310992
-0.00818301
-0.0307389
-0.0139373
-0.0298809
-0.0193663
-0.0285313
-0.0244499
-0.0267046
-0.0291646
-0.0244235
-0.0334829
-0.0217197
-0.0373725
-0.0186338
-0.040797
-0.0152153
-0.0437178
-0.0115217
-0.0460961
-0.00761763
-0.0478954
-0.00357345
-0.0490854
0.000536754
-0.0496439
0.00463702
-0.0495599
0.00865166
-0.0488351
0.0125074
-0.0474836
0.0161352
-0.04553
0.0194722
-0.0430065
0.0224628
-0.0399504
0.0250598
-0.0364007
0.027225
-0.0323957
0.028929
-0.0279709
0.0301513
-0.0231572
0.0308796
-0.0179811
0.03111
-0.0124649
0.0308459
-0.0066287
0.0300991
-0.000492959
0.0288895
0.0059168
0.0272454
0.0125647
0.0252025
0.0193995
0.0228034
0.0263514
0.0200969
0.0333301
0.0171387
0.0402232
0.0139928
0.046892
0.01073
0.0531603
0.00740839
0.0587716
0.00403217
0.0632988
0.000578578
0.0661134
-0.0028958
0.0666373
-0.00630714
0.06475
-0.00965617
0.060889
-0.0129614
0.0557102
-0.016182
0.0497297
-0.0192483
0.0432606
-0.0220934
0.0365044
-0.0246586
0.0296127
-0.0268926
0.0227074
-0.0287507
0.0158868
-0.0301945
0.00922736
-0.0311924
0.00278582
-0.0317207
-0.0033984
-0.0317641
-0.00929892
-0.0313148
-0.0148968
-0.0303728
-0.0201757
-0.0289451
-0.0251177
-0.027047
-0.0297017
-0.0247015
-0.0339013
-0.0219405
-0.0376855
-0.0188043
-0.0410186
-0.0153418
-0.0438627
-0.0116097
-0.0461792
-0.00767156
-0.0479324
-0.00359619
-0.0490919
-0.049636
0.00406185
-0.0531428
0.00757167
-0.0523566
0.0109346
-0.050892
0.0140872
-0.0487777
0.0169722
-0.0460517
0.0195396
-0.0427582
0.0217477
-0.038944
0.0235635
-0.0346555
0.0249627
-0.0299358
0.0259298
-0.0248237
0.0264572
-0.0193521
0.0265455
-0.0135491
0.0262027
-0.00743934
0.0254441
-0.00104689
0.0242923
0.00560053
0.0227775
0.0124662
0.0209369
0.0194996
0.0188142
0.0266325
0.01646
0.0337758
0.0139331
0.0408175
0.0113021
0.0476185
0.00864821
0.054005
0.00606146
0.0597457
0.00361332
0.0645003
0.00130657
0.0677663
-0.000937525
0.0689839
-0.00323236
0.0678756
-0.00566132
0.0646819
-0.0082283
0.0599551
-0.0108649
0.0542093
-0.0134807
0.0477953
-0.0159932
0.0409495
-0.0183325
0.0338487
-0.020439
0.0266343
-0.0222611
0.0194209
-0.0237545
0.0123004
-0.0248816
0.0053443
-0.0256117
-0.00139351
-0.0259219
-0.00787277
-0.0257971
-0.0140621
-0.0252296
-0.0199338
-0.0242198
-0.0254596
-0.0227763
-0.030608
-0.0209165
-0.0353427
-0.0186665
-0.0396225
-0.0160617
-0.0434018
-0.0131464
-0.0466331
-0.00997341
-0.0492691
-0.00660255
-0.0512663
-0.00309963
-0.0525883
0.000465564
-0.0532091
0.00402138
-0.0531157
0.00749645
-0.0523102
0.0108218
-0.050809
0.0139331
-0.0486413
0.0167721
-0.0458455
0.0192882
-0.0424665
0.0214395
-0.0385519
0.0231928
-0.0341491
0.0245244
-0.0293024
0.0254192
-0.024052
0.0258709
-0.0184327
0.0258811
-0.0124752
0.0254595
-0.00620708
0.0246233
0.000343265
0.0233973
0.00714272
0.0218142
0.0141478
0.0199132
0.0213004
0.0177407
0.028524
0.01535
0.0357208
0.0128033
0.0427699
0.0101736
0.0495217
0.00754656
0.0557873
0.00501119
0.0613069
0.00262142
0.0656885
0.00035021
0.0683846
-0.00189958
0.0688871
-0.00423841
0.0670888
-0.00672662
0.0633772
-0.00933936
0.058323
-0.0119958
0.0523861
-0.0146069
0.0458717
-0.0170948
0.0389923
-0.0193937
0.0319116
-0.0214472
0.0247609
-0.0232064
0.017646
-0.0246295
0.0106504
-0.0256809
0.00383728
-0.0263326
-0.00274674
-0.0265637
-0.00906783
-0.0263608
-0.0150997
-0.0257179
-0.0208185
-0.0246367
-0.026199
-0.0231265
-0.0312119
-0.0212052
-0.0358226
-0.0188994
-0.0399913
-0.0162444
-0.0436736
-0.0132841
-0.0468229
-0.0100706
-0.0493927
-0.00666287
-0.0513401
-0.00312559
-0.0526292
-0.0532344
0.00339945
-0.0561464
0.00633012
-0.0552873
0.00912584
-0.0536877
0.011729
-0.0513808
0.0140879
-0.0484106
0.0161583
-0.0448287
0.0179043
-0.04069
0.0192985
-0.0360496
0.0203221
-0.0309595
0.0209652
-0.0254667
0.0212258
-0.0196127
0.0211101
-0.0134333
0.0206312
-0.00696049
0.0198098
-0.000225527
0.0186735
0.00673689
0.0172564
0.0138833
0.0155993
0.0211567
0.0137492
0.0284826
0.0117597
0.0357653
0.00969237
0.0428848
0.00761803
0.0496929
0.00561767
0.0560053
0.00377776
0.0615856
0.00216525
0.0661128
0.000772868
0.0691587
-0.000519852
0.0702766
-0.0018957
0.0692515
-0.00348337
0.0662696
-0.00529823
0.0617699
-0.00727645
0.0561875
-0.00933133
0.0498502
-0.0113808
0.042999
-0.013353
0.0358209
-0.0151855
0.0284668
-0.0168237
0.0210591
-0.01822
0.0136968
-0.0193332
0.00645748
-0.0201285
-0.000598204
-0.0205782
-0.0074231
-0.0206617
-0.0139786
-0.0203659
-0.0202296
-0.0196857
-0.0261399
-0.0186238
-0.0316699
-0.0171919
-0.0367746
-0.0154105
-0.0414039
-0.0133089
-0.0455033
-0.0109258
-0.0490163
-0.00830765
-0.0518872
-0.00550862
-0.0540653
-0.00258851
-0.0555084
0.000388768
-0.0561864
0.00335744
-0.0560844
0.00625199
-0.0552047
0.00900939
-0.0535664
0.0115711
-0.051203
0.013885
-0.0481594
0.0159064
-0.0444879
0.0175991
-0.0402447
0.018936
-0.035486
0.019899
-0.0302654
0.0204789
-0.0246318
0.0206748
-0.0186287
0.0204942
-0.0122945
0.0199521
-0.00566494
0.0190708
0.00122449
0.0178802
0.0083334
0.0164165
0.0156115
0.0147227
0.0229942
0.0128482
0.0303984
0.0108495
0.0377196
0.00879124
0.0448281
0.00674812
0.0515649
0.00480445
0.057731
0.00304493
0.0630665
0.00151872
0.0672148
0.000181084
0.0697222
-0.00112065
0.0701889
-0.0025635
0.0685317
-0.00423888
0.0650526
-0.00612874
0.0602128
-0.00815676
0.0544141
-0.0102367
0.0479516
-0.01229
0.0410457
-0.0142487
0.0338702
-0.0160532
0.0265654
-0.0176517
0.0192446
-0.0189989
0.0119976
-0.0200559
0.0048942
-0.0207899
-0.00201269
-0.0211754
-0.00868237
-0.0211936
-0.0150815
-0.020833
-0.0211791
-0.0200897
-0.0269423
-0.0189677
-0.0323339
-0.0174792
-0.0373111
-0.0156452
-0.0418253
-0.0134953
-0.0458235
-0.0110678
-0.0492504
-0.00840901
-0.0520515
-0.00557215
-0.0541769
-0.00261624
-0.0555851
-0.0562465
0.00269617
-0.0585284
0.00501325
-0.0576043
0.00721042
-0.0558849
0.00923701
-0.0534074
0.0110482
-0.0502219
0.0126065
-0.046387
0.0138821
-0.0419656
0.0148537
-0.0370212
0.0155085
-0.0316142
0.0158419
-0.0258001
0.0158572
-0.0196281
0.0155655
-0.0131416
0.014985
-0.00638001
0.0141408
0.000618725
0.0130643
0.00781336
0.0117932
0.0151544
0.0103708
0.0225791
0.00884578
0.0300076
0.00727262
0.0373384
0.00571189
0.0444455
0.00423038
0.0511744
0.00289969
0.057336
0.00178894
0.0626963
0.000941333
0.0669604
0.000328527
0.0697715
-0.000181558
0.0707867
-0.000778007
0.0698479
-0.00160038
0.0670919
-0.00268447
0.062854
-0.00399043
0.0574934
-0.00544966
0.0513094
-0.00699004
0.0445393
-0.00854404
0.0373749
-0.0100504
0.0299731
-0.0114539
0.0224626
-0.0127051
0.014948
-0.0137603
0.00751265
-0.0145813
0.000222833
-0.0151364
-0.00686803
-0.0154004
-0.0137146
-0.0153553
-0.0202746
-0.0149908
-0.0265045
-0.0143042
-0.0323564
-0.0133014
-0.0377774
-0.011997
-0.0427084
-0.010414
-0.0470863
-0.00858436
-0.0508459
-0.00654778
-0.0539238
-0.00435121
-0.0562619
-0.00204728
-0.0578124
0.000307449
-0.0585411
0.00265452
-0.0584315
0.00493578
-0.057486
0.00709549
-0.0557261
0.00908235
-0.0531899
0.0108512
-0.0499282
0.0123642
-0.0460009
0.0135918
-0.0414723
0.0145131
-0.0364073
0.0151159
-0.0308682
0.0153965
-0.0249124
0.0153596
-0.0185918
0.0150176
-0.0119526
0.0143905
-0.00503778
0.013505
0.00210993
0.0123948
0.00944361
0.0110994
0.0169069
0.00966414
0.0244295
0.00813984
0.0319227
0.00658328
0.0392761
0.00505739
0.046354
0.00363121
0.052991
0.00237718
0.058985
0.00135981
0.0640838
0.000604153
0.0679704
4.74706e-05
0.0702789
-0.00047179
0.0707081
-0.00113742
0.0691973
-0.00205493
0.0659701
-0.00322905
0.061387
-0.00460618
0.0557913
-0.00611518
0.0494606
-0.00768534
0.0426159
-0.00925148
0.0354363
-0.0107547
0.0280686
-0.012142
0.0206319
-0.013366
0.0132217
-0.0143851
0.00591326
-0.0151631
-0.00123473
-0.01567
-0.00817539
-0.0158828
-0.0148688
-0.0157849
-0.021277
-0.0153673
-0.0273598
-0.0146287
-0.0330725
-0.0135759
-0.0383639
-0.0122238
-0.0431774
-0.0105961
-0.0474513
-0.0087245
-0.051122
-0.00664861
-0.0541274
-0.00441491
-0.0564106
-0.00207538
-0.0579246
-0.058636
0.00195968
-0.0602595
0.0036354
-0.0592801
0.00520917
-0.0574587
0.00663844
-0.0548367
0.00788628
-0.0514697
0.00892249
-0.0474232
0.00972428
-0.0427674
0.0102767
-0.0375736
0.0105726
-0.0319102
0.0106128
-0.0258403
0.0104055
-0.0194207
0.00996589
-0.0127021
0.00931631
-0.00573043
0.00848525
0.00144978
0.00750714
0.00879146
0.00642164
0.0162399
0.00527307
0.0237277
0.00411003
0.0311707
0.00298505
0.0384634
0.00195414
0.0454764
0.00107544
0.0520531
0.000405898
0.0580056
-7.66583e-06
0.0631099
-0.000148977
0.0671017
-6.55384e-05
0.0696881
0.000112207
0.070609
0.00021018
0.0697499
9.22359e-05
0.0672099
-0.000295244
0.0632415
-0.000939358
0.0581376
-0.00179442
0.0521645
-0.0028036
0.0455485
-0.0039084
0.0384797
-0.00505239
0.0311171
-0.00618245
0.0235927
-0.00724947
0.016015
-0.00820859
0.00847176
-0.0090197
0.00103395
-0.00964806
-0.00623967
-0.010065
-0.0132977
-0.0102485
-0.0200911