/*--------------------------------*- C++ -*----------------------------------*\
| =========                 |                                                 |
| \\      /  F ield         | OpenFOAM: The Open Source CFD Toolbox           |
|  \\    /   O peration     | Version:  2.3.0                                 |
|   \\  /    A nd           | Web:      www.OpenFOAM.org                      |
|    \\/     M anipulation  |                                                 |
\*---------------------------------------------------------------------------*/
FoamFile
{
    version     2.0;
    format      ascii;
    class       surfaceScalarField;
    location    "11000";
    object      phi;
}
// * * * * * * * * * * * * * * * * * * * * * * * * * * * * * * * * * * * * * //

dimensions      [0 3 -1 0 0 0 0];

internalField   nonuniform List<scalar> 
5988
(
3.59151e-08
-3.17552e-08
6.71295e-08
-3.12143e-08
9.73463e-08
-3.02168e-08
1.26141e-07
-2.8795e-08
1.53132e-07
-2.6991e-08
1.77987e-07
-2.48547e-08
2.00427e-07
-2.244e-08
2.20224e-07
-1.97974e-08
2.37184e-07
-1.69598e-08
2.51106e-07
-1.39219e-08
2.61729e-07
-1.06235e-08
2.68675e-07
-6.9459e-09
2.71408e-07
-2.73311e-09
2.69254e-07
2.15421e-09
2.61516e-07
7.73807e-09
2.47729e-07
1.37869e-08
2.27945e-07
1.97847e-08
2.02862e-07
2.50829e-08
1.73936e-07
2.89254e-08
1.43171e-07
3.07656e-08
1.1253e-07
3.06406e-08
8.36363e-08
2.88939e-08
5.73466e-08
2.62896e-08
3.36201e-08
2.37266e-08
1.17159e-08
2.19042e-08
-9.49117e-09
2.12071e-08
-3.12485e-08
2.17574e-08
-5.47043e-08
2.34558e-08
-8.06528e-08
2.59485e-08
-1.09219e-07
2.85666e-08
-1.39634e-07
3.04149e-08
-1.70329e-07
3.06945e-08
-1.99345e-07
2.90165e-08
-2.24649e-07
2.53034e-08
-2.44697e-07
2.00487e-08
-2.58703e-07
1.40057e-08
-2.66547e-07
7.84444e-09
-2.68665e-07
2.11799e-09
-2.65755e-07
-2.91024e-09
-2.58507e-07
-7.24792e-09
-2.47478e-07
-1.10297e-08
-2.33067e-07
-1.44102e-08
-2.1556e-07
-1.75071e-08
-1.95181e-07
-2.03796e-08
-1.72148e-07
-2.30323e-08
-1.46716e-07
-2.54325e-08
-1.19185e-07
-2.75306e-08
-8.9911e-08
-2.92743e-08
-5.92955e-08
-3.06155e-08
-2.77811e-08
-3.15144e-08
4.1596e-09
-3.19407e-08
3.60361e-08
-3.18765e-08
6.73612e-08
-3.13251e-08
9.76692e-08
-3.0308e-08
1.26527e-07
-2.8858e-08
1.53545e-07
-2.70174e-08
1.7838e-07
-2.48356e-08
2.00746e-07
-2.23654e-08
2.20399e-07
-1.96534e-08
2.37124e-07
-1.67248e-08
2.50686e-07
-1.35622e-08
2.60776e-07
-1.00904e-08
2.66955e-07
-6.17907e-09
2.68627e-07
-1.67134e-09
2.6508e-07
3.54637e-09
2.55657e-07
9.42335e-09
2.40041e-07
1.56161e-08
2.18517e-07
2.15234e-08
1.92069e-07
2.64489e-08
1.62413e-07
2.96553e-08
1.3161e-07
3.08036e-08
1.01553e-07
3.00562e-08
7.36325e-08
2.7921e-08
4.83775e-08
2.5255e-08
2.54594e-08
2.29181e-08
3.96266e-09
2.14968e-08
-1.73078e-08
2.12705e-08
-3.9589e-08
2.22812e-08
-6.3935e-08
2.4346e-08
-9.09341e-08
2.69991e-08
-1.20401e-07
2.94673e-08
-1.51254e-07
3.08531e-08
-1.81739e-07
3.04849e-08
-2.09844e-07
2.81049e-08
-2.33656e-07
2.38115e-08
-2.51917e-07
1.82609e-08
-2.64107e-07
1.219e-08
-2.7033e-07
6.22336e-09
-2.7114e-07
8.10021e-10
-2.67247e-07
-3.89284e-09
-2.59296e-07
-7.95075e-09
-2.47781e-07
-1.15155e-08
-2.33044e-07
-1.47368e-08
-2.15325e-07
-1.77192e-08
-1.94818e-07
-2.05074e-08
-1.71723e-07
-2.30947e-08
-1.46281e-07
-2.54419e-08
-1.18785e-07
-2.74965e-08
-8.95793e-08
-2.92052e-08
-5.90594e-08
-3.05199e-08
-2.76585e-08
-3.14009e-08
-3.18184e-08
5.42369e-08
-7.97212e-08
1.01822e-07
-7.87994e-08
1.48704e-07
-7.70991e-08
1.94589e-07
-7.46801e-08
2.39209e-07
-7.16105e-08
2.823e-07
-6.79454e-08
3.23562e-07
-6.3702e-08
3.62605e-07
-5.88404e-08
3.98899e-07
-5.32538e-08
4.31746e-07
-4.67694e-08
4.60273e-07
-3.91505e-08
4.83423e-07
-3.00958e-08
4.99938e-07
-1.92479e-08
5.08329e-07
-6.23662e-09
5.06919e-07
9.14802e-09
4.941e-07
2.6606e-08
4.68753e-07
4.51316e-08
4.30708e-07
6.31274e-08
3.81396e-07
7.82375e-08
3.24037e-07
8.81245e-08
2.62517e-07
9.21612e-08
2.00541e-07
9.08692e-08
1.40701e-07
8.61305e-08
8.39193e-08
8.05078e-08
2.9633e-08
7.61905e-08
-2.36358e-08
7.44759e-08
-7.76745e-08
7.57961e-08
-1.34018e-07
7.97996e-08
-1.93355e-07
8.52854e-08
-2.5493e-07
9.01412e-08
-3.163e-07
9.17854e-08
-3.73817e-07
8.82112e-08
-4.23556e-07
7.87558e-08
-4.62161e-07
6.39083e-08
-4.88018e-07
4.59058e-08
-5.01185e-07
2.71721e-08
-5.02729e-07
9.38835e-09
-4.94254e-07
-6.35704e-09
-4.77466e-07
-1.96983e-08
-4.53893e-07
-3.08208e-08
-4.24833e-07
-4.00897e-08
-3.91379e-07
-4.78644e-08
-3.54435e-07
-5.44503e-08
-3.14726e-07
-6.00892e-08
-2.728e-07
-6.49585e-08
-2.29064e-07
-6.91681e-08
-1.83835e-07
-7.27599e-08
-1.3739e-07
-7.57185e-08
-9.00143e-08
-7.79916e-08
-4.20132e-08
-7.95155e-08
6.2833e-09
-8.02372e-08
5.45357e-08
-8.01288e-08
1.02405e-07
-7.91949e-08
1.49568e-07
-7.74705e-08
1.95723e-07
-7.50132e-08
2.40592e-07
-7.18861e-08
2.8389e-07
-6.81342e-08
3.25285e-07
-6.37597e-08
3.64335e-07
-5.87034e-08
4.00448e-07
-5.28376e-08
4.32853e-07
-4.59679e-08
4.60599e-07
-3.78357e-08
4.8254e-07
-2.81201e-08
4.97322e-07
-1.64534e-08
5.03357e-07
-2.48937e-09
4.98928e-07
1.38528e-08
4.82529e-07
3.20152e-08
4.53302e-07
5.07503e-08
4.1156e-07
6.8191e-08
3.59427e-07
8.17886e-08
3.00521e-07
8.97089e-08
2.38783e-07
9.17944e-08
1.77623e-07
8.90813e-08
1.19059e-07
8.38185e-08
6.34263e-08
7.85511e-08
9.75398e-09
7.51691e-08
-4.3612e-08
7.46365e-08
-9.84324e-08
7.71015e-08
-1.56008e-07
8.19219e-08
-2.16564e-07
8.75546e-08
-2.78729e-07
9.16321e-08
-3.39549e-07
9.16731e-08
-3.95179e-07
8.61153e-08
-4.41805e-07
7.47306e-08
-4.76601e-07
5.86075e-08
-4.98617e-07
4.02773e-08
-5.08326e-07
2.18989e-08
-5.07014e-07
4.91094e-09
-4.96347e-07
-9.85688e-09
-4.77967e-07
-2.22724e-08
-4.53301e-07
-3.26167e-08
-4.23552e-07
-4.12647e-08
-3.89728e-07
-4.85614e-08
-3.52655e-07
-5.47914e-08
-3.12988e-07
-6.01747e-08
-2.71215e-07
-6.48674e-08
-2.27699e-07
-6.89585e-08
-1.82724e-07
-7.24717e-08
-1.36551e-07
-7.53776e-08
-8.94557e-08
-7.76155e-08
-4.17392e-08
-7.91173e-08
-7.98286e-08
6.07973e-08
-1.33487e-07
1.14069e-07
-1.32071e-07
1.66413e-07
-1.29443e-07
2.17398e-07
-1.25664e-07
2.66587e-07
-1.208e-07
3.13536e-07
-1.14894e-07
3.57774e-07
-1.07941e-07
3.98808e-07
-9.98739e-08
4.36117e-07
-9.05628e-08
4.6917e-07
-7.9823e-08
4.97451e-07
-6.74306e-08
5.20487e-07
-5.31324e-08
5.37899e-07
-3.66596e-08
5.494e-07
-1.77377e-08
5.54601e-07
3.94632e-09
5.52377e-07
2.88306e-08
5.40263e-07
5.72458e-08
5.15051e-07
8.83396e-08
4.7424e-07
1.19048e-07
4.17631e-07
1.44734e-07
3.48537e-07
1.61255e-07
2.72599e-07
1.66807e-07
1.94709e-07
1.64021e-07
1.17613e-07
1.57604e-07
4.19409e-08
1.51862e-07
-3.30256e-08
1.49442e-07
-1.08469e-07
1.5124e-07
-1.85198e-07
1.56528e-07
-2.62766e-07
1.62854e-07
-3.38669e-07
1.66044e-07
-4.08199e-07
1.61316e-07
-4.65671e-07
1.45683e-07
-5.07421e-07
1.20506e-07
-5.33353e-07
8.98404e-08
-5.45838e-07
5.83907e-08
-5.48111e-07
2.94448e-08
-5.42752e-07
4.02938e-09
-5.30977e-07
-1.81314e-08
-5.132e-07
-3.74751e-08
-4.8971e-07
-5.43108e-08
-4.60896e-07
-6.89043e-08
-4.2724e-07
-8.15199e-08
-3.8928e-07
-9.24106e-08
-3.47566e-07
-1.01803e-07
-3.02639e-07
-1.09885e-07
-2.55016e-07
-1.16791e-07
-2.05185e-07
-1.22591e-07
-1.53613e-07
-1.2729e-07
-1.00753e-07
-1.30852e-07
-4.70535e-08
-1.33216e-07
7.03793e-09
-1.34329e-07
6.10709e-08
-1.34162e-07
1.14596e-07
-1.3272e-07
1.67164e-07
-1.30039e-07
2.18327e-07
-1.26176e-07
2.6763e-07
-1.21189e-07
3.146e-07
-1.15105e-07
3.58743e-07
-1.07902e-07
3.99533e-07
-9.94939e-08
4.36426e-07
-8.9731e-08
4.68873e-07
-7.8414e-08
4.96345e-07
-6.53078e-08
5.1838e-07
-5.01553e-08
5.34618e-07
-3.26915e-08
5.44776e-07
-1.26472e-08
5.48316e-07
1.03128e-08
5.43683e-07
3.66475e-08
5.28004e-07
6.64297e-08
4.98111e-07
9.80842e-08
4.52123e-07
1.27776e-07
3.91016e-07
1.50816e-07
3.19284e-07
1.63527e-07
2.42576e-07
1.65789e-07
1.65078e-07
1.61316e-07
8.87076e-08
1.54922e-07
1.34941e-08
1.50383e-07
-6.15478e-08
1.49678e-07
-1.3756e-07
1.53114e-07
-2.15e-07
1.59362e-07
-2.92741e-07
1.65295e-07
-3.67434e-07
1.66325e-07
-4.33786e-07
1.58026e-07
-4.86445e-07
1.38774e-07
-5.23049e-07
1.11334e-07
-5.44548e-07
8.01068e-08
-5.53781e-07
4.95103e-08
-5.53888e-07
2.20061e-08
-5.46981e-07
-1.99611e-09
-5.33913e-07
-2.29252e-08
-5.15003e-07
-4.11821e-08
-4.90557e-07
-5.70624e-08
-4.60983e-07
-7.08385e-08
-4.26768e-07
-8.27768e-08
-3.88436e-07
-9.31237e-08
-3.46516e-07
-1.02094e-07
-3.01523e-07
-1.0986e-07
-2.53945e-07
-1.16536e-07
-2.04244e-07
-1.22173e-07
-1.52863e-07
-1.26759e-07
-1.00235e-07
-1.30244e-07
-4.67922e-08
-1.3256e-07
-1.33652e-07
6.36252e-08
-1.89751e-07
1.19256e-07
-1.87702e-07
1.73697e-07
-1.83884e-07
2.26397e-07
-1.78364e-07
2.76807e-07
-1.7121e-07
3.24386e-07
-1.62473e-07
3.68606e-07
-1.5216e-07
4.08955e-07
-1.40224e-07
4.44957e-07
-1.26564e-07
4.76172e-07
-1.11038e-07
5.02215e-07
-9.34732e-08
5.22759e-07
-7.36766e-08
5.37541e-07
-5.14413e-08
5.46331e-07
-2.65278e-08
5.48881e-07
1.39628e-09
5.44907e-07
3.28047e-08
5.34112e-07
6.80403e-08
5.15768e-07
1.06684e-07
4.87394e-07
1.47422e-07
4.44512e-07
1.87615e-07
3.84344e-07
2.21424e-07
3.09105e-07
2.42046e-07
2.25074e-07
2.48051e-07
1.37672e-07
2.45007e-07
4.95511e-08
2.39983e-07
-3.8553e-08
2.37546e-07
-1.26549e-07
2.39236e-07
-2.13834e-07
2.43813e-07
-2.98031e-07
2.47051e-07
-3.74017e-07
2.4203e-07
-4.35398e-07
2.22697e-07
-4.79408e-07
1.89693e-07
-5.08439e-07
1.49537e-07
-5.2701e-07
1.08411e-07
-5.37827e-07
6.92075e-08
-5.41714e-07
3.33317e-08
-5.38978e-07
1.29315e-09
-5.29905e-07
-2.72045e-08
-5.14749e-07
-5.26304e-08
-4.93747e-07
-7.53128e-08
-4.6717e-07
-9.54821e-08
-4.35352e-07
-1.13338e-07
-3.98696e-07
-1.29067e-07
-3.57658e-07
-1.4284e-07
-3.12741e-07
-1.54803e-07
-2.64476e-07
-1.65056e-07
-2.13419e-07
-1.73648e-07
-1.60134e-07
-1.80575e-07
-1.05193e-07
-1.85792e-07
-4.9171e-08
-1.89238e-07
7.35602e-09
-1.90856e-07
6.38075e-08
-1.90613e-07
1.19604e-07
-1.88516e-07
1.74169e-07
-1.84604e-07
2.2693e-07
-1.78937e-07
2.77315e-07
-1.71574e-07
3.24762e-07
-1.62552e-07
3.68721e-07
-1.51861e-07
4.08665e-07
-1.39438e-07
4.44105e-07
-1.2517e-07
4.74595e-07
-1.08904e-07
4.99751e-07
-9.04638e-08
5.19254e-07
-6.96586e-08
5.32848e-07
-4.6285e-08
5.40297e-07
-2.00959e-08
5.41335e-07
9.27459e-09
5.35677e-07
4.23057e-08
5.22969e-07
7.91375e-08
5.02043e-07
1.19011e-07
4.69545e-07
1.60274e-07
4.21061e-07
1.99299e-07
3.55384e-07
2.29204e-07
2.76627e-07
2.44545e-07
1.91249e-07
2.46695e-07
1.03646e-07
2.42525e-07
1.56036e-08
2.38425e-07
-7.25199e-08
2.37802e-07
-1.60578e-07
2.41172e-07
-2.47467e-07
2.4625e-07
-3.29831e-07
2.4766e-07
-4.01666e-07
2.38159e-07
-4.57311e-07
2.13671e-07
-4.95991e-07
1.77455e-07
-5.21365e-07
1.36708e-07
-5.376e-07
9.63421e-08
-5.46581e-07
5.84911e-08
-5.48827e-07
2.42523e-08
-5.44624e-07
-6.1997e-09
-5.34249e-07
-3.32999e-08
-5.17941e-07
-5.74896e-08
-4.95935e-07
-7.90689e-08
-4.68508e-07
-9.8265e-08
-4.36004e-07
-1.15281e-07
-3.98824e-07
-1.30304e-07
-3.57416e-07
-1.43502e-07
-3.1227e-07
-1.55007e-07
-2.639e-07
-1.64907e-07
-2.12839e-07
-1.73233e-07
-1.59632e-07
-1.79966e-07
-1.04826e-07
-1.85049e-07
-4.89763e-08
-1.88411e-07
-1.89989e-07
6.42142e-08
-2.46534e-07
1.20259e-07
-2.43748e-07
1.74923e-07
-2.38548e-07
2.27572e-07
-2.31013e-07
2.77593e-07
-2.21231e-07
3.24395e-07
-2.09275e-07
3.67423e-07
-1.95188e-07
4.06168e-07
-1.78968e-07
4.4017e-07
-1.60566e-07
4.69027e-07
-1.39896e-07
4.92393e-07
-1.16839e-07
5.09971e-07
-9.12548e-08
5.21511e-07
-6.29813e-08
5.26806e-07
-3.18225e-08
5.25729e-07
2.47317e-09
5.18336e-07
4.01975e-08
5.04883e-07
8.14935e-08
4.85492e-07
1.26075e-07
4.59681e-07
1.73234e-07
4.25699e-07
2.21597e-07
3.79231e-07
2.67891e-07
3.15527e-07
3.0575e-07
2.3579e-07
3.27789e-07
1.46551e-07
3.34246e-07
5.3288e-08
3.33246e-07
-4.10261e-08
3.31861e-07
-1.34366e-07
3.32576e-07
-2.23962e-07
3.33408e-07
-3.04669e-07
3.27758e-07
-3.69828e-07
3.07189e-07
-4.17487e-07
2.70355e-07
-4.52024e-07
2.24231e-07
-4.78028e-07
1.75541e-07
-4.97442e-07
1.27826e-07
-5.10827e-07
8.25923e-08
-5.18091e-07
4.05959e-08
-5.18972e-07
2.1743e-09
-5.13399e-07
-3.27779e-08
-5.01493e-07
-6.45364e-08
-4.83465e-07
-9.33409e-08
-4.59573e-07
-1.19374e-07
-4.30123e-07
-1.42788e-07
-3.95477e-07
-1.63712e-07
-3.56058e-07
-1.8226e-07
-3.12346e-07
-1.98515e-07
-2.64877e-07
-2.12524e-07
-2.14235e-07
-2.24291e-07
-1.61035e-07
-2.33775e-07
-1.05919e-07
-2.40908e-07
-4.95468e-08
-2.4561e-07
7.41313e-09
-2.47816e-07
6.42852e-08
-2.47485e-07
1.20395e-07
-2.44626e-07
1.75075e-07
-2.39284e-07
2.27671e-07
-2.31533e-07
2.77547e-07
-2.2145e-07
3.24092e-07
-2.09098e-07
3.66738e-07
-1.94506e-07
4.04959e-07
-1.7766e-07
4.38291e-07
-1.58502e-07
4.66328e-07
-1.36941e-07
4.88721e-07
-1.12857e-07
5.05179e-07
-8.61162e-08
5.15454e-07
-5.65603e-08
5.19353e-07
-2.39946e-08
5.16792e-07
1.18355e-08
5.07906e-07
5.11918e-08
4.9296e-07
9.40828e-08
4.7192e-07
1.40051e-07
4.43969e-07
1.88225e-07
4.06574e-07
2.36694e-07
3.54584e-07
2.81194e-07
2.84885e-07
3.14245e-07
2.0121e-07
3.3037e-07
1.10264e-07
3.33471e-07
1.64644e-08
3.32224e-07
-7.77785e-08
3.32045e-07
-1.70358e-07
3.33752e-07
-2.57767e-07
3.33659e-07
-3.33855e-07
3.23749e-07
-3.92879e-07
2.97182e-07
-4.35523e-07
2.56315e-07
-4.67084e-07
2.09016e-07
-4.91125e-07
1.60749e-07
-5.08953e-07
1.14171e-07
-5.20853e-07
7.03909e-08
-5.26619e-07
3.00178e-08
-5.2603e-07
-6.78822e-09
-5.1909e-07
-4.02402e-08
-5.05953e-07
-7.06266e-08
-4.86839e-07
-9.81829e-08
-4.6201e-07
-1.23094e-07
-4.31774e-07
-1.45516e-07
-3.96494e-07
-1.65585e-07
-3.56585e-07
-1.83411e-07
-3.1252e-07
-1.99072e-07
-2.64823e-07
-2.12604e-07
-2.14058e-07
-2.23998e-07
-1.60822e-07
-2.33201e-07
-1.05736e-07
-2.40135e-07
-4.94361e-08
-2.44711e-07
-2.46857e-07
6.30425e-08
-3.02278e-07
1.17978e-07
-2.98683e-07
1.714e-07
-2.9197e-07
2.22625e-07
-2.82239e-07
2.71001e-07
-2.69607e-07
3.15915e-07
-2.54188e-07
3.56802e-07
-2.36076e-07
3.9316e-07
-2.15326e-07
4.24551e-07
-1.91958e-07
4.50602e-07
-1.65947e-07
4.71002e-07
-1.37238e-07
4.85494e-07
-1.05746e-07
4.93874e-07
-7.13613e-08
4.95999e-07
-3.39478e-08
4.91826e-07
6.64615e-09
4.81475e-07
5.05487e-08
4.65239e-07
9.77296e-08
4.43464e-07
1.47849e-07
4.16432e-07
2.00265e-07
3.84023e-07
2.54006e-07
3.44552e-07
3.07362e-07
2.93633e-07
3.56669e-07
2.26343e-07
3.95079e-07
1.43997e-07
4.16592e-07
5.30808e-08
4.24161e-07
-4.04912e-08
4.25432e-07
-1.31817e-07
4.23901e-07
-2.15187e-07
4.16778e-07
-2.83996e-07
3.96568e-07
-3.36149e-07
3.59342e-07
-3.76188e-07
3.10395e-07
-4.08776e-07
2.56819e-07
-4.35835e-07
2.026e-07
-4.57576e-07
1.49567e-07
-4.73727e-07
9.87437e-08
-4.83942e-07
5.08108e-08
-4.87916e-07
6.14847e-09
-4.85516e-07
-3.51776e-08
-4.76781e-07
-7.32719e-08
-4.61854e-07
-1.08268e-07
-4.40947e-07
-1.40282e-07
-4.14325e-07
-1.69409e-07
-3.82316e-07
-1.95721e-07
-3.45311e-07
-2.19264e-07
-3.03774e-07
-2.40053e-07
-2.58232e-07
-2.58066e-07
-2.09279e-07
-2.73244e-07
-1.57556e-07
-2.85498e-07
-1.03747e-07
-2.94717e-07
-4.85621e-08
-3.00795e-07
7.26638e-09
-3.03644e-07
6.29984e-08
-3.03217e-07
1.17895e-07
-2.99523e-07
1.7123e-07
-2.92619e-07
2.22297e-07
-2.826e-07
2.70423e-07
-2.69576e-07
3.14977e-07
-2.53652e-07
3.55384e-07
-2.34913e-07
3.91131e-07
-2.13407e-07
4.21774e-07
-1.89145e-07
4.46938e-07
-1.62105e-07
4.66312e-07
-1.32232e-07
4.79646e-07
-9.94497e-08
4.86743e-07
-6.36574e-08
4.87481e-07
-2.47328e-08
4.81861e-07
1.7456e-08
4.70066e-07
6.29869e-08
4.52426e-07
1.11722e-07
4.29281e-07
1.63196e-07
4.00846e-07
2.1666e-07
3.66606e-07
2.70934e-07
3.23971e-07
3.23828e-07
2.67717e-07
3.70499e-07
1.94613e-07
4.03474e-07
1.08524e-07
4.19561e-07
1.61298e-08
4.24618e-07
-7.72307e-08
4.25405e-07
-1.66557e-07
4.23079e-07
-2.45516e-07
4.12618e-07
-3.08346e-07
3.86579e-07
-3.5571e-07
3.44546e-07
-3.93036e-07
2.9364e-07
-4.2397e-07
2.39951e-07
-4.4965e-07
1.86429e-07
-4.70013e-07
1.34533e-07
-4.84749e-07
8.51269e-08
-4.93512e-07
3.87808e-08
-4.96046e-07
-4.25395e-09
-4.9228e-07
-4.40062e-08
-4.82289e-07
-8.06176e-08
-4.66234e-07
-1.14238e-07
-4.44333e-07
-1.44995e-07
-4.16857e-07
-1.72993e-07
-3.84131e-07
-1.98311e-07
-3.46545e-07
-2.20996e-07
-3.04556e-07
-2.41061e-07
-2.58683e-07
-2.58477e-07
-2.09502e-07
-2.73179e-07
-1.57638e-07
-2.85065e-07
-1.03754e-07
-2.94019e-07
-4.85395e-08
-2.99926e-07
-3.02695e-07
6.04254e-08
-3.55706e-07
1.13002e-07
-3.51259e-07
1.6399e-07
-3.42958e-07
2.12679e-07
-3.30928e-07
2.58401e-07
-3.15329e-07
3.00538e-07
-2.96325e-07
3.38535e-07
-2.74072e-07
3.71905e-07
-2.48696e-07
4.00235e-07
-2.20288e-07
4.23185e-07
-1.88897e-07
4.4048e-07
-1.54534e-07
4.51911e-07
-1.17177e-07
4.57328e-07
-7.6778e-08
4.56655e-07
-3.32748e-08
4.49917e-07
1.33842e-08
4.37274e-07
6.31911e-08
4.19023e-07
1.15981e-07
3.95526e-07
1.71347e-07
3.67161e-07
2.2863e-07
3.34249e-07
2.86918e-07
2.9668e-07
3.44931e-07
2.52733e-07
4.00616e-07
1.9807e-07
4.49742e-07
1.29034e-07
4.85628e-07
4.83979e-08
5.04798e-07
-3.6564e-08
5.10394e-07
-1.17957e-07
5.05294e-07
-1.88337e-07
4.87158e-07
-2.44236e-07
4.52466e-07
-2.88801e-07
4.03906e-07
-3.26572e-07
3.48166e-07
-3.59539e-07
2.89785e-07
-3.87899e-07
2.30961e-07
-4.1135e-07
1.73018e-07
-4.29511e-07
1.16904e-07
-4.42013e-07
6.33128e-08
-4.48552e-07
1.26871e-08
-4.48956e-07
-3.47729e-08
-4.43197e-07
-7.9031e-08
-4.31351e-07
-1.20114e-07
-4.13572e-07
-1.58061e-07
-3.90082e-07
-1.92899e-07
-3.61169e-07
-2.24634e-07
-3.27194e-07
-2.5324e-07
-2.88592e-07
-2.78654e-07
-2.45878e-07
-3.0078e-07
-1.99636e-07
-3.19486e-07
-1.50514e-07
-3.3462e-07
-9.9211e-08
-3.4602e-07
-4.6467e-08
-3.53539e-07
6.95325e-09
-3.57064e-07
6.02722e-08
-3.56536e-07
1.12714e-07
-3.51965e-07
1.6352e-07
-3.43424e-07
2.11958e-07
-3.31039e-07
2.57343e-07
-3.1496e-07
2.99041e-07
-2.9535e-07
3.36486e-07
-2.72357e-07
3.69184e-07
-2.46104e-07
3.96718e-07
-2.16679e-07
4.18747e-07
-1.84134e-07
4.35001e-07
-1.48486e-07
4.45275e-07
-1.09724e-07
4.49434e-07
-6.78161e-08
4.47424e-07
-2.27235e-08
4.39311e-07
2.557e-08
4.25301e-07
7.69959e-08
4.05726e-07
1.31297e-07
3.8096e-07
1.87963e-07
3.5138e-07
2.4624e-07
3.1722e-07
3.05094e-07
2.77984e-07
3.63064e-07
2.30977e-07
4.17506e-07
1.71368e-07
4.63083e-07
9.75317e-08
4.93397e-07
1.44521e-08
5.07698e-07
-7.01423e-08
5.1e-07
-1.4837e-07
5.01306e-07
-2.1364e-07
4.77888e-07
-2.64999e-07
4.37938e-07
-3.06964e-07
3.86511e-07
-3.43253e-07
3.29929e-07
-3.74997e-07
2.71695e-07
-4.0213e-07
2.13561e-07
-4.24296e-07
1.567e-07
-4.41119e-07
1.0195e-07
-4.52245e-07
4.99073e-08
-4.57411e-07
9.11414e-10
-4.56493e-07
-4.49241e-08
-4.49497e-07
-8.76136e-08
-4.36519e-07
-1.27215e-07
-4.17726e-07
-1.63788e-07
-3.93343e-07
-1.97376e-07
-3.63662e-07
-2.27992e-07
-3.29042e-07
-2.55616e-07
-2.89915e-07
-2.80188e-07
-2.46786e-07
-3.01606e-07
-2.00228e-07
-3.19737e-07
-1.50872e-07
-3.34421e-07
-9.93999e-08
-3.45491e-07
-4.65291e-08
-3.52797e-07
-3.56222e-07
5.66355e-08
-4.05781e-07
1.05842e-07
-4.00466e-07
1.53433e-07
-3.90548e-07
1.98692e-07
-3.76188e-07
2.40953e-07
-3.5759e-07
2.7961e-07
-3.34983e-07
3.14128e-07
-3.08589e-07
3.44045e-07
-2.78614e-07
3.68984e-07
-2.45227e-07
3.88642e-07
-2.08554e-07
4.0279e-07
-1.68681e-07
4.11267e-07
-1.25655e-07
4.13986e-07
-7.94961e-08
4.1093e-07
-3.02192e-08
4.02179e-07
2.21351e-08
3.87922e-07
7.74479e-08
3.68454e-07
1.35449e-07
3.44141e-07
1.9566e-07
3.15386e-07
2.57385e-07
2.826e-07
3.19703e-07
2.46089e-07
3.81442e-07
2.05673e-07
4.41032e-07
1.59611e-07
4.95804e-07
1.04527e-07
5.40713e-07
3.97073e-08
5.69617e-07
-2.95924e-08
5.79694e-07
-9.51889e-08
5.70891e-07
-1.5128e-07
5.4325e-07
-1.97966e-07
4.99152e-07
-2.38613e-07
4.44554e-07
-2.75197e-07
3.84749e-07
-3.07998e-07
3.22586e-07
-3.36731e-07
2.59694e-07
-3.60988e-07
1.97275e-07
-3.80359e-07
1.36276e-07
-3.94473e-07
7.74263e-08
-4.03026e-07
2.124e-08
-4.05821e-07
-3.19774e-08
-4.02777e-07
-8.20755e-08
-3.93906e-07
-1.28984e-07
-3.79306e-07
-1.72661e-07
-3.59144e-07
-2.13061e-07
-3.33665e-07
-2.50114e-07
-3.0319e-07
-2.83715e-07
-2.68121e-07
-3.13723e-07
-2.28945e-07
-3.39956e-07
-1.86227e-07
-3.62204e-07
-1.40603e-07
-3.80243e-07
-9.2772e-08
-3.93851e-07
-4.34769e-08
-4.02834e-07
6.50602e-09
-4.07047e-07
5.63859e-08
-4.06416e-07
1.05374e-07
-4.00953e-07
1.52701e-07
-3.90751e-07
1.97634e-07
-3.75971e-07
2.3949e-07
-3.56816e-07
2.77649e-07
-3.33509e-07
3.11566e-07
-3.06275e-07
3.40778e-07
-2.75316e-07
3.64901e-07
-2.40803e-07
3.83637e-07
-2.02869e-07
3.9676e-07
-1.61609e-07
4.04121e-07
-1.17085e-07
4.05643e-07
-6.93389e-08
4.01337e-07
-1.84174e-08
3.91313e-07
3.5594e-08
3.75798e-07
9.25111e-08
3.55117e-07
1.51979e-07
3.29653e-07
2.13426e-07
2.99823e-07
2.7607e-07
2.66018e-07
3.38899e-07
2.28448e-07
4.00634e-07
1.86513e-07
4.59441e-07
1.37679e-07
5.11917e-07
7.88677e-08
5.52208e-07
1.15615e-08
5.75004e-07
-5.73309e-08
5.78892e-07
-1.19892e-07
5.63868e-07
-1.7234e-07
5.30335e-07
-2.16633e-07
4.82232e-07
-2.55952e-07
4.25829e-07
-2.91509e-07
3.65486e-07
-3.23281e-07
3.03466e-07
-3.50918e-07
2.41199e-07
-3.74007e-07
1.79788e-07
-3.92149e-07
1.20092e-07
-4.04995e-07
6.27528e-08
-4.12273e-07
8.19e-09
-4.13826e-07
-4.33711e-08
-4.09601e-07
-9.18388e-08
-3.99632e-07
-1.37183e-07
-3.84029e-07
-1.79391e-07
-3.62969e-07
-2.18436e-07
-3.36699e-07
-2.54262e-07
-3.05541e-07
-2.86774e-07
-2.69896e-07
-3.15833e-07
-2.30244e-07
-3.41259e-07
-1.87139e-07
-3.62842e-07
-1.41205e-07
-3.80355e-07
-9.31217e-08
-3.93574e-07
-4.36149e-08
-4.02303e-07
-4.06397e-07
5.18944e-08
-4.51662e-07
9.69142e-08
-4.45486e-07
1.40332e-07
-4.33966e-07
1.81447e-07
-4.17302e-07
2.19609e-07
-3.95753e-07
2.54239e-07
-3.69612e-07
2.8483e-07
-3.39181e-07
3.1096e-07
-3.04745e-07
3.32291e-07
-2.66557e-07
3.48564e-07
-2.24827e-07
3.59601e-07
-1.79719e-07
3.65298e-07
-1.31352e-07
3.65623e-07
-7.98213e-08
3.60621e-07
-2.52173e-08
3.50422e-07
3.2335e-08
3.35245e-07
9.26248e-08
3.15398e-07
1.55296e-07
2.91255e-07
2.19803e-07
2.6324e-07
2.854e-07
2.31816e-07
3.51128e-07
1.97458e-07
4.158e-07
1.60563e-07
4.77927e-07
1.21039e-07
5.35328e-07
7.76796e-08
5.84072e-07
2.94258e-08
6.17871e-07
-2.14515e-08
6.30571e-07
-7.01343e-08
6.19574e-07
-1.13914e-07
5.8703e-07
-1.53616e-07
5.38854e-07
-1.90552e-07
4.8149e-07
-2.24909e-07
4.19105e-07
-2.5631e-07
3.53988e-07
-2.84281e-07
2.87665e-07
-3.08351e-07
2.21345e-07
-3.28091e-07
1.56015e-07
-3.4312e-07
9.24552e-08
-3.53123e-07
3.12438e-08
-3.57875e-07
-2.72262e-08
-3.57241e-07
-8.27092e-08
-3.51178e-07
-1.35047e-07
-3.39721e-07
-1.84118e-07
-3.22985e-07
-2.29797e-07
-3.01162e-07
-2.71937e-07
-2.74527e-07
-3.1035e-07
-2.43442e-07
-3.44808e-07
-2.08355e-07
-3.75042e-07
-1.69801e-07
-4.00759e-07
-1.2839e-07
-4.21654e-07
-8.48021e-08
-4.3744e-07
-3.97662e-08
-4.4787e-07
5.95082e-09
-4.52764e-07
5.15658e-08
-4.52031e-07
9.62979e-08
-4.45685e-07
1.39388e-07
-4.33842e-07
1.80119e-07
-4.16702e-07
2.17827e-07
-3.94524e-07
2.51921e-07
-3.67604e-07
2.81889e-07
-3.36243e-07
3.07304e-07
-3.00731e-07
3.27827e-07
-2.61326e-07
3.43205e-07
-2.18247e-07
3.53266e-07
-1.7167e-07
3.57917e-07
-1.21736e-07
3.57142e-07
-6.85639e-08
3.51008e-07
-1.22831e-08
3.39671e-07
4.69311e-08
3.23382e-07
1.088e-07
3.02476e-07
1.72885e-07
2.77346e-07
2.38556e-07
2.48436e-07
3.0498e-07
2.16219e-07
3.71116e-07
1.81165e-07
4.35688e-07
1.43568e-07
4.97038e-07
1.02969e-07
5.52516e-07
5.78855e-08
5.97292e-07
8.21109e-09
6.24678e-07
-4.24167e-08
6.2952e-07
-8.94415e-08
6.10893e-07
-1.31635e-07
5.72528e-07
-1.70407e-07
5.21005e-07
-2.06665e-07
4.62087e-07
-2.40304e-07
3.99125e-07
-2.70885e-07
3.34048e-07
-2.97935e-07
2.68248e-07
-3.20997e-07
2.0285e-07
-3.39659e-07
1.38755e-07
-3.53565e-07
7.66579e-08
-3.62426e-07
1.70514e-08
-3.66047e-07
-3.97499e-08
-3.64322e-07
-9.35641e-08
-3.57226e-07
-1.44279e-07
-3.4481e-07
-1.91808e-07
-3.27197e-07
-2.36049e-07
-3.04586e-07
-2.76873e-07
-2.77256e-07
-3.14104e-07
-2.45566e-07
-3.47522e-07
-2.09963e-07
-3.76862e-07
-1.70971e-07
-4.01834e-07
-1.2919e-07
-4.22135e-07
-8.52848e-08
-4.3748e-07
-3.99677e-08
-4.4762e-07
-4.52378e-07
4.63847e-08
-4.9267e-07
8.65585e-08
-4.8566e-07
1.25184e-07
-4.72591e-07
1.61587e-07
-4.53706e-07
1.95154e-07
-4.29319e-07
2.25339e-07
-3.99797e-07
2.51678e-07
-3.6552e-07
2.73794e-07
-3.2686e-07
2.91393e-07
-2.84157e-07
3.0427e-07
-2.37705e-07
3.123e-07
-1.87748e-07
3.15435e-07
-1.34487e-07
3.13701e-07
-7.80875e-08
3.07201e-07
-1.87169e-08
2.96113e-07
4.34229e-08
2.80697e-07
1.08041e-07
2.61287e-07
1.74705e-07
2.38282e-07
2.42808e-07
2.12141e-07
3.11541e-07
1.83387e-07
3.79882e-07
1.52612e-07
4.46575e-07
1.20489e-07
5.1005e-07
8.76615e-08
5.68156e-07
5.43601e-08
6.17373e-07
2.02902e-08
6.51941e-07
-1.43106e-08
6.65172e-07
-4.84363e-08
6.53699e-07
-8.17245e-08
6.20318e-07
-1.1447e-07
5.716e-07
-1.46506e-07
5.13525e-07
-1.77206e-07
4.49805e-07
-2.05889e-07
3.82671e-07
-2.3195e-07
3.13726e-07
-2.54857e-07
2.44253e-07
-2.74145e-07
1.75303e-07
-2.89406e-07
1.07716e-07
-3.00299e-07
4.21369e-08
-3.06559e-07
-2.09659e-08
-3.08004e-07
-8.12643e-08
-3.04532e-07
-1.38519e-07
-2.9612e-07
-1.9253e-07
-2.82824e-07
-2.43093e-07
-2.64782e-07
-2.89979e-07
-2.42218e-07
-3.32915e-07
-2.15444e-07
-3.71582e-07
-1.84865e-07
-4.05622e-07
-1.50972e-07
-4.34652e-07
-1.14337e-07
-4.58288e-07
-7.56055e-08
-4.76171e-07
-3.54773e-08
-4.87998e-07
5.30902e-09
-4.93551e-07
4.59967e-08
-4.92719e-07
8.58316e-08
-4.8552e-07
1.24083e-07
-4.72094e-07
1.60064e-07
-4.52683e-07
1.93148e-07
-4.27608e-07
2.22782e-07
-3.97237e-07
2.48496e-07
-3.61957e-07
2.6991e-07
-3.22145e-07
2.86736e-07
-2.78151e-07
2.98771e-07
-2.30282e-07
3.059e-07
-1.78799e-07
3.08088e-07
-1.23923e-07
3.05377e-07
-6.58533e-08
2.97891e-07
-4.79686e-09
2.85833e-07
5.89892e-08
2.69488e-07
1.25144e-07
2.49217e-07
1.93156e-07
2.25441e-07
2.62332e-07
1.98643e-07
3.31778e-07
1.69372e-07
4.00386e-07
1.38257e-07
4.66803e-07
1.05987e-07
5.29308e-07
7.31125e-08
5.8539e-07
3.96315e-08
6.30773e-07
5.29975e-09
6.5901e-07
-2.9249e-08
6.64069e-07
-6.30956e-08
6.44739e-07
-9.62563e-08
6.05689e-07
-1.28947e-07
5.53696e-07
-1.60787e-07
4.93926e-07
-1.91097e-07
4.29436e-07
-2.19225e-07
3.62176e-07
-2.44596e-07
2.93619e-07
-2.66706e-07
2.24959e-07
-2.8511e-07
1.57159e-07
-2.99426e-07
9.09744e-08
-3.0934e-07
2.69646e-08
-3.14611e-07
-3.44788e-08
-3.15081e-07
-9.30935e-08
-3.10669e-07
-1.48692e-07
-3.01367e-07
-2.0111e-07
-2.87242e-07
-2.50174e-07
-2.68441e-07
-2.95674e-07
-2.45192e-07
-3.37354e-07
-2.17809e-07
-3.74905e-07
-1.86694e-07
-4.07978e-07
-1.52331e-07
-4.36196e-07
-1.15286e-07
-4.59181e-07
-7.61895e-08
-4.76576e-07
-3.57278e-08
-4.88082e-07
-4.93483e-07
4.02535e-08
-5.28255e-07
7.50512e-08
-5.20457e-07
1.08388e-07
-5.05929e-07
1.39636e-07
-4.84953e-07
1.68224e-07
-4.57907e-07
1.93655e-07
-4.25229e-07
2.15516e-07
-3.87381e-07
2.33479e-07
-3.44823e-07
2.47305e-07
-2.97982e-07
2.56841e-07
-2.47241e-07
2.62017e-07
-1.92925e-07
2.62842e-07
-1.35311e-07
2.59398e-07
-7.46441e-08
2.51844e-07
-1.11621e-08
2.40407e-07
5.48599e-08
2.25389e-07
1.23058e-07
2.0716e-07
1.92934e-07
1.86154e-07
2.63814e-07
1.6287e-07
3.34824e-07
1.37887e-07
4.04866e-07
1.11878e-07
4.72584e-07
8.56432e-08
5.36284e-07
6.00796e-08
5.93719e-07
3.59139e-08
6.41539e-07
1.31914e-08
6.74663e-07
-8.87961e-09
6.87243e-07
-3.14538e-08
6.76274e-07
-5.53856e-08
6.4425e-07
-8.07184e-08
5.96932e-07
-1.06766e-07
5.39573e-07
-1.32626e-07
4.75665e-07
-1.57481e-07
4.07527e-07
-1.80643e-07
3.36887e-07
-2.01522e-07
2.65132e-07
-2.19609e-07
1.9339e-07
-2.34463e-07
1.2257e-07
-2.45707e-07
5.33804e-08
-2.53033e-07
-1.36398e-08
-2.56209e-07
-7.80883e-08
-2.55078e-07
-1.3965e-07
-2.49559e-07
-1.98048e-07
-2.39652e-07
-2.53001e-07
-2.25437e-07
-3.04194e-07
-2.07083e-07
-3.51269e-07
-1.84849e-07
-3.93816e-07
-1.59085e-07
-4.31385e-07
-1.30233e-07
-4.63505e-07
-9.88142e-08
-4.89706e-07
-6.54267e-08
-5.09559e-07
-3.07246e-08
-5.227e-07
4.59777e-09
-5.28873e-07
3.98271e-08
-5.27948e-07
7.4253e-08
-5.19946e-07
1.07189e-07
-5.0503e-07
1.37995e-07
-4.83489e-07
1.66092e-07
-4.55705e-07
1.90976e-07
-4.22122e-07
2.12231e-07
-3.83212e-07
2.2953e-07
-3.39444e-07
2.42638e-07
-2.91259e-07
2.51408e-07
-2.39053e-07
2.55782e-07
-1.83173e-07
2.55782e-07
-1.23923e-07
2.51508e-07
-6.15797e-08
2.43138e-07
3.57354e-09
2.30923e-07
7.12042e-08
2.15189e-07
1.40878e-07
1.9633e-07
2.12015e-07
1.74805e-07
2.83858e-07
1.51142e-07
3.55441e-07
1.25953e-07
4.25575e-07
9.99609e-08
4.92796e-07
7.40137e-08
5.55256e-07
4.90008e-08
6.10403e-07
2.54648e-08
6.54309e-07
3.12701e-09
6.81348e-07
-1.90058e-08
6.86201e-07
-4.20562e-08
6.6779e-07
-6.66262e-08
6.30259e-07
-9.24493e-08
5.79519e-07
-1.18709e-07
5.20186e-07
-1.44523e-07
4.5525e-07
-1.69124e-07
3.86777e-07
-1.91866e-07
3.16361e-07
-2.12194e-07
2.45286e-07
-2.29624e-07
1.7459e-07
-2.43741e-07
1.05091e-07
-2.54192e-07
3.74154e-08
-2.60693e-07
-2.79772e-08
-2.63036e-07
-9.07514e-08
-2.61081e-07
-1.50646e-07
-2.54765e-07
-2.07426e-07
-2.441e-07
-2.60839e-07
-2.29176e-07
-3.10598e-07
-2.10169e-07
-3.5636e-07
-1.87341e-07
-3.97733e-07
-1.61043e-07
-4.34277e-07
-1.3171e-07
-4.65529e-07
-9.98595e-08
-4.91031e-07
-6.60783e-08
-5.10357e-07
-3.10088e-08
-5.23152e-07
-5.2916e-07
3.36192e-08
-5.57974e-07
6.26138e-08
-5.49452e-07
9.0269e-08
-5.33584e-07
1.16012e-07
-5.10696e-07
1.39332e-07
-4.81226e-07
1.59788e-07
-4.45685e-07
1.77025e-07
-4.04618e-07
1.90771e-07
-3.58569e-07
2.00842e-07
-3.08054e-07
2.07142e-07
-2.5354e-07
2.09654e-07
-1.95437e-07
2.08442e-07
-1.34099e-07
2.03641e-07
-6.9843e-08
1.95458e-07
-2.9796e-09
1.8417e-07
6.61479e-08
1.70119e-07
1.3711e-07
1.53707e-07
2.09345e-07
1.35402e-07
2.8212e-07
1.15733e-07
3.54494e-07
9.53066e-08
4.25292e-07
7.48232e-08
4.93067e-07
5.50879e-08
5.5602e-07
3.69743e-08
6.11833e-07
2.11824e-08
6.5733e-07
7.67253e-09
6.88173e-07
-4.7791e-09
6.99695e-07
-1.80745e-08
6.89569e-07
-3.35511e-08
6.59726e-07
-5.13581e-08
6.14739e-07
-7.08357e-08
5.5905e-07
-9.11064e-08
4.95936e-07
-1.11351e-07
4.27771e-07
-1.30856e-07
3.56393e-07
-1.49004e-07
2.8328e-07
-1.65254e-07
2.0964e-07
-1.79133e-07
1.36449e-07
-1.9023e-07
6.44773e-08
-1.98197e-07
-5.67291e-09
-2.02754e-07
-7.35309e-08
-2.03694e-07
-1.38711e-07
-2.00881e-07
-2.00861e-07
-1.9426e-07
-2.59622e-07
-1.83854e-07
-3.14599e-07
-1.69777e-07
-3.65346e-07
-1.5223e-07
-4.11363e-07
-1.31503e-07
-4.52112e-07
-1.07978e-07
-4.8703e-07
-8.21188e-08
-5.15566e-07
-5.44608e-08
-5.37217e-07
-2.55994e-08
-5.51562e-07
3.83072e-09
-5.58303e-07
3.31755e-08
-5.57293e-07
6.17839e-08
-5.48554e-07
8.90295e-08
-5.32276e-07
1.14331e-07
-5.0879e-07
1.3717e-07
-4.78543e-07
1.57103e-07
-4.42055e-07
1.73773e-07