/*--------------------------------*- C++ -*----------------------------------*\
| =========                 |                                                 |
| \\      /  F ield         | OpenFOAM: The Open Source CFD Toolbox           |
|  \\    /   O peration     | Version:  2.3.0                                 |
|   \\  /    A nd           | Web:      www.OpenFOAM.org                      |
|    \\/     M anipulation  |                                                 |
\*---------------------------------------------------------------------------*/
FoamFile
{
    version     2.0;
    format      ascii;
    class       volVectorField;
    location    "11000";
    object      U;
}
// * * * * * * * * * * * * * * * * * * * * * * * * * * * * * * * * * * * * * //

dimensions      [0 1 -1 0 0 0 0];

internalField   nonuniform List<vector> 
3060
(
(0.612816 0 -0.44836)
(1.57478 0 -0.432446)
(2.51293 0 -0.402891)
(3.41342 0 -0.360223)
(4.26333 0 -0.305415)
(5.05089 0 -0.240451)
(5.76595 0 -0.168844)
(6.40043 0 -0.09569)
(6.94844 0 -0.0268157)
(7.4055 0 0.0327888)
(7.76676 0 0.0803547)
(8.02466 0 0.115643)
(8.16692 0 0.140174)
(8.17558 0 0.156261)
(8.02955 0 0.168704)
(7.70861 0 0.187521)
(7.20333 0 0.221406)
(6.52135 0 0.265042)
(5.6896 0 0.299117)
(4.76422 0 0.306918)
(3.81418 0 0.288995)
(2.9002 0 0.253075)
(2.06475 0 0.211073)
(1.32033 0 0.174178)
(0.651382 0 0.149646)
(0.0248393 0 0.140741)
(-0.599768 0 0.148293)
(-1.26315 0 0.171603)
(-1.99929 0 0.20767)
(-2.82557 0 0.249589)
(-3.73188 0 0.286358)
(-4.67761 0 0.30592)
(-5.60277 0 0.300124)
(-6.43801 0 0.267569)
(-7.1251 0 0.223959)
(-7.63465 0 0.188933)
(-7.95733 0 0.168762)
(-8.10143 0 0.155193)
(-8.08702 0 0.137975)
(-7.9356 0 0.112102)
(-7.66557 0 0.0752336)
(-7.2897 0 0.0259787)
(-6.8161 0 -0.0351983)
(-6.25024 0 -0.105253)
(-5.5973 0 -0.17896)
(-4.86393 0 -0.250377)
(-4.05896 0 -0.314421)
(-3.19322 0 -0.367656)
(-2.27909 0 -0.408179)
(-1.33009 0 -0.435053)
(-0.360524 0 -0.447731)
(0.614655 0 -0.445811)
(1.58027 0 -0.429385)
(2.52153 0 -0.398892)
(3.4243 0 -0.354935)
(4.27533 0 -0.298643)
(5.06259 0 -0.232272)
(5.77574 0 -0.15971)
(6.40652 0 -0.0863805)
(6.94879 0 -0.0182085)
(7.39748 0 0.0400407)
(7.74666 0 0.0860126)
(7.98718 0 0.119832)
(8.10482 0 0.143225)
(8.07983 0 0.158799)
(7.89088 0 0.172868)
(7.51942 0 0.196569)
(6.96192 0 0.235175)
(6.23209 0 0.278034)
(5.3668 0 0.304419)
(4.4296 0 0.303043)
(3.48897 0 0.277912)
(2.60087 0 0.238625)
(1.79843 0 0.197322)
(1.08385 0 0.16411)
(0.434264 0 0.144757)
(-0.186862 0 0.141498)
(-0.820762 0 0.154631)
(-1.50676 0 0.182849)
(-2.27448 0 0.221961)
(-3.13292 0 0.263547)
(-4.06145 0 0.295871)
(-5.01156 0 0.307608)
(-5.91902 0 0.292332)
(-6.71587 0 0.253631)
(-7.35323 0 0.211057)
(-7.81037 0 0.18133)
(-8.08391 0 0.165378)
(-8.18746 0 0.152698)
(-8.14177 0 0.134655)
(-7.96772 0 0.107518)
(-7.68177 0 0.0691066)
(-7.29482 0 0.0182633)
(-6.81349 0 -0.0441488)
(-6.24234 0 -0.114695)
(-5.58607 0 -0.188004)
(-4.85113 0 -0.258306)
(-4.04616 0 -0.320879)
(-3.18179 0 -0.372644)
(-2.27012 0 -0.411942)
(-1.32436 0 -0.437965)
(-0.358513 0 -0.450228)
(0.914352 0 -1.67581)
(2.35678 0 -1.65485)
(3.78215 0 -1.61625)
(5.18084 0 -1.56144)
(6.54432 0 -1.49214)
(7.86486 0 -1.40987)
(9.13449 0 -1.31537)
(10.3433 0 -1.20808)
(11.4775 0 -1.08577)
(12.5183 0 -0.944348)
(13.4418 0 -0.777685)
(14.2192 0 -0.577307)
(14.8169 0 -0.332528)
(15.1956 0 -0.0327657)
(15.3077 0 0.322182)
(15.0999 0 0.703468)
(14.5291 0 1.05637)
(13.5778 0 1.34335)
(12.2543 0 1.54915)
(10.6265 0 1.66057)
(8.80837 0 1.67281)
(6.92269 0 1.59214)
(5.07514 0 1.45737)
(3.32229 0 1.3203)
(1.66622 0 1.2218)
(0.0696208 0 1.18445)
(-1.52366 0 1.21532)
(-3.17045 0 1.30838)
(-4.91029 0 1.44248)
(-6.74498 0 1.57807)
(-8.6222 0 1.66332)
(-10.4388 0 1.65723)
(-12.0718 0 1.55093)
(-13.4046 0 1.34876)
(-14.365 0 1.0633)
(-14.9412 0 0.709217)
(-15.1499 0 0.323006)
(-15.0329 0 -0.0389652)
(-14.6446 0 -0.345419)
(-14.0333 0 -0.595666)
(-13.2393 0 -0.800182)
(-12.2972 0 -0.969751)
(-11.2367 0 -1.11298)
(-10.0824 0 -1.23612)
(-8.85361 0 -1.34334)
(-7.56446 0 -1.43693)
(-6.22528 0 -1.51746)
(-4.8445 0 -1.5842)
(-3.43031 0 -1.63567)
(-1.99167 0 -1.67025)
(-0.53857 0 -1.68665)
(0.91847 0 -1.68417)
(2.36881 0 -1.66294)
(3.802 0 -1.62381)
(5.2083 0 -1.5682)
(6.57901 0 -1.49774)
(7.906 0 -1.41378)
(9.18053 0 -1.31675)
(10.3915 0 -1.20567)
(11.5234 0 -1.07776)
(12.5555 0 -0.928336)
(13.462 0 -0.750557)
(14.2118 0 -0.53519)
(14.769 0 -0.271153)
(15.0916 0 0.0507559)
(15.1287 0 0.423684)
(14.8269 0 0.807011)
(14.1512 0 1.14532)
(13.0903 0 1.41028)
(11.6695 0 1.58831)
(9.97637 0 1.66878)
(8.13227 0 1.64852)
(6.25806 0 1.54533)
(4.44542 0 1.40538)
(2.73195 0 1.27897)
(1.10394 0 1.20083)
(-0.484512 0 1.18774)
(-2.0917 0 1.24228)
(-3.77072 0 1.35377)
(-5.55062 0 1.49488)
(-7.41584 0 1.62041)
(-9.29541 0 1.67956)
(-11.0759 0 1.6409)
(-12.6338 0 1.50401)
(-13.8638 0 1.27561)
(-14.7149 0 0.969503)
(-15.188 0 0.604114)
(-15.307 0 0.224869)
(-15.12 0 -0.11695)
(-14.6798 0 -0.401573)
(-14.0314 0 -0.633641)
(-13.2127 0 -0.824242)
(-12.2558 0 -0.983579)
(-11.1884 0 -1.11949)
(-10.033 0 -1.23755)
(-8.80716 0 -1.34134)
(-7.52334 0 -1.43264)
(-6.1908 0 -1.51163)
(-4.81732 0 -1.57729)
(-3.41077 0 -1.62801)
(-1.97995 0 -1.6621)
(-0.534754 0 -1.67826)
(1.02533 0 -3.17799)
(2.64195 0 -3.14357)
(4.23702 0 -3.07983)
(5.79752 0 -2.98853)
(7.31054 0 -2.87161)
(8.763 0 -2.73045)
(10.1412 0 -2.56508)
(11.4307 0 -2.37368)
(12.6157 0 -2.15241)
(13.6799 0 -1.8957)
(14.6065 0 -1.59663)
(15.3798 0 -1.24716)
(15.9862 0 -0.838541)
(16.4161 0 -0.361973)
(16.6621 0 0.191434)
(16.7095 0 0.833412)
(16.5083 0 1.57481)
(15.9603 0 2.38375)
(14.9707 0 3.12401)
(13.4937 0 3.62007)
(11.5708 0 3.84455)
(9.34501 0 3.84118)
(6.9961 0 3.67866)
(4.65079 0 3.46211)
(2.35735 0 3.28972)
(0.105333 0 3.22122)
(-2.14338 0 3.27633)
(-4.42792 0 3.43825)
(-6.76211 0 3.65067)
(-9.10369 0 3.81765)
(-11.3319 0 3.83199)
(-13.2686 0 3.62168)
(-14.7644 0 3.1409)
(-15.7703 0 2.40739)
(-16.3271 0 1.59201)
(-16.5284 0 0.838816)
(-16.4748 0 0.185098)
(-16.2193 0 -0.378828)
(-15.7774 0 -0.86466)
(-15.1565 0 -1.28113)
(-14.3664 0 -1.63684)
(-13.4211 0 -1.94048)
(-12.3368 0 -2.20011)
(-11.1308 0 -2.42273)
(-9.82007 0 -2.61402)
(-8.42094 0 -2.77786)
(-6.94854 0 -2.91613)
(-5.41705 0 -3.02883)
(-3.8401 0 -3.11465)
(-2.23109 0 -3.17182)
(-0.603496 0 -3.19877)
(1.02913 0 -3.19472)
(2.65318 0 -3.15977)
(4.25512 0 -3.09496)
(5.82151 0 -3.00196)
(7.33892 0 -2.88251)
(8.79361 0 -2.73763)
(10.1712 0 -2.56689)
(11.4561 0 -2.36788)
(12.6321 0 -2.13619)
(13.6817 0 -1.86577)
(14.588 0 -1.54932)
(15.3351 0 -1.17856)
(15.91 0 -0.744748)
(16.3038 0 -0.239384)
(16.5089 0 0.346633)
(16.5033 0 1.02607)
(16.2197 0 1.80284)
(15.5531 0 2.61524)
(14.4202 0 3.29456)
(12.7999 0 3.70137)
(10.7695 0 3.84744)
(8.49609 0 3.78468)
(6.14798 0 3.59513)
(3.82551 0 3.3881)
(1.55316 0 3.25043)
(-0.692319 0 3.22746)
(-2.95213 0 3.32649)
(-5.25996 0 3.51792)
(-7.61402 0 3.73094)
(-9.94587 0 3.8608)
(-12.1103 0 3.81018)
(-13.9268 0 3.51805)
(-15.276 0 2.94833)
(-16.143 0 2.17113)
(-16.5898 0 1.37146)
(-16.718 0 0.655991)
(-16.6158 0 0.0385765)
(-16.3208 0 -0.493825)
(-15.844 0 -0.951797)
(-15.1927 0 -1.34408)
(-14.3779 0 -1.67954)
(-13.4136 0 -1.96679)
(-12.3162 0 -2.2136)
(-11.1022 0 -2.42657)
(-9.78799 0 -2.61085)
(-8.38892 0 -2.76978)
(-6.9193 0 -2.90466)
(-5.39258 0 -3.01503)
(-3.82177 0 -3.0993)
(-2.21978 0 -3.1555)
(-0.599673 0 -3.182)
(1.07334 0 -4.85972)
(2.76379 0 -4.80722)
(4.4267 0 -4.70955)
(6.04537 0 -4.56864)
(7.60329 0 -4.3865)
(9.0841 0 -4.16454)
(10.4717 0 -3.90287)
(11.7504 0 -3.59995)
(12.9052 0 -3.25258)
(13.9223 0 -2.85626)
(14.7888 0 -2.40553)
(15.4938 0 -1.89416)
(16.028 0 -1.31509)
(16.3837 0 -0.659839)
(16.5537 0 0.0835044)
(16.5294 0 0.9319)
(16.3024 0 1.89724)
(15.8643 0 2.9605)
(15.1847 0 4.06506)
(14.1525 0 5.1138)
(12.599 0 5.8987)
(10.518 0 6.22586)
(8.06358 0 6.19454)
(5.44359 0 5.99671)
(2.7865 0 5.80267)
(0.131951 0 5.71967)
(-2.52029 0 5.78383)
(-5.17189 0 5.96449)
(-7.78862 0 6.16041)
(-10.2513 0 6.20486)
(-12.3547 0 5.90495)
(-13.9367 0 5.14519)
(-14.9876 0 4.10016)
(-15.6722 0 2.98839)
(-16.1088 0 1.91281)
(-16.3313 0 0.932652)
(-16.3484 0 0.0696346)
(-16.1686 0 -0.686937)
(-15.8004 0 -1.35392)
(-15.2513 0 -1.94311)
(-14.5293 0 -2.46276)
(-13.6439 0 -2.91974)
(-12.6064 0 -3.32019)
(-11.4301 0 -3.66956)
(-10.1295 0 -3.97239)
(-8.72041 0 -4.2319)
(-7.21909 0 -4.44966)
(-5.64238 0 -4.62561)
(-4.0073 0 -4.75845)
(-2.33104 0 -4.84635)
(-0.630892 0 -4.88766)
(1.07572 0 -4.88145)
(2.77131 0 -4.82786)
(4.43849 0 -4.72806)
(6.05999 0 -4.58381)
(7.61867 0 -4.39686)
(9.09754 0 -4.16826)
(10.4799 0 -3.89767)
(11.7494 0 -3.58305)
(12.8909 0 -3.2208)
(13.8899 0 -2.80612)
(14.7337 0 -2.33336)
(15.4113 0 -1.7962)
(15.9138 0 -1.18754)
(16.2336 0 -0.49846)
(16.3627 0 0.284151)
(16.2928 0 1.17759)
(16.0153 0 2.18653)
(15.5195 0 3.27851)
(14.7551 0 4.38592)
(13.5777 0 5.38339)
(11.8499 0 6.02626)
(9.63303 0 6.21858)
(7.11234 0 6.11629)
(4.47925 0 5.91047)
(1.82646 0 5.75359)
(-0.825771 0 5.72761)
(-3.48177 0 5.84578)
(-6.13579 0 6.0542)
(-8.72945 0 6.22655)
(-11.1064 0 6.18214)
(-13.06 0 5.73522)
(-14.4669 0 4.85372)
(-15.39 0 3.77634)
(-15.9999 0 2.67546)
(-16.3816 0 1.63361)
(-16.5548 0 0.698685)
(-16.5274 0 -0.120494)
(-16.308 0 -0.839373)
(-15.9048 0 -1.47375)
(-15.3251 0 -2.03438)
(-14.5769 0 -2.52925)
(-13.6698 0 -2.96517)
(-12.6153 0 -3.34817)
(-11.4266 0 -3.68351)
(-10.1179 0 -3.97538)
(-8.70435 0 -4.22656)
(-7.20175 0 -4.43815)
(-5.62632 0 -4.60966)
(-3.99444 0 -4.73943)
(-2.32269 0 -4.82543)
(-0.6278 0 -4.86585)
(1.08369 0 -6.59012)
(2.78884 0 -6.51718)
(4.46198 0 -6.38114)
(6.08387 0 -6.18413)
(7.63571 0 -5.9284)
(9.09933 0 -5.61573)
(10.4575 0 -5.24678)
(11.6941 0 -4.82079)
(12.7944 0 -4.33563)
(13.7456 0 -3.78806)
(14.5362 0 -3.17413)
(15.1563 0 -2.48935)
(15.5974 0 -1.72858)
(15.8524 0 -0.88539)
(15.9154 0 0.0493146)
(15.7846 0 1.08765)
(15.4654 0 2.23867)
(14.9664 0 3.49652)
(14.286 0 4.83763)
(13.4023 0 6.20531)
(12.2347 0 7.46317)
(10.6055 0 8.3836)
(8.39585 0 8.75968)
(5.78708 0 8.73653)
(2.99793 0 8.5962)
(0.149121 0 8.52241)
(-2.69959 0 8.57496)
(-5.49067 0 8.70356)
(-8.11204 0 8.73561)
(-10.3523 0 8.39226)
(-12.016 0 7.5021)
(-13.1998 0 6.25274)
(-14.0876 0 4.87895)
(-14.767 0 3.52427)
(-15.2621 0 2.25012)
(-15.5754 0 1.08175)
(-15.6985 0 0.0264124)
(-15.6255 0 -0.924067)
(-15.3581 0 -1.78152)
(-14.9022 0 -2.55477)
(-14.2651 0 -3.24994)
(-13.4557 0 -3.87187)
(-12.4842 0 -4.42485)
(-11.3625 0 -4.91272)
(-10.1043 0 -5.33864)
(-8.72488 0 -5.70473)
(-7.24115 0 -6.01176)
(-5.67117 0 -6.25912)
(-4.03387 0 -6.44519)
(-2.34883 0 -6.5679)
(-0.63601 0 -6.62544)
(1.08432 0 -6.61679)
(2.79184 0 -6.54211)
(4.46634 0 -6.40268)
(6.08793 0 -6.20043)
(7.63721 0 -5.93738)
(9.09541 0 -5.61493)
(10.4448 0 -5.23334)
(11.6688 0 -4.79149)
(12.7525 0 -4.28693)
(13.6828 0 -3.7163)
(14.4481 0 -3.07562)
(15.0386 0 -2.3605)
(15.446 0 -1.56587)
(15.663 0 -0.685068)
(15.6847 0 0.291603)
(15.511 0 1.37611)
(15.1495 0 2.5736)
(14.6072 0 3.87198)
(13.877 0 5.24039)
(12.9243 0 6.5992)
(11.6363 0 7.78098)
(9.8169 0 8.53366)
(7.45311 0 8.75133)
(4.77072 0 8.66998)
(1.95733 0 8.55009)
(-0.896229 0 8.53015)
(-3.73638 0 8.63163)
(-6.49425 0 8.76451)
(-9.0225 0 8.71137)
(-11.0886 0 8.19143)
(-12.5757 0 7.15588)
(-13.6557 0 5.85102)
(-14.4821 0 4.48077)
(-15.1139 0 3.15807)
(-15.5664 0 1.92653)
(-15.8372 0 0.805176)
(-15.9175 0 -0.20487)
(-15.8038 0 -1.1146)
(-15.4994 0 -1.93552)
(-15.0106 0 -2.67588)
(-14.345 0 -3.34166)
(-13.5114 0 -3.93781)
(-12.5199 0 -4.46868)
(-11.3825 0 -4.93807)
(-10.1126 0 -5.34896)
(-8.72522 0 -5.70315)
(-7.23676 0 -6.00102)
(-5.66477 0 -6.24155)
(-4.02761 0 -6.42281)
(-2.3442 0 -6.54248)
(-0.633888 0 -6.59861)
(1.06442 0 -8.29277)
(2.73783 0 -8.1962)
(4.37615 0 -8.01594)
(5.95843 0 -7.75464)
(7.46451 0 -7.41533)
(8.87524 0 -7.00083)
(10.1729 0 -6.51318)
(11.3414 0 -5.95331)
(12.3665 0 -5.32091)
(13.2361 0 -4.61459)
(13.9397 0 -3.83205)
(14.4686 0 -2.97016)
(14.8156 0 -2.02494)
(14.9749 0 -0.991298)
(14.9429 0 0.137152)
(14.7204 0 1.36684)
(14.3141 0 2.69922)
(13.735 0 4.12452)
(12.9934 0 5.62301)
(12.0952 0 7.16691)
(11.0278 0 8.69672)
(9.71183 0 10.0631)
(7.96275 0 11.0127)
(5.65716 0 11.4014)
(2.98204 0 11.447)
(0.15502 0 11.4225)
(-2.67575 0 11.4299)
(-5.36505 0 11.3839)
(-7.70424 0 11.0225)
(-9.48944 0 10.1067)
(-10.8231 0 8.75348)
(-11.8946 0 7.21894)
(-12.7922 0 5.66245)
(-13.5309 0 4.14809)
(-14.1054 0 2.70506)
(-14.5057 0 1.35384)
(-14.7204 0 0.105311)
(-14.7424 0 -1.04112)
(-14.5709 0 -2.09132)
(-14.2095 0 -3.05123)
(-13.6641 0 -3.92549)
(-12.9422 0 -4.7177)
(-12.0529 0 -5.43063)
(-11.0071 0 -6.06636)
(-9.81767 0 -6.6261)
(-8.49963 0 -7.11004)
(-7.06982 0 -7.51723)
(-5.54687 0 -7.84567)
(-3.95074 0 -8.09271)
(-2.30244 0 -8.25553)
(-0.623719 0 -8.33183)
(1.06325 0 -8.32036)
(2.73615 0 -8.22132)
(4.37291 0 -8.03628)
(5.95194 0 -7.76773)
(7.45246 0 -7.41849)
(8.85483 0 -6.99111)
(10.1409 0 -6.48733)
(11.2941 0 -5.9078)
(12.3002 0 -5.25204)
(13.1468 0 -4.51859)
(13.8235 0 -3.7052)
(14.3215 0 -2.80889)
(14.6338 0 -1.82583)
(14.7549 0 -0.751045)
(14.6822 0 0.42159)
(14.4181 0 1.69728)
(13.9712 0 3.07404)
(13.3528 0 4.53793)
(12.5725 0 6.06684)
(11.6323 0 7.62623)
(10.506 0 9.1343)
(9.07446 0 10.3989)
(7.14136 0 11.1653)
(4.68492 0 11.4133)
(1.94264 0 11.4265)
(-0.900257 0 11.4268)
(-3.70325 0 11.4505)
(-6.30703 0 11.3461)
(-8.47373 0 10.8189)
(-10.0894 0 9.73488)
(-11.3256 0 8.30384)
(-12.3453 0 6.76101)
(-13.2024 0 5.22518)
(-13.9024 0 3.74357)
(-14.4373 0 2.34092)
(-14.7966 0 1.03495)
(-14.9696 0 -0.167818)
(-14.9513 0 -1.27085)
(-14.7424 0 -2.28084)
(-14.3472 0 -3.20383)
(-13.7717 0 -4.04462)
(-13.0238 0 -4.80695)
(-12.1124 0 -5.49373)
(-11.0484 0 -6.10704)
(-9.84461 0 -6.64801)
(-8.51569 0 -7.11663)
(-7.07819 0 -7.51166)
(-5.55025 0 -7.83082)
(-3.95129 0 -8.07117)
(-2.30172 0 -8.22971)
(-0.622643 0 -8.30402)
(1.02088 0 -9.94775)
(2.62456 0 -9.82597)
(4.19134 0 -9.59865)
(5.69933 0 -9.26917)
(7.12771 0 -8.84164)
(8.45703 0 -8.32029)
(9.66959 0 -7.70887)
(10.7497 0 -7.01024)
(11.6837 0 -6.22616)
(12.4604 0 -5.35726)
(13.0703 0 -4.40307)
(13.506 0 -3.3622)
(13.7618 0 -2.23234)
(13.8338 0 -1.01051)
(13.7208 0 0.306443)
(13.425 0 1.72035)
(12.9537 0 3.22824)
(12.3173 0 4.81888)
(11.5273 0 6.47256)
(10.5952 0 8.16126)
(9.5291 0 9.84352)
(8.31785 0 11.4476)
(6.8738 0 12.8142)
(5.02226 0 13.7114)
(2.70858 0 14.1014)
(0.147475 0 14.1891)
(-2.42164 0 14.0991)
(-4.76263 0 13.726)
(-6.6497 0 12.8595)
(-8.11356 0 11.5101)
(-9.33017 0 9.90485)
(-10.3965 0 8.21266)
(-11.3268 0 6.50969)
(-12.1137 0 4.83874)
(-12.7455 0 3.2288)
(-13.2108 0 1.70043)
(-13.4988 0 0.265789)
(-13.6021 0 -1.07126)
(-13.5183 0 -2.31184)
(-13.2486 0 -3.4585)
(-12.797 0 -4.51366)
(-12.1696 0 -5.47907)
(-11.3741 0 -6.3557)
(-10.4204 0 -7.14362)
(-9.3206 0 -7.84192)
(-8.08895 0 -8.44865)
(-6.74202 0 -8.96084)
(-5.29841 0 -9.37478)
(-3.77843 0 -9.68639)
(-2.20382 0 -9.89184)
(-0.597245 0 -9.98812)
(1.01799 0 -9.97364)
(2.61846 0 -9.84867)
(4.18097 0 -9.61519)
(5.68306 0 -9.27649)
(7.10334 0 -8.83653)
(8.4219 0 -8.29932)
(9.62065 0 -7.66843)
(10.6836 0 -6.94657)
(11.5971 0 -6.1354)
(12.3495 0 -5.23559)
(12.9318 0 -4.2468)
(13.3363 0 -3.16788)
(13.5578 0 -1.99686)
(13.5927 0 -0.731237)
(13.4407 0 0.631356)
(13.1055 0 2.09115)
(12.5956 0 3.64239)
(11.9221 0 5.27055)
(11.0967 0 6.95313)
(10.1304 0 8.6581)
(9.02804 0 10.3374)
(7.76115 0 11.8975)
(6.20347 0 13.1392)
(4.18706 0 13.8638)
(1.76142 0 14.1419)
(-0.827098 0 14.1846)
(-3.34831 0 14.038)
(-5.55455 0 13.5305)
(-7.28339 0 12.4935)
(-8.65133 0 11.0421)
(-9.82074 0 9.40709)
(-10.8521 0 7.71814)
(-11.748 0 6.03518)
(-12.4989 0 4.39562)
(-13.0932 0 2.82499)
(-13.5195 0 1.34094)
(-13.7679 0 -0.0476843)
(-13.8326 0 -1.33954)
(-13.7122 0 -2.53703)
(-13.4088 0 -3.64336)
(-12.9268 0 -4.66138)
(-12.2725 0 -5.59315)
(-11.4536 0 -6.43985)
(-10.4801 0 -7.20166)
(-9.36392 0 -7.87767)
(-8.11916 0 -8.46581)
(-6.76209 0 -8.96296)
(-5.3109 0 -9.36521)
(-3.78544 0 -9.66829)
(-2.20685 0 -9.86822)
(-0.597192 0 -9.96192)
(0.957612 0 -11.5153)
(2.46075 0 -11.3675)
(3.92626 0 -11.0915)
(5.332 0 -10.6919)
(6.65709 0 -10.1739)
(7.88228 0 -9.54364)
(8.99031 0 -8.80677)
(9.96617 0 -7.96839)
(10.7972 0 -7.03252)
(11.4731 0 -6.00201)
(11.9858 0 -4.87845)
(12.3292 0 -3.66236)
(12.4994 0 -2.35341)
(12.4944 0 -0.950885)
(12.3148 0 0.545383)
(11.9644 0 2.13343)
(11.4505 0 3.80661)
(10.7834 0 5.55151)
(9.97475 0 7.34767)
(9.03711 0 9.16765)
(7.98248 0 10.9752)
(6.81973 0 12.7186)
(5.53465 0 14.3051)
(4.03569 0 15.5615)
(2.20991 0 16.313)
(0.127529 0 16.553)
(-1.96526 0 16.3318)
(-3.81686 0 15.6062)
(-5.33575 0 14.3701)
(-6.62773 0 12.7874)
(-7.7913 0 11.0375)
(-8.84509 0 9.21792)
(-9.78064 0 7.38224)
(-10.586 0 5.56749)
(-11.2486 0 3.80186)
(-11.7564 0 2.10663)
(-12.0993 0 0.496093)
(-12.2695 0 -1.0222)
(-12.2632 0 -2.44549)
(-12.0798 0 -3.77319)
(-11.7214 0 -5.00531)
(-11.1922 0 -6.14152)
(-10.4986 0 -7.18073)
(-9.64926 0 -8.12081)
(-8.65511 0 -8.95853)
(-7.52956 0 -9.68957)
(-6.28847 0 -10.3087)
(-4.94998 0 -10.8102)
(-3.53425 0 -11.1882)
(-2.06304 0 -11.4376)
(-0.559318 0 -11.5545)
(0.953226 0 -11.5369)
(2.45072 0 -11.3851)
(3.90963 0 -11.1018)
(5.30725 0 -10.691)
(6.62219 0 -10.1583)
(7.83479 0 -9.50938)
(8.92748 0 -8.75001)
(9.88502 0 -7.88517)
(10.6947 0 -6.9189)
(11.346 0 -5.85415)
(11.8312 0 -4.69276)
(12.1442 0 -3.4356)
(12.2815 0 -2.08285)
(12.2415 0 -0.634552)
(12.0257 0 0.908302)
(11.6389 0 2.54196)
(11.0895 0 4.25727)
(10.3884 0 6.03806)
(9.54779 0 7.86134)
(8.58025 0 9.69678)
(7.49718 0 11.5045)
(6.30442 0 13.223)
(4.96592 0 14.7355)
(3.36576 0 15.8478)
(1.43177 0 16.4352)
(-0.683936 0 16.5355)
(-2.71992 0 16.1686)
(-4.4561 0 15.2769)
(-5.88603 0 13.9134)
(-7.13402 0 12.2728)
(-8.26896 0 10.506)
(-9.29404 0 8.69108)
(-10.1991 0 6.87416)
(-10.972 0 5.08901)
(-11.6001 0 3.36111)
(-12.072 0 1.70914)
(-12.3783 0 0.144628)
(-12.5124 0 -1.32723)
(-12.4714 0 -2.70526)
(-12.2556 0 -3.98987)
(-11.8674 0 -5.18176)
(-11.3113 0 -6.28106)
(-10.5939 0 -7.28701)
(-9.72381 0 -8.19767)
(-8.712 0 -9.00991)
(-7.57173 0 -9.71938)
(-6.31861 0 -10.3208)
(-4.97046 0 -10.8083)
(-3.54697 0 -11.1761)
(-2.06942 0 -11.4188)
(-0.560197 0 -11.5325)
(0.878362 0 -12.9687)
(2.25599 0 -12.7946)
(3.59627 0 -12.4699)
(4.87736 0 -12)
(6.07881 0 -11.3919)
(7.18202 0 -10.6535)
(8.17057 0 -9.79272)
(9.03043 0 -8.81708)
(9.7501 0 -7.73303)
(10.3206 0 -6.54578)
(10.7352 0 -5.25916)
(10.9895 0 -3.87583)
(11.0813 0 -2.39756)
(11.0106 0 -0.825958)
(10.7796 0 0.836447)
(10.3934 0 2.58464)
(9.86012 0 4.40908)
(9.19002 0 6.29427)
(8.39521 0 8.21831)
(7.48922 0 10.1529)
(6.48647 0 12.0624)
(5.40194 0 13.9014)
(4.24917 0 15.5993)
(3.01136 0 17.0275)
(1.62877 0 17.9947)
(0.101064 0 18.3452)
(-1.43356 0 18.028)
(-2.82849 0 17.0872)
(-4.07238 0 15.6708)
(-5.22546 0 13.9717)
(-6.30886 0 12.1241)
(-7.30983 0 10.2013)
(-8.21321 0 8.25004)
(-9.00447 0 6.30627)
(-9.6699 0 4.39906)
(-10.1973 0 2.55111)
(-10.576 0 0.778815)
(-10.7981 0 -0.907372)
(-10.8582 0 -2.50154)
(-10.754 0 -4.00032)
(-10.4857 0 -5.40126)
(-10.0557 0 -6.70179)
(-9.46897 0 -7.89855)
(-8.7325 0 -8.98706)
(-7.85598 0 -9.96158)
(-6.85165 0 -10.8153)
(-5.73436 0 -11.5404)
(-4.52141 0 -12.129)
(-3.2323 0 -12.5733)
(-1.88834 0 -12.8668)
(-0.51217 0 -13.0044)
(0.872751 0 -12.9837)
(2.24275 0 -12.8051)
(3.57454 0 -12.4717)
(4.84577 0 -11.989)
(6.03555 0 -11.364)
(7.12493 0 -10.6046)
(8.09723 0 -9.71862)
(8.93828 0 -8.71369)
(9.6365 0 -7.59638)
(10.1829 0 -6.37208)
(10.571 0 -5.04498)
(10.7966 0 -3.61818)
(10.8578 0 -2.09416)
(10.7551 0 -0.47547)
(10.4915 0 1.234)
(10.0731 0 3.02732)
(9.50853 0 4.89261)
(8.80896 0 6.81182)
(7.98702 0 8.76066)
(7.0567 0 10.7083)
(6.03264 0 12.6165)
(4.93033 0 14.4343)
(3.75796 0 16.0756)
(2.48019 0 17.3868)
(1.04149 0 18.1745)
(-0.508662 0 18.3176)
(-2.00689 0 17.7968)
(-3.34643 0 16.6902)
(-4.55711 0 15.1747)
(-5.69251 0 13.4304)
(-6.7572 0 11.5676)
(-7.73605 0 9.6476)
(-8.61432 0 7.71261)
(-9.37775 0 5.79619)
(-10.0131 0 3.92497)
(-10.5088 0 2.11917)
(-10.855 0 0.392632)
(-11.0444 0 -1.24642)
(-11.0727 0 -2.79382)
(-10.9382 0 -4.24742)
(-10.6416 0 -5.60566)
(-10.1857 0 -6.86659)
(-9.57542 0 -8.02726)
(-8.81805 0 -9.08348)
(-7.92326 0 -10.0297)
(-6.90322 0 -10.8592)
(-5.77259 0 -11.5642)
(-4.54839 0 -12.1368)
(-3.24975 0 -12.5693)
(-1.89752 0 -12.855)
(-0.513847 0 -12.9889)
(0.786177 0 -14.2852)
(2.01814 0 -14.0855)
(3.21393 0 -13.713)
(4.3525 0 -13.1745)
(5.4143 0 -12.4786)
(6.38177 0 -11.6354)
(7.23965 0 -10.6552)
(7.97518 0 -9.54796)
(8.57824 0 -8.32268)
(9.04127 0 -6.98709)
(9.3592 0 -5.54742)
(9.52931 0 -4.00856)
(9.55114 0 -2.37451)
(9.42644 0 -0.649176)
(9.15926 0 1.16249)
(8.75609 0 3.05286)
(8.22589 0 5.00995)
(7.57976 0 7.01629)
(6.83066 0 9.04823)
(5.99346 0 11.0757)
(5.08512 0 13.0615)
(4.12512 0 14.9589)
(3.13693 0 16.7024)
(2.13875 0 18.1802)
(1.12232 0 19.2122)
(0.0758987 0 19.6001)
(-0.971883 0 19.2496)
(-1.9892 0 18.2425)
(-2.98517 0 16.7735)
(-3.97007 0 15.0275)
(-4.92708 0 13.121)
(-5.83241 0 11.1215)
(-6.66621 0 9.07661)
(-7.41129 0 7.02404)
(-8.05255 0 4.99461)
(-8.57684 0 3.01275)
(-8.97287 0 1.09685)
(-9.23155 0 -0.740135)
(-9.34629 0 -2.48964)
(-9.31303 0 -4.14573)
(-9.1301 0 -5.70357)
(-8.7982 0 -7.15824)
(-8.32038 0 -8.504)
(-7.70217 0 -9.73384)
(-6.95173 0 -10.8394)
(-6.0799 0 -11.8112)
(-5.10022 0 -12.639)
(-4.02881 0 -13.3123)
(-2.88408 0 -13.8213)
(-1.68642 0 -14.1578)
(-0.457614 0 -14.3156)
(0.77966 0 -14.2919)
(2.0025 0 -14.087)
(3.18841 0 -13.7048)
(4.3159 0 -13.1521)
(5.36506 0 -12.4375)
(6.31805 0 -11.5711)
(7.1594 0 -10.5634)
(7.87626 0 -9.42447)
(8.45851 0 -8.16356)
(8.89867 0 -6.78869)
(9.19188 0 -5.3065)
(9.3357 0 -3.72246)
(9.33007 0 -2.0414)
(9.17726 0 -0.26832)
(8.88198 0 1.59033)
(8.45149 0 3.52496)
(7.89548 0 5.5213)
(7.22574 0 7.55941)
(6.45594 0 9.61323)
(5.60169 0 11.6503)
(4.68077 0 13.6305)
(3.71408 0 15.503)
(2.72559 0 17.1906)
(1.72603 0 18.5589)
(0.700154 0 19.4107)
(-0.351583 0 19.569)
(-1.39112 0 18.9972)
(-2.4007 0 17.8284)
(-3.39669 0 16.2664)
(-4.37988 0 14.4743)
(-5.32847 0 12.5485)
(-6.21997 0 10.5477)
(-7.03566 0 8.51567)
(-7.75917 0 6.48772)
(-8.37613 0 4.49216)
(-8.87407 0 2.55099)
(-9.2424 0 0.68017)
(-9.4728 0 -1.10956)
(-9.55942 0 -2.81147)
(-9.49883 0 -4.421)
(-9.28987 0 -5.93434)
(-8.93358 0 -7.34731)
(-8.43328 0 -8.65469)
(-7.79469 0 -9.84987)
(-7.02601 0 -10.9248)
(-6.13809 0 -11.8701)
(-5.14432 0 -12.6757)
(-4.06062 0 -13.3312)
(-2.90511 0 -13.827)
(-1.69775 0 -14.1547)
(-0.459927 0 -14.3085)
(0.683521 0 -15.4468)
(1.75354 0 -15.2224)
(2.78938 0 -14.8043)
(3.77123 0 -14.2004)
(4.68091 0 -13.4212)
(5.50222 0 -12.4789)
(6.22136 0 -11.3862)
(6.82709 0 -10.1557)
(7.31083 0 -8.79914)
(7.66662 0 -7.32676)
(7.89104 0 -5.74723)
(7.98309 0 -4.0678)
(7.94405 0 -2.29472)
(7.7774 0 -0.434112)
(7.48885 0 1.50677)
(7.08634 0 3.51797)
(6.58 0 5.58535)
(5.98196 0 7.68939)
(5.30633 0 9.80446)
(4.5694 0 11.8982)
(3.79011 0 13.9304)
(2.99082 0 15.8507)
(2.19856 0 17.5913)
(1.44151 0 19.0473)
(0.731971 0 20.0567)
(0.0550068 0 20.4355)
(-0.620161 0 20.0918)
(-1.32476 0 19.1053)
(-2.0755 0 17.6576)
(-2.86206 0 15.9151)
(-3.65657 0 13.9861)
(-4.43152 0 11.9402)
(-5.16413 0 9.82877)
(-5.83515 0 7.69249)
(-6.42803 0 5.56454)
(-6.92845 0 3.47139)
(-7.32409 0 1.4335)
(-7.60467 0 -0.53399)
(-7.76216 0 -2.4201)
(-7.79082 0 -4.21653)
(-7.68724 0 -5.91611)
(-7.45031 0 -7.51154)
(-7.08136 0 -8.99461)
(-6.58424 0 -10.3557)
(-5.96545 0 -11.5839)
(-5.23424 0 -12.6668)
(-4.40259 0 -13.5915)
(-3.48512 0 -14.3452)
(-2.49881 0 -14.9158)
(-1.46264 0 -15.2933)
(-0.397102 0 -15.4705)
(0.676434 0 -15.4439)
(1.73635 0 -15.2139)
(2.76143 0 -14.7852)
(3.73154 0 -14.1657)
(4.62817 0 -13.3662)
(5.43491 0 -12.3989)
(6.13783 0 -11.2769)
(6.72565 0 -10.0128)
(7.18984 0 -8.61881)
(7.52459 0 -7.10548)
(7.72673 0 -5.48204)
(7.7956 0 -3.7564)
(7.73288 0 -1.93575)
(7.54263 0 -0.027425)
(7.23115 0 1.95974)
(6.80708 0 4.01378)
(6.28124 0 6.11827)
(5.66649 0 8.25124)
(4.97768 0 10.3845)
(4.23203 0 12.4832)
(3.44959 0 14.5039)
(2.65432 0 16.3921)
(1.87477 0 18.0702)
(1.13625 0 19.4155)
(0.441865 0 20.2497)
(-0.230554 0 20.4052)
(-0.913372 0 19.8467)
(-1.63491 0 18.702)
(-2.40337 0 17.1584)
(-3.20033 0 15.3626)
(-3.99679 0 13.4073)
(-4.76701 0 11.3546)
(-5.4896 0 9.25168)
(-6.1464 0 7.13657)
(-6.72171 0 5.03981)
(-7.20197 0 2.9854)
(-7.57553 0 0.991332)
(-7.83284 0 -0.929428)
(-7.96653 0 -2.76781)
(-7.97149 0 -4.517)
(-7.8448 0 -6.17094)
(-7.58577 0 -7.7232)
(-7.19603 0 -9.16618)
(-6.67966 0 -10.4908)
(-6.04328 0 -11.6863)
(-5.29617 0 -12.7409)
(-4.45028 0 -13.6417)
(-3.52003 0 -14.3761)
(-2.5222 0 -14.9323)
(-1.47544 0 -15.3002)
(-0.399877 0 -15.4729)
(0.572363 0 -16.4387)
(1.46726 0 -16.1914)
(2.33072 0 -15.7307)
(3.14466 0 -15.0661)
(3.89256 0 -14.2097)
(4.55999 0 -13.1759)
(5.13484 0 -11.9801)
(5.60758 0 -10.6374)
(5.97132 0 -9.16223)
(6.22177 0 -7.56733)
(6.35717 0 -5.86391)
(6.37817 0 -4.06158)
(6.2877 0 -2.16884)
(6.09087 0 -0.194002)
(5.79489 0 1.85353)
(5.40907 0 3.96169)
(4.94466 0 6.11431)
(4.41481 0 8.2899)
(3.83457 0 10.4607)
(3.22112 0 12.5919)
(2.59421 0 14.6401)
(1.97664 0 16.5514)
(1.39454 0 18.255)
(0.874223 0 19.6513)
(0.428414 0 20.6005)
(0.037317 0 20.9516)
(-0.350984 0 20.6309)
(-0.789948 0 19.7022)
(-1.30233 0 18.3143)
(-1.87726 0 16.6097)
(-2.48865 0 14.6905)
(-3.11005 0 12.6291)
(-3.7183 0 10.4802)
(-4.29336 0 8.28789)
(-4.81778 0 6.08788)
(-5.2763 0 3.90879)
(-5.65558 0 1.77306)
(-5.9442 0 -0.302095)
(-6.13275 0 -2.30351)
(-6.21399 0 -4.22066)
(-6.18284 0 -6.04409)
(-6.03653 0 -7.76413)
(-5.77468 0 -9.37008)
(-5.39942 0 -10.8498)
(-4.91554 0 -12.1895)
(-4.33055 0 -13.3741)
(-3.65465 0 -14.3882)
(-2.90067 0 -15.2161)
(-2.08381 0 -15.8438)
(-1.22128 0 -16.2595)
(-0.331791 0 -16.4548)
(0.565046 0 -16.4254)
(1.44937 0 -16.1721)
(2.30174 0 -15.7001)
(3.10377 0 -15.0189)
(3.83876 0 -14.1409)
(4.49207 0 -13.0808)
(5.05156 0 -11.8542)
(5.50771 0 -10.4765)
(5.85372 0 -8.96252)
(6.08552 0 -7.32561)
(6.20164 0 -5.57752)
(6.20309 0 -3.72863)
(6.09327 0 -1.78846)
(5.87781 0 0.233396)
(5.56455 0 2.32586)
(5.16341 0 4.47484)
(4.68634 0 6.66185)
(4.14714 0 8.86291)
(3.56164 0 11.0476)
(2.94791 0 13.1783)
(2.32676 0 15.2084)
(1.72224 0 17.0794)
(1.16141 0 18.7127)
(0.668292 0 19.9957)
(0.246336 0 20.7782)
(-0.136892 0 20.9239)
(-0.538241 0 20.4043)
(-1.00317 0 19.3229)
(-1.54178 0 17.8344)
(-2.13582 0 16.0683)
(-2.75822 0 14.1152)
(-3.38367 0 12.0404)
(-3.99022 0 9.89501)
(-4.55884 0 7.71978)
(-5.07293 0 5.5477)
(-5.51796 0 3.40478)
(-5.88127 0 1.31103)
(-6.15211 0 -0.718587)
(-6.3217 0 -2.67283)
(-6.38338 0 -4.54275)
(-6.3326 0 -6.32007)
(-6.16702 0 -7.99609)
(-5.88662 0 -9.56082)
(-5.49381 0 -11.0026)
(-4.99354 0 -12.3083)
(-4.39341 0 -13.4631)
(-3.70363 0 -14.4519)
(-2.93694 0 -15.2593)
(-2.10836 0 -15.8716)
(-1.23486 0 -16.2771)
(-0.334853 0 -16.4675)
(0.454283 0 -17.249)
(1.16337 0 -16.9808)
(1.84449 0 -16.4817)
(2.48165 0 -15.7623)
(3.06042 0 -14.8366)
(3.56837 0 -13.7212)
(3.99536 0 -12.4338)
(4.33372 0 -10.9922)
(4.57833 0 -9.41335)
(4.7266 0 -7.71263)
(4.77836 0 -5.90365)
(4.73581 0 -3.99835)
(4.60337 0 -2.00742)
(4.38753 0 0.0586878)
(4.09683 0 2.18856)
(3.74167 0 4.3682)
(3.3342 0 6.5796)
(2.88822 0 8.79948)
(2.41921 0 10.9982)
(1.94436 0 13.1386)
(1.48283 0 15.1751)
(1.05561 0 17.0512)
(0.684807 0 18.6956)
(0.389988 0 20.0157)
(0.176928 0 20.894)
(0.0213855 0 21.2135)
(-0.131371 0 20.9192)
(-0.337557 0 20.0588)
(-0.624175 0 18.7469)
(-0.98715 0 17.1022)
(-1.40734 0 15.2191)
(-1.86253 0 13.17)
(-2.3315 0 11.0121)
(-2.79489 0 8.79197)
(-3.23527 0 6.54747)
(-3.63697 0 4.30918)
(-3.986 0 2.10139)
(-4.27005 0 -0.0568256)
(-4.47861 0 -2.15032)
(-4.60308 0 -4.16645)
(-4.63699 0 -6.09358)
(-4.57604 0 -7.91972)
(-4.41825 0 -9.63173)
(-4.16409 0 -11.2149)
(-3.8166 0 -12.6528)
(-3.38142 0 -13.9277)
(-2.86684 0 -15.0215)
(-2.28364 0 -15.9161)
(-1.64492 0 -16.5952)
(-0.965731 0 -17.0454)
(-0.262599 0 -17.2569)
(0.447063 0 -17.2251)
(1.1456 0 -16.9506)
(1.81578 0 -16.4396)
(2.4414 0 -15.7028)
(3.00787 0 -14.7546)
(3.50268 0 -13.6118)
(3.91567 0 -12.2925)
(4.23925 0 -10.815)
(4.46845 0 -9.19664)
(4.60092 0 -7.45341)
(4.63683 0 -5.59962)
(4.57878 0 -3.64805)
(4.43166 0 -1.61048)
(4.2025 0 0.501289)
(3.90041 0 2.67413)
(3.53639 0 4.89199)
(3.12319 0 7.13453)
(2.67524 0 9.37594)
(2.20864 0 11.5838)
(1.74134 0 13.7181)
(1.29319 0 15.7299)
(0.885834 0 17.5585)
(0.5413 0 19.1264)
(0.276339 0 20.3324)
(0.0881969 0 21.0544)
(-0.0592383 0 21.1886)
(-0.225472 0 20.7139)
(-0.45902 0 19.7079)
(-0.775113 0 18.2926)
(-1.16278 0 16.5796)
(-1.60109 0 14.6553)
(-2.06806 0 12.5866)
(-2.54314 0 10.4269)
(-3.00771 0 8.21927)
(-3.44503 0 5.99893)
(-3.84007 0 3.79373)
(-4.17946 0 1.62547)
(-4.45149 0 -0.489019)
(-4.64622 0 -2.53655)
(-4.75567 0 -4.50611)
(-4.77384 0 -6.38731)
(-4.69692 0 -8.16918)
(-4.5233 0 -9.8394)
(-4.25377 0 -11.3839)
(-3.89159 0 -12.7868)
(-3.44254 0 -14.0308)
(-2.91496 0 -15.0982)
(-2.3196 0 -15.9714)
(-1.66946 0 -16.6344)
(-0.979415 0 -17.0738)
(-0.265779 0 -17.2802)
(0.330573 0 -17.8679)
(0.845191 0 -17.5816)
(1.33597 0 -17.049)
(1.78942 0 -16.282)
(2.19351 0 -15.2964)
(2.53811 0 -14.1109)
(2.81523 0 -12.7455)
(3.01918 0 -11.2204)
(3.14667 0 -9.55511)
(3.19676 0 -7.76736)
(3.1708 0 -5.87314)
(3.07235 0 -3.8866)
(2.90708 0 -1.82057)
(2.68262 0 0.312531)
(2.40846 0 2.4994)
(2.09578 0 4.72433)
(1.75719 0 6.96776)
(1.40666 0 9.20492)
(1.05939 0 11.4046)
(0.731723 0 13.5284)
(0.44092 0 15.5292)
(0.204641 0 17.35)
(0.0394477 0 18.9217)
(-0.0430718 0 20.1602)
(-0.0450539 0 20.9687)
(0.00640975 0 21.2584)
(0.0603167 0 20.9893)
(0.0645332 0 20.196)
(-0.0102009 0 18.965)
(-0.167519 0 17.3934)
(-0.396405 0 15.5662)
(-0.680415 0 13.5533)
(-1.00183 0 11.4126)
(-1.34325 0 9.19169)
(-1.68818 0 6.92997)
(-2.02127 0 4.65953)
(-2.32837 0 2.40615)
(-2.59671 0 0.190509)
(-2.81501 0 -1.97049)
(-2.97371 0 -4.06228)
(-3.06517 0 -6.07114)
(-3.08379 0 -7.98288)
(-3.02617 0 -9.78205)
(-2.89122 0 -11.4514)
(-2.68023 0 -12.9721)
(-2.39695 0 -14.3239)
(-2.04757 0 -15.486)
(-1.64063 0 -16.4381)
(-1.18683 0 -17.1618)
(-0.698729 0 -17.6419)
(-0.19027 0 -17.8676)
(0.323751 0 -17.8336)
(0.828304 0 -17.5408)
(1.30876 0 -16.9959)
(1.75147 0 -16.211)