/*--------------------------------*- C++ -*----------------------------------*\
| =========                 |                                                 |
| \\      /  F ield         | OpenFOAM: The Open Source CFD Toolbox           |
|  \\    /   O peration     | Version:  2.3.0                                 |
|   \\  /    A nd           | Web:      www.OpenFOAM.org                      |
|    \\/     M anipulation  |                                                 |
\*---------------------------------------------------------------------------*/
FoamFile
{
    version     2.0;
    format      ascii;
    class       volVectorField;
    location    "11000";
    object      U;
}
// * * * * * * * * * * * * * * * * * * * * * * * * * * * * * * * * * * * * * //

dimensions      [0 1 -1 0 0 0 0];

internalField   nonuniform List<vector> 
3060
(
(1.69477 0 -2.34647)
(4.31089 0 -2.25678)
(6.80352 0 -2.08808)
(9.09848 0 -1.83996)
(11.1238 0 -1.51335)
(12.8131 0 -1.11408)
(14.1115 0 -0.659123)
(14.9863 0 -0.184421)
(15.4406 0 0.252684)
(15.5283 0 0.589445)
(15.3428 0 0.788113)
(14.9841 0 0.858766)
(14.4994 0 0.843755)
(13.896 0 0.784028)
(13.1468 0 0.705314)
(12.2191 0 0.624168)
(11.0974 0 0.569466)
(9.78882 0 0.562776)
(8.31746 0 0.576081)
(6.75553 0 0.558513)
(5.21859 0 0.497641)
(3.81015 0 0.406624)
(2.60021 0 0.306533)
(1.60854 0 0.218767)
(0.80011 0 0.15862)
(0.101123 0 0.133631)
(-0.580684 0 0.146114)
(-1.33994 0 0.194914)
(-2.25841 0 0.274536)
(-3.38609 0 0.372264)
(-4.72132 0 0.467909)
(-6.20699 0 0.539376)
(-7.7491 0 0.571031)
(-9.23007 0 0.56325)
(-10.5586 0 0.559141)
(-11.6986 0 0.598679)
(-12.6362 0 0.671668)
(-13.3798 0 0.745641)
(-13.9576 0 0.799352)
(-14.397 0 0.80823)
(-14.6957 0 0.735247)
(-14.8151 0 0.542037)
(-14.6675 0 0.218613)
(-14.1687 0 -0.202913)
(-13.264 0 -0.664098)
(-11.9491 0 -1.10765)
(-10.256 0 -1.49628)
(-8.23948 0 -1.81166)
(-5.96678 0 -2.04689)
(-3.5114 0 -2.20029)
(-0.949624 0 -2.27164)
(1.64083 0 -2.26061)
(4.18172 0 -2.16732)
(6.59568 0 -1.99203)
(8.80695 0 -1.73508)
(10.7433 0 -1.3991)
(12.3399 0 -0.993307)
(13.547 0 -0.540401)
(14.3408 0 -0.0834931)
(14.7382 0 0.317023)
(14.805 0 0.606811)
(14.631 0 0.765098)
(14.2928 0 0.812322)
(13.8169 0 0.788182)
(13.1986 0 0.726987)
(12.405 0 0.65083)
(11.4128 0 0.583567)
(10.2202 0 0.556868)
(8.84547 0 0.567367)
(7.3368 0 0.56721)
(5.79835 0 0.523704)
(4.34508 0 0.443714)
(3.06209 0 0.345321)
(1.99271 0 0.250735)
(1.12352 0 0.178484)
(0.393812 0 0.139135)
(-0.283296 0 0.136748)
(-1.00318 0 0.171553)
(-1.85484 0 0.240139)
(-2.90382 0 0.333038)
(-4.17132 0 0.43285)
(-5.62232 0 0.517601)
(-7.17747 0 0.567934)
(-8.72564 0 0.573753)
(-10.1573 0 0.560531)
(-11.4171 0 0.579795)
(-12.4863 0 0.645072)
(-13.3636 0 0.727601)
(-14.0696 0 0.802772)
(-14.6395 0 0.853534)
(-15.0919 0 0.849793)
(-15.4103 0 0.74822)
(-15.5332 0 0.510924)
(-15.3533 0 0.141324)
(-14.788 0 -0.312333)
(-13.7967 0 -0.7865)
(-12.3878 0 -1.22896)
(-10.6012 0 -1.60958)
(-8.49571 0 -1.91517)
(-6.13984 0 -2.14172)
(-3.60628 0 -2.28895)
(-0.969577 0 -2.35723)
(1.39834 0 -3.67068)
(3.57064 0 -3.56543)
(5.67902 0 -3.37003)
(7.68974 0 -3.08967)
(9.57759 0 -2.73405)
(11.3299 0 -2.31994)
(12.9496 0 -1.874)
(14.455 0 -1.43283)
(15.8704 0 -1.03536)
(17.2079 0 -0.70503)
(18.4471 0 -0.432516)
(19.5293 0 -0.176779)
(20.3811 0 0.113182)
(20.9315 0 0.480154)
(21.1111 0 0.944433)
(20.8424 0 1.48114)
(20.0316 0 1.99584)
(18.6498 0 2.39186)
(16.7371 0 2.63443)
(14.3836 0 2.70161)
(11.7651 0 2.60296)
(9.09122 0 2.35589)
(6.54953 0 2.01927)
(4.25058 0 1.68541)
(2.19797 0 1.43859)
(0.306575 0 1.33076)
(-1.55648 0 1.38145)
(-3.53069 0 1.58073)
(-5.72164 0 1.88777)
(-8.15887 0 2.2274)
(-10.7656 0 2.50431)
(-13.3711 0 2.64443)
(-15.7686 0 2.62202)
(-17.7635 0 2.4209)
(-19.2396 0 2.05567)
(-20.1493 0 1.55471)
(-20.4949 0 0.99888)
(-20.3632 0 0.496738)
(-19.8381 0 0.0907281)
(-18.9929 0 -0.231041)
(-17.9019 0 -0.507292)
(-16.6412 0 -0.786585)
(-15.2733 0 -1.11031)
(-13.8256 0 -1.49221)
(-12.2928 0 -1.91453)
(-10.6542 0 -2.34154)
(-8.89328 0 -2.73725)
(-7.00741 0 -3.07434)
(-5.00959 0 -3.33514)
(-2.92527 0 -3.50926)
(-0.788348 0 -3.59115)
(1.36297 0 -3.57848)
(3.48948 0 -3.47159)
(5.55372 0 -3.2736)
(7.52366 0 -2.99114)
(9.37679 0 -2.63625)
(11.1041 0 -2.22905)
(12.7123 0 -1.79949)
(14.2206 0 -1.38483)
(15.6477 0 -1.01796)
(16.9914 0 -0.708967)
(18.2138 0 -0.435203)
(19.2465 0 -0.151309)
(20.0136 0 0.189974)
(20.4404 0 0.622325)
(20.4534 0 1.14625)
(19.963 0 1.69944)
(18.898 0 2.16843)
(17.2767 0 2.4921)
(15.1583 0 2.64545)
(12.6836 0 2.62269)
(10.0581 0 2.44105)
(7.48329 0 2.13853)
(5.10904 0 1.7986)
(2.98292 0 1.51451)
(1.0509 0 1.35252)
(-0.80584 0 1.34465)
(-2.72885 0 1.49289)
(-4.84225 0 1.76956)
(-7.21116 0 2.11338)
(-9.80311 0 2.43397)
(-12.4814 0 2.64467)
(-15.0491 0 2.70075)
(-17.298 0 2.58546)
(-19.0727 0 2.29911)
(-20.3034 0 1.86609)
(-20.9603 0 1.33343)
(-21.099 0 0.809706)
(-20.8123 0 0.371569)
(-20.1734 0 0.028541)
(-19.2523 0 -0.247495)
(-18.1202 0 -0.502796)
(-16.8498 0 -0.787961)
(-15.4909 0 -1.13725)
(-14.0532 0 -1.54992)
(-12.5191 0 -1.99635)
(-10.8646 0 -2.43688)
(-9.07507 0 -2.83728)
(-7.152 0 -3.17376)
(-5.11184 0 -3.43177)
(-2.98249 0 -3.60308)
(-0.799382 0 -3.68333)
(1.32809 0 -5.83843)
(3.39713 0 -5.69042)
(5.42118 0 -5.41763)
(7.37714 0 -5.03106)
(9.24765 0 -4.54884)
(11.0218 0 -3.99821)
(12.6937 0 -3.41601)
(14.2574 0 -2.84445)
(15.6998 0 -2.31827)
(16.9955 0 -1.84707)
(18.1108 0 -1.40802)
(19.0155 0 -0.958463)
(19.6922 0 -0.456982)
(20.1376 0 0.127128)
(20.3605 0 0.811981)
(20.3746 0 1.60528)
(20.1675 0 2.51497)
(19.6542 0 3.54348)
(18.6831 0 4.5722)
(17.0972 0 5.29366)
(14.8279 0 5.55245)
(12.0362 0 5.40194)
(9.02048 0 4.95845)
(6.03611 0 4.41137)
(3.19441 0 3.96549)
(0.472563 0 3.76039)
(-2.22348 0 3.85127)
(-4.99767 0 4.21027)
(-7.90455 0 4.7257)
(-10.8841 0 5.20774)
(-13.7243 0 5.44823)
(-16.124 0 5.30845)
(-17.8656 0 4.71422)
(-18.9532 0 3.73177)
(-19.535 0 2.67205)
(-19.77 0 1.71656)
(-19.767 0 0.879884)
(-19.5526 0 0.151555)
(-19.1156 0 -0.474462)
(-18.4454 0 -1.01241)
(-17.5434 0 -1.48903)
(-16.4261 0 -1.94202)
(-15.1229 0 -2.41195)
(-13.6682 0 -2.9236)
(-12.0902 0 -3.47273)
(-10.4059 0 -4.02915)
(-8.62415 0 -4.55267)
(-6.75305 0 -5.00659)
(-4.80464 0 -5.36322)
(-2.79681 0 -5.60399)
(-0.75264 0 -5.71793)
(1.30154 0 -5.70027)
(3.33848 0 -5.55173)
(5.3325 0 -5.27863)
(7.26175 0 -4.89382)
(9.10992 0 -4.41815)
(10.8663 0 -3.88191)
(12.5233 0 -3.32357)
(14.0705 0 -2.78233)
(15.488 0 -2.2828)
(16.7449 0 -1.82091)
(17.807 0 -1.36564)
(18.648 0 -0.875829)
(19.2554 0 -0.316326)
(19.6313 0 0.336338)
(19.7886 0 1.09329)
(19.7333 0 1.9605)
(19.4196 0 2.94932)
(18.7179 0 4.01614)
(17.4675 0 4.92081)
(15.5391 0 5.38907)
(12.993 0 5.4165)
(10.0873 0 5.09435)
(7.11235 0 4.58202)
(4.24093 0 4.09269)
(1.49611 0 3.79832)
(-1.19623 0 3.78762)
(-3.94287 0 4.06602)
(-6.82507 0 4.55606)
(-9.8353 0 5.09647)
(-12.82 0 5.47598)
(-15.4972 0 5.52557)
(-17.5889 0 5.14504)
(-18.995 0 4.31041)
(-19.827 0 3.25719)
(-20.2442 0 2.25728)
(-20.3869 0 1.38018)
(-20.317 0 0.616491)
(-20.0354 0 -0.0402249)
(-19.5279 0 -0.599857)
(-18.7886 0 -1.08394)
(-17.8245 0 -1.52634)
(-16.657 0 -1.97032)
(-15.3184 0 -2.45558)
(-13.8411 0 -2.9964)
(-12.2472 0 -3.57489)
(-10.5471 0 -4.15259)
(-8.74599 0 -4.68789)
(-6.85092 0 -5.14641)
(-4.87448 0 -5.50354)
(-2.83572 0 -5.74327)
(-0.759007 0 -5.85626)
(1.26992 0 -7.92858)
(3.25158 0 -7.75241)
(5.19853 0 -7.42904)
(7.09225 0 -6.97319)
(8.91714 0 -6.40703)
(10.6598 0 -5.76009)
(12.3065 0 -5.06748)
(13.8395 0 -4.36465)
(15.2337 0 -3.67808)
(16.4585 0 -3.01517)
(17.4845 0 -2.36084)
(18.2919 0 -1.6855)
(18.8719 0 -0.958304)
(19.225 0 -0.155179)
(19.3564 0 0.739721)
(19.2724 0 1.73737)
(18.9767 0 2.84759)
(18.4847 0 4.06592)
(17.8066 0 5.35909)
(16.8521 0 6.67227)
(15.3711 0 7.79033)
(13.1538 0 8.26685)
(10.2897 0 8.08823)
(7.09644 0 7.56428)
(3.83547 0 7.04754)
(0.594227 0 6.79089)
(-2.63343 0 6.8955)
(-5.8658 0 7.31132)
(-9.06032 0 7.83586)
(-12.0208 0 8.13648)
(-14.4199 0 7.86928)
(-16.0803 0 6.89824)
(-17.1264 0 5.59612)
(-17.8355 0 4.27801)
(-18.3422 0 3.02179)
(-18.6546 0 1.86522)
(-18.7532 0 0.820766)
(-18.6332 0 -0.119795)
(-18.2902 0 -0.966195)
(-17.7188 0 -1.73125)
(-16.9185 0 -2.4354)
(-15.8972 0 -3.1062)
(-14.6739 0 -3.77157)
(-13.2771 0 -4.44763)
(-11.7384 0 -5.13024)
(-10.0851 0 -5.79619)
(-8.33753 0 -6.41219)
(-6.51175 0 -6.94411)
(-4.62266 0 -7.36283)
(-2.68666 0 -7.64654)
(-0.722453 0 -7.78119)
(1.24947 0 -7.7603)
(3.20809 0 -7.58487)
(5.13329 0 -7.26338)
(7.00698 0 -6.81193)
(8.81329 0 -6.2544)
(10.5373 0 -5.62158)
(12.1623 0 -4.94813)
(13.6661 0 -4.26567)
(15.0196 0 -3.593)
(16.1914 0 -2.92848)
(17.155 0 -2.25161)
(17.8943 0 -1.53354)
(18.4043 0 -0.748228)
(18.687 0 0.12256)
(18.7482 0 1.0901)
(18.5914 0 2.16425)
(18.2244 0 3.35032)
(17.668 0 4.62732)
(16.8885 0 5.9537)
(15.7063 0 7.21419)
(13.8466 0 8.01156)
(11.2683 0 8.09895)
(8.21468 0 7.70231)
(4.99843 0 7.1783)
(1.7672 0 6.83264)
(-1.46172 0 6.82632)
(-4.7097 0 7.16864)
(-7.96714 0 7.71784)
(-11.1048 0 8.18439)
(-13.82 0 8.21072)
(-15.8353 0 7.53492)
(-17.1439 0 6.32279)
(-18.0063 0 5.00531)
(-18.6312 0 3.72817)
(-19.0727 0 2.53662)
(-19.3119 0 1.45729)
(-19.338 0 0.488252)
(-19.1473 0 -0.380876)
(-18.7333 0 -1.1618)
(-18.0915 0 -1.87243)
(-17.2236 0 -2.53902)
(-16.1413 0 -3.19321)
(-14.8675 0 -3.86203)
(-13.4328 0 -4.55474)
(-11.8668 0 -5.25801)
(-10.1926 0 -5.94184)
(-8.42632 0 -6.57013)
(-6.58135 0 -7.10896)
(-4.67151 0 -7.53071)
(-2.71318 0 -7.81526)
(-0.725619 0 -7.94984)
(1.20759 0 -9.86187)
(3.09327 0 -9.6647)
(4.9491 0 -9.30305)
(6.7581 0 -8.79329)
(8.50431 0 -8.15887)
(10.1718 0 -7.42898)
(11.7427 0 -6.63576)
(13.1952 0 -5.80919)
(14.5028 0 -4.97006)
(15.6367 0 -4.12394)
(16.5715 0 -3.26048)
(17.2906 0 -2.35958)
(17.7864 0 -1.40028)
(18.0587 0 -0.366283)
(18.1114 0 0.752489)
(17.951 0 1.96108)
(17.587 0 3.26262)
(17.0338 0 4.66064)
(16.3011 0 6.15307)
(15.3896 0 7.71129)
(14.2715 0 9.2311)
(12.7487 0 10.4811)
(10.4732 0 11.0245)
(7.49312 0 10.8624)
(4.14672 0 10.4616)
(0.666908 0 10.2228)
(-2.82102 0 10.3052)
(-6.20502 0 10.6326)
(-9.30638 0 10.8848)
(-11.8067 0 10.5754)
(-13.5089 0 9.48615)
(-14.6952 0 8.00205)
(-15.6321 0 6.4277)
(-16.3868 0 4.89492)
(-16.957 0 3.4507)
(-17.3374 0 2.10206)
(-17.5131 0 0.846317)
(-17.474 0 -0.319281)
(-17.2139 0 -1.39788)
(-16.7291 0 -2.39659)
(-16.0199 0 -3.32836)
(-15.0931 0 -4.21117)
(-13.9647 0 -5.06338)
(-12.6592 0 -5.89557)
(-11.2057 0 -6.7042)
(-9.63204 0 -7.47097)
(-7.96205 0 -8.16798)
(-6.21543 0 -8.76449)
(-4.40961 0 -9.2323)
(-2.56153 0 -9.54893)
(-0.688623 0 -9.69919)
(1.191 0 -9.67588)
(3.05902 0 -9.48011)
(4.89749 0 -9.12127)
(6.68915 0 -8.61658)
(8.41706 0 -7.99025)
(10.0634 0 -7.27158)
(11.6075 0 -6.49114)
(13.0243 0 -5.67497)
(14.2852 0 -4.83774)
(15.3618 0 -3.97884)
(16.2315 0 -3.08476)
(16.881 0 -2.13657)
(17.3054 0 -1.11735)
(17.5059 0 -0.0157386)
(17.4867 0 1.17394)
(17.255 0 2.45439)
(16.8222 0 3.8287)
(16.2027 0 5.2983)
(15.3985 0 6.85019)
(14.4087 0 8.4173)
(13.1203 0 9.83765)
(11.2137 0 10.7378)
(8.51843 0 10.8525)
(5.31502 0 10.5348)
(1.89048 0 10.2522)
(-1.60566 0 10.2581)
(-5.06392 0 10.5657)
(-8.34167 0 10.9501)
(-11.1636 0 10.9607)
(-13.2161 0 10.1938)
(-14.5973 0 8.8344)
(-15.6487 0 7.28907)
(-16.5126 0 5.74203)
(-17.1967 0 4.27385)
(-17.7004 0 2.90194)
(-18.0106 0 1.62568)
(-18.1141 0 0.441477)
(-18.0026 0 -0.653947)
(-17.6701 0 -1.66672)
(-17.1136 0 -2.60857)
(-16.3351 0 -3.49733)
(-15.3443 0 -4.35448)
(-14.1606 0 -5.19839)
(-12.8109 0 -6.03545)
(-11.3239 0 -6.85559)
(-9.72483 0 -7.6348)
(-8.03437 0 -8.3419)
(-6.26957 0 -8.94516)
(-4.44625 0 -9.41673)
(-2.58059 0 -9.73503)
(-0.689884 0 -9.88567)
(1.13818 0 -11.7041)
(2.91543 0 -11.4869)
(4.66451 0 -11.0881)
(6.36859 0 -10.5244)
(8.01085 0 -9.81918)
(9.57367 0 -9.00016)
(11.0374 0 -8.09663)
(12.3796 0 -7.13512)
(13.5751 0 -6.13442)
(14.5987 0 -5.10194)
(15.4291 0 -4.0335)
(16.052 0 -2.91727)
(16.4605 0 -1.73944)
(16.6539 0 -0.48833)
(16.635 0 0.843807)
(16.4092 0 2.26053)
(15.9846 0 3.76159)
(15.3729 0 5.3424)
(14.5892 0 6.99244)
(13.6495 0 8.69649)
(12.5599 0 10.4238)
(11.2784 0 12.0675)
(9.60458 0 13.3447)
(7.18465 0 13.8941)
(4.0939 0 13.8812)
(0.681031 0 13.7664)
(-2.76954 0 13.7755)
(-5.98261 0 13.8021)
(-8.6393 0 13.4375)
(-10.502 0 12.3412)
(-11.8576 0 10.7533)
(-12.9755 0 9.01597)
(-13.9348 0 7.28076)
(-14.7369 0 5.59226)
(-15.367 0 3.96742)
(-15.8098 0 2.41888)
(-16.0524 0 0.953214)
(-16.0866 0 -0.427479)
(-15.9071 0 -1.72448)
(-15.5112 0 -2.94276)
(-14.8997 0 -4.09111)
(-14.0791 0 -5.18076)
(-13.0629 0 -6.22198)
(-11.8719 0 -7.21875)
(-10.5314 0 -8.16481)
(-9.0674 0 -9.04305)
(-7.50375 0 -9.82869)
(-5.86165 0 -10.4939)
(-4.1601 0 -11.0123)
(-2.41697 0 -11.3619)
(-0.649796 0 -11.5276)
(1.12384 0 -11.5019)
(2.88631 0 -11.286)
(4.62005 0 -10.8895)
(6.30749 0 -10.3295)
(7.93057 0 -9.62934)
(9.46979 0 -8.81625)
(10.9033 0 -7.91767)
(12.2064 0 -6.95678)
(13.3529 0 -5.94795)
(14.3186 0 -4.89448)
(15.0842 0 -3.79017)
(15.6383 0 -2.62403)
(15.9762 0 -1.38522)
(16.0981 0 -0.0659578)
(16.0075 0 1.33769)
(15.7103 0 2.8261)
(15.2158 0 4.39616)
(14.538 0 6.03972)
(13.6926 0 7.74286)
(12.6923 0 9.48548)
(11.5248 0 11.2049)
(10.0693 0 12.7026)
(8.00279 0 13.6018)
(5.16006 0 13.8128)
(1.85588 0 13.7613)
(-1.61134 0 13.7886)
(-4.96661 0 13.9114)
(-7.91333 0 13.8191)
(-10.1107 0 13.0606)
(-11.6468 0 11.6448)
(-12.8656 0 9.95933)
(-13.9138 0 8.23269)
(-14.8127 0 6.54137)
(-15.5515 0 4.90845)
(-16.1141 0 3.34823)
(-16.486 0 1.86951)
(-16.6564 0 0.475552)
(-16.6184 0 -0.834399)
(-16.367 0 -2.06499)
(-15.9002 0 -3.22508)
(-15.2202 0 -4.32719)
(-14.3358 0 -5.38509)
(-13.2633 0 -6.40912)
(-12.0255 0 -7.40053)
(-10.648 0 -8.34864)
(-9.15531 0 -9.23209)
(-7.56912 0 -10.0231)
(-5.9084 0 -10.6926)
(-4.19047 0 -11.2135)
(-2.43207 0 -11.5644)
(-0.650107 0 -11.7303)
(1.05968 0 -13.4289)
(2.71356 0 -13.1923)
(4.33933 0 -12.7572)
(5.91982 0 -12.1402)
(7.43753 0 -11.3639)
(8.87414 0 -10.4548)
(10.2099 0 -9.44002)
(11.4232 0 -8.34417)
(12.4917 0 -7.18547)
(13.3938 0 -5.97346)
(14.1119 0 -4.70902)
(14.6336 0 -3.38682)
(14.9529 0 -1.99912)
(15.0684 0 -0.538873)
(14.9825 0 0.99841)
(14.7002 0 2.61368)
(14.229 0 4.30417)
(13.579 0 6.06305)
(12.7637 0 7.87813)
(11.7981 0 9.73089)
(10.6967 0 11.5951)
(9.46537 0 13.4299)
(8.03874 0 15.1192)
(6.18975 0 16.3635)
(3.64605 0 16.9586)
(0.628535 0 17.0947)
(-2.45183 0 16.9696)
(-5.1874 0 16.4872)
(-7.24256 0 15.4055)
(-8.75947 0 13.7887)
(-10.0243 0 11.9544)
(-11.1463 0 10.0696)
(-12.1315 0 8.18642)
(-12.9663 0 6.33277)
(-13.6356 0 4.52915)
(-14.1257 0 2.79008)
(-14.4255 0 1.12445)
(-14.5276 0 -0.462825)
(-14.4268 0 -1.97028)
(-14.1211 0 -3.39972)
(-13.6115 0 -4.75553)
(-12.9038 0 -6.04317)
(-12.0098 0 -7.2664)
(-10.947 0 -8.42391)
(-9.73671 0 -9.50665)
(-8.40215 0 -10.4975)
(-6.96583 0 -11.3733)
(-5.44883 0 -12.1083)
(-3.87074 0 -12.6776)
(-2.25014 0 -13.0602)
(-0.605094 0 -13.2411)
(1.04649 0 -13.213)
(2.68676 0 -12.9772)
(4.29779 0 -12.543)
(5.86141 0 -11.9271)
(7.35882 0 -11.152)
(8.77008 0 -10.2429)
(10.0737 0 -9.22537)
(11.2468 0 -8.12125)
(12.2664 0 -6.94558)
(13.112 0 -5.70519)
(13.7676 0 -4.39972)
(14.223 0 -3.0246)
(14.4738 0 -1.57445)
(14.5199 0 -0.0454966)
(14.3643 0 1.56326)
(14.0126 0 3.2494)
(13.4732 0 5.00706)
(12.7581 0 6.82595)
(11.8816 0 8.68997)
(10.8584 0 10.5767)
(9.70098 0 12.4553)
(8.38572 0 14.2566)
(6.76017 0 15.7599)
(4.51089 0 16.6675)
(1.64277 0 17.0289)
(-1.46042 0 17.0873)
(-4.39067 0 16.8555)
(-6.74672 0 16.0908)
(-8.44806 0 14.6923)
(-9.80784 0 12.9422)
(-11.0027 0 11.093)
(-12.0688 0 9.22879)
(-12.9953 0 7.38387)
(-13.7674 0 5.58221)
(-14.3703 0 3.84067)
(-14.7913 0 2.16978)
(-15.0211 0 0.575231)
(-15.0529 0 -0.941223)
(-14.8824 0 -2.38153)
(-14.5081 0 -3.75097)
(-13.9324 0 -5.05701)
(-13.1631 0 -6.3071)
(-12.2139 0 -7.50522)
(-11.104 0 -8.64832)
(-9.85532 0 -9.72437)
(-8.49022 0 -10.7131)
(-7.02974 0 -11.5889)
(-5.49325 0 -12.3245)
(-3.89878 0 -12.8942)
(-2.26369 0 -13.2768)
(-0.605139 0 -13.4574)
(0.971969 0 -15.0228)
(2.48773 0 -14.7666)
(3.97492 0 -14.2944)
(5.416 0 -13.6228)
(6.79322 0 -12.7739)
(8.08829 0 -11.773)
(9.28217 0 -10.6464)
(10.3552 0 -9.4179)
(11.288 0 -8.10618)
(12.0624 0 -6.72326)
(12.664 0 -5.27426)
(13.0827 0 -3.75906)
(13.3132 0 -2.17483)
(13.3546 0 -0.518474)
(13.2089 0 1.21147)
(12.8811 0 3.01342)
(12.3781 0 4.88201)
(11.7096 0 6.80769)
(10.8873 0 8.77615)
(9.9251 0 10.7684)
(8.83642 0 12.7615)
(7.63527 0 14.7284)
(6.32283 0 16.6186)
(4.80944 0 18.2806)
(2.88267 0 19.4236)
(0.51918 0 19.8622)
(-1.91456 0 19.5758)
(-4.00682 0 18.5815)
(-5.62499 0 17.0062)
(-6.97819 0 15.1259)
(-8.1999 0 13.1447)
(-9.30881 0 11.1278)
(-10.2906 0 9.10422)
(-11.1322 0 7.09693)
(-11.8199 0 5.12614)
(-12.3413 0 3.20812)
(-12.6867 0 1.3546)
(-12.8486 0 -0.426682)
(-12.8221 0 -2.13159)
(-12.6052 0 -3.75897)
(-12.1986 0 -5.30938)
(-11.6074 0 -6.78352)
(-10.8411 0 -8.17997)
(-9.91427 0 -9.49292)
(-8.84484 0 -10.7105)
(-7.65282 0 -11.8146)
(-6.35874 0 -12.7824)
(-4.9827 0 -13.5893)
(-3.54416 0 -14.2111)
(-2.06198 0 -14.6277)
(-0.554697 0 -14.8243)
(0.959308 0 -14.7938)
(2.46169 0 -14.5374)
(3.93403 0 -14.0643)
(5.35775 0 -13.3908)
(6.71382 0 -12.5385)
(7.98262 0 -11.5318)
(9.14387 0 -10.3953)
(10.1771 0 -9.15063)
(11.0626 0 -7.81439)
(11.7832 0 -6.39671)
(12.3258 0 -4.90205)
(12.6819 0 -3.33099)
(12.8478 0 -1.68271)
(12.8235 0 0.0430469)
(12.6119 0 1.84445)
(12.2185 0 3.71639)
(11.6514 0 5.65012)
(10.9212 0 7.63267)
(10.0407 0 9.64661)
(9.02349 0 11.6708)
(7.88284 0 13.6818)
(6.63143 0 15.6454)
(5.22622 0 17.472)
(3.4968 0 18.9141)
(1.27987 0 19.7232)
(-1.17709 0 19.8157)
(-3.44967 0 19.1807)
(-5.24385 0 17.8717)
(-6.68687 0 16.1219)
(-7.9657 0 14.2029)
(-9.13812 0 12.2253)
(-10.194 0 10.23)
(-11.1198 0 8.24186)
(-11.9019 0 6.28306)
(-12.5268 0 4.37138)
(-12.9832 0 2.5198)
(-13.2624 0 0.736687)
(-13.3579 0 -0.973627)
(-13.2655 0 -2.6105)
(-12.9838 0 -4.17597)
(-12.5149 0 -5.67326)
(-11.8653 0 -7.10471)
(-11.0464 0 -8.46927)
(-10.0738 0 -9.76003)
(-8.96607 0 -10.9631)
(-7.74286 0 -12.0581)
(-6.42369 0 -13.0204)
(-5.02738 0 -13.8237)
(-3.57206 0 -14.4431)
(-2.07539 0 -14.858)
(-0.554896 0 -15.0536)
(0.875593 0 -16.4715)
(2.23964 0 -16.1953)
(3.57477 0 -15.6855)
(4.8634 0 -14.9585)
(6.0879 0 -14.0362)
(7.23061 0 -12.9438)
(8.27384 0 -11.707)
(9.20011 0 -10.35)
(9.99285 0 -8.8927)
(10.6374 0 -7.34952)
(11.122 0 -5.72923)
(11.4389 0 -4.03595)
(11.5843 0 -2.27093)
(11.5577 0 -0.434529)
(11.3618 0 1.47193)
(11.0016 0 3.4445)
(10.4843 0 5.47562)
(9.81926 0 7.55352)
(9.0176 0 9.66191)
(8.09253 0 11.7803)
(7.05825 0 13.8856)
(5.93035 0 15.954)
(4.73076 0 17.9537)
(3.45574 0 19.7963)
(2.02686 0 21.2288)
(0.384085 0 21.869)
(-1.3026 0 21.4728)
(-2.80601 0 20.1846)
(-4.11759 0 18.3823)
(-5.3322 0 16.3755)
(-6.47569 0 14.2883)
(-7.52735 0 12.1587)
(-8.46992 0 10.0089)
(-9.28925 0 7.86158)
(-9.97195 0 5.73818)
(-10.5064 0 3.65686)
(-10.883 0 1.63167)
(-11.0942 0 -0.327333)
(-11.1351 0 -2.21359)
(-11.0027 0 -4.02319)
(-10.6972 0 -5.75331)
(-10.2223 0 -7.40064)
(-9.58556 0 -8.9595)
(-8.79849 0 -10.4202)
(-7.8759 0 -11.7681)
(-6.83481 0 -12.9836)
(-5.69344 0 -14.0435)
(-4.47047 0 -14.9229)
(-3.18464 0 -15.5984)
(-1.85464 0 -16.0496)
(-0.499133 0 -16.2624)
(0.863207 0 -16.2294)
(2.21372 0 -15.9519)
(3.53376 0 -15.4391)
(4.80463 0 -14.7069)
(6.00763 0 -13.7768)
(7.12401 0 -12.673)
(8.13518 0 -11.4199)
(9.02313 0 -10.04)
(9.77132 0 -8.55175)
(10.3657 0 -6.96837)
(10.7959 0 -5.29833)
(11.0552 0 -3.54651)
(11.1411 0 -1.71593)
(11.0542 0 0.190457)
(10.7981 0 2.1682)
(10.3784 0 4.20982)
(9.80318 0 6.30419)
(9.08264 0 8.43616)
(8.22891 0 10.5865)
(7.25567 0 12.7332)
(6.17734 0 14.8538)
(5.01333 0 16.9249)
(3.7787 0 18.8956)
(2.42638 0 20.597)
(0.861833 0 21.6793)
(-0.838791 0 21.7939)
(-2.43038 0 20.9045)
(-3.80669 0 19.3258)
(-5.05689 0 17.4248)
(-6.23915 0 15.4015)
(-7.34369 0 13.3206)
(-8.34995 0 11.2093)
(-9.24309 0 9.09115)
(-10.0091 0 6.98892)
(-10.6353 0 4.922)
(-11.1109 0 2.90546)
(-11.4273 0 0.949909)
(-11.5778 0 -0.938131)
(-11.558 0 -2.75556)
(-11.3661 0 -4.50146)
(-11.0033 0 -6.17542)
(-10.4744 0 -7.77561)
(-9.78846 0 -9.29679)
(-8.95802 0 -10.7287)
(-7.99837 0 -12.0554)
(-6.92645 0 -13.2555)
(-5.75983 0 -14.3044)
(-4.51621 0 -15.1761)
(-3.21325 0 -15.8461)
(-1.86853 0 -16.2939)
(-0.499692 0 -16.5048)
(0.771403 0 -17.7621)
(1.97163 0 -17.4658)
(3.14315 0 -16.9182)
(4.26866 0 -16.136)
(5.33114 0 -15.1411)
(6.31401 0 -13.959)
(7.20123 0 -12.616)
(7.97761 0 -11.137)
(8.62937 0 -9.54353)
(9.14481 0 -7.85249)
(9.51504 0 -6.07587)
(9.73442 0 -4.22134)
(9.80071 0 -2.29359)
(9.71472 0 -0.296022)
(9.47994 0 1.76748)
(9.10213 0 3.89078)
(8.58906 0 6.06428)
(7.95042 0 8.27429)
(7.19783 0 10.5026)
(6.345 0 12.7268)
(5.40798 0 14.9214)
(4.40619 0 17.0591)
(3.36846 0 19.107)
(2.33057 0 20.9882)
(1.30147 0 22.4799)
(0.261784 0 23.169)
(-0.783107 0 22.7465)
(-1.81579 0 21.3937)
(-2.84984 0 19.5456)
(-3.88771 0 17.4917)
(-4.89762 0 15.3379)
(-5.84631 0 13.1206)
(-6.71245 0 10.8657)
(-7.47929 0 8.59878)
(-8.13262 0 6.34318)
(-8.66038 0 4.11904)
(-9.05253 0 1.9424)
(-9.30099 0 -0.17462)
(-9.39977 0 -2.22319)
(-9.34517 0 -4.19685)
(-9.13612 0 -6.08979)
(-8.77466 0 -7.89522)
(-8.2662 0 -9.60387)
(-7.61957 0 -11.2027)
(-6.84659 0 -12.6743)
(-5.96148 0 -13.9971)
(-4.98009 0 -15.1468)
(-3.91933 0 -16.0981)
(-2.79682 0 -16.827)
(-1.6306 0 -17.3132)
(-0.439046 0 -17.5422)
(0.75932 0 -17.5067)
(1.94592 0 -17.208)
(3.10225 0 -16.6552)
(4.21001 0 -15.8647)
(5.25126 0 -14.8579)
(6.20854 0 -13.6594)
(7.06517 0 -12.2945)
(7.80568 0 -10.7869)
(8.4164 0 -9.15707)
(8.88626 0 -7.42131)
(9.20732 0 -5.59154)
(9.37509 0 -3.67624)
(9.38841 0 -1.68178)
(9.24907 0 0.386019)
(8.96144 0 2.52023)
(8.53208 0 4.71119)
(7.96961 0 6.94575)
(7.2846 0 9.20673)
(6.48965 0 11.473)
(5.59964 0 13.7205)
(4.63212 0 15.9234)
(3.61092 0 18.0552)
(2.57213 0 20.0695)
(1.5404 0 21.8225)
(0.504741 0 22.967)
(-0.540858 0 23.0862)
(-1.57627 0 22.1375)
(-2.60621 0 20.5064)
(-3.64656 0 18.5668)
(-4.67821 0 16.4901)
(-5.66478 0 14.3341)
(-6.58082 0 12.1287)
(-7.40806 0 9.90078)
(-8.13113 0 7.67513)
(-8.73691 0 5.47313)
(-9.2143 0 3.31174)
(-9.55412 0 1.20354)
(-9.74914 0 -0.84291)
(-9.79417 0 -2.82221)
(-9.68641 0 -4.73078)
(-9.42584 0 -6.56502)
(-9.01561 0 -8.31959)
(-8.46225 0 -9.98575)
(-7.77549 0 -11.5502)
(-6.96765 0 -12.9948)
(-6.05298 0 -14.2968)
(-5.04693 0 -15.4307)
(-3.96571 0 -16.3703)
(-2.82604 0 -17.0908)
(-1.64502 0 -17.5716)
(-0.440015 0 -17.7978)
(0.660308 0 -18.8832)
(1.68615 0 -18.5671)
(2.68421 0 -17.9825)
(3.63793 0 -17.1465)
(4.53135 0 -16.0816)
(5.3493 0 -14.8139)
(6.07761 0 -13.3707)
(6.70343 0 -11.7782)
(7.2156 0 -10.06)
(7.60518 0 -8.23523)
(7.86582 0 -6.31887)
(7.9941 0 -4.32165)
(7.98951 0 -2.25125)
(7.8543 0 -0.113792)
(7.59316 0 2.08448)
(7.2129 0 4.33531)
(6.7223 0 6.62723)
(6.13198 0 8.94459)
(5.4546 0 11.2671)
(4.70518 0 13.5697)
(3.90201 0 15.8232)
(3.06827 0 17.9938)
(2.23691 0 20.0382)
(1.45512 0 21.8735)
(0.766165 0 23.2955)
(0.169123 0 23.9419)
(-0.412122 0 23.544)
(-1.06978 0 22.2585)
(-1.82634 0 20.4658)
(-2.64612 0 18.4257)
(-3.4787 0 16.2456)
(-4.28616 0 13.9729)
(-5.04302 0 11.6416)
(-5.72981 0 9.28156)
(-6.33072 0 6.91915)
(-6.83256 0 4.57669)
(-7.22424 0 2.27223)
(-7.49664 0 0.0198725)
(-7.6426 0 -2.16944)
(-7.65713 0 -4.28686)
(-7.53771 0 -6.32385)
(-7.28457 0 -8.27061)
(-6.90097 0 -10.1147)
(-6.39317 0 -11.8399)
(-5.77029 0 -13.4263)
(-5.04385 0 -14.8502)
(-4.22732 0 -16.0857)
(-3.33567 0 -17.1062)
(-2.385 0 -17.8871)
(-1.39228 0 -18.4074)
(-0.375067 0 -18.6523)
(0.648744 0 -18.6144)
(1.66116 0 -18.2949)
(2.64434 0 -17.7032)
(3.58087 0 -16.856)
(4.45399 0 -15.7754)
(5.24786 0 -14.487)
(5.94786 0 -13.0171)
(6.54101 0 -11.3913)
(7.01638 0 -9.6324)
(7.36558 0 -7.75933)
(7.58313 0 -5.78719)
(7.66661 0 -3.72762)
(7.61654 0 -1.58994)
(7.43614 0 0.617389)
(7.131 0 2.88513)
(6.70883 0 5.20156)
(6.17929 0 7.55155)
(5.55399 0 9.9159)
(4.84676 0 12.2711)
(4.07428 0 14.5899)
(3.25726 0 16.8413)
(2.42378 0 18.9896)
(1.61604 0 20.9783)
(0.884238 0 22.6681)
(0.252862 0 23.7513)
(-0.321963 0 23.8646)
(-0.939205 0 22.9715)
(-1.6556 0 21.4079)
(-2.45567 0 19.503)
(-3.29169 0 17.419)
(-4.11983 0 15.2222)
(-4.91051 0 12.9522)
(-5.6421 0 10.6412)
(-6.29733 0 8.31763)
(-6.86185 0 6.00508)
(-7.32358 0 3.72262)
(-7.67241 0 1.48471)
(-7.90007 0 -0.698115)
(-8.00029 0 -2.81831)
(-7.96903 0 -4.86982)
(-7.80475 0 -6.84626)
(-7.50874 0 -8.73925)
(-7.08522 0 -10.537)
(-6.54128 0 -12.2234)
(-5.88652 0 -13.7779)
(-5.13259 0 -15.1763)
(-4.29274 0 -16.3917)
(-3.38144 0 -17.397)
(-2.4141 0 -18.1669)
(-1.40685 0 -18.68)
(-0.376387 0 -18.9212)
(0.54315 0 -19.8247)
(1.3854 0 -19.4897)
(2.20162 0 -18.87)
(2.97648 0 -17.9831)
(3.69548 0 -16.8525)
(4.34517 0 -15.5053)
(4.91342 0 -13.9702)
(5.3897 0 -12.275)
(5.76535 0 -10.4453)
(6.03393 0 -8.50274)
(6.19146 0 -6.46482)
(6.23661 0 -4.34505)
(6.17064 0 -2.15382)
(5.99732 0 0.100309)
(5.72266 0 2.40886)
(5.35474 0 4.76159)
(4.90346 0 7.14514)
(4.38057 0 9.54189)
(3.79989 0 11.9293)
(3.17777 0 14.2792)
(2.53408 0 16.558)
(1.89387 0 18.7246)
(1.29066 0 20.7249)
(0.76957 0 22.4674)
(0.374229 0 23.7691)
(0.0994629 0 24.3421)
(-0.154418 0 23.9855)
(-0.508219 0 22.8159)
(-0.994703 0 21.1286)
(-1.57738 0 19.1454)
(-2.20764 0 16.9776)
(-2.84792 0 14.6847)
(-3.4709 0 12.3092)
(-4.05535 0 9.88636)
(-4.58401 0 7.44586)
(-5.0424 0 5.01251)
(-5.41826 0 2.60644)
(-5.70122 0 0.243712)
(-5.88281 0 -2.06273)
(-5.95664 0 -4.30176)
(-5.91861 0 -6.46237)
(-5.76715 0 -8.532)
(-5.5034 0 -10.4953)
(-5.13128 0 -12.3334)
(-4.65736 0 -14.0236)
(-4.09062 0 -15.5401)
(-3.44215 0 -16.8551)
(-2.72479 0 -17.9405)
(-1.95285 0 -18.7704)
(-1.14175 0 -19.3232)
(-0.307747 0 -19.5832)
(0.532438 0 -19.543)
(1.36195 0 -19.2036)
(2.16415 0 -18.575)
(2.92298 0 -17.6744)
(3.62328 0 -16.525)
(4.2511 0 -15.1533)
(4.79404 0 -13.5877)
(5.24154 0 -11.8554)
(5.58522 0 -9.98167)
(5.81921 0 -7.98809)
(5.94033 0 -5.89259)
(5.94817 0 -3.70968)
(5.845 0 -1.45134)
(5.63555 0 0.871538)
(5.32681 0 3.2475)
(4.92776 0 5.66285)
(4.44926 0 8.10051)
(3.90416 0 10.5391)
(3.30759 0 12.9526)
(2.67774 0 15.3096)
(2.0372 0 17.5736)
(1.41557 0 19.6989)
(0.853839 0 21.6169)
(0.40113 0 23.1923)
(0.0818187 0 24.1706)
(-0.163962 0 24.2745)
(-0.465204 0 23.4766)
(-0.896978 0 22.0311)
(-1.44495 0 20.2061)
(-2.062 0 18.1542)
(-2.70594 0 15.9526)
(-3.34597 0 13.6508)
(-3.95864 0 11.2875)
(-4.52518 0 8.89479)
(-5.02996 0 6.49932)
(-5.45977 0 4.12226)
(-5.80336 0 1.78)
(-6.05129 0 -0.51505)
(-6.19605 0 -2.75327)
(-6.23221 0 -4.92634)
(-6.15665 0 -7.02534)
(-5.9688 0 -9.03915)
(-5.67072 0 -10.9533)
(-5.26707 0 -12.749)
(-4.76493 0 -14.4035)
(-4.1735 0 -15.8906)
(-3.50377 0 -17.1819)
(-2.76825 0 -18.249)
(-1.98071 0 -19.0655)
(-1.15589 0 -19.6093)
(-0.309294 0 -19.865)
(0.420672 0 -20.5779)
(1.07131 0 -20.2256)
(1.69853 0 -19.5736)
(2.2887 0 -18.6404)
(2.82916 0 -17.4503)
(3.30849 0 -16.0319)
(3.71673 0 -14.4152)
(4.04564 0 -12.6302)
(4.28893 0 -10.7042)
(4.44246 0 -8.66137)
(4.50438 0 -6.52157)
(4.47527 0 -4.30084)
(4.35807 0 -2.01198)
(4.15799 0 0.334168)
(3.88236 0 2.72703)
(3.54039 0 5.15449)
(3.14306 0 7.60137)
(2.70308 0 10.0481)
(2.2351 0 12.4698)
(1.75617 0 14.8355)
(1.28645 0 17.1072)
(0.850417 0 19.2378)
(0.4785 0 21.1652)
(0.207285 0 22.7947)
(0.0672679 0 23.9674)
(0.0426363 0 24.4666)
(0.0371271 0 24.1513)
(-0.0627383 0 23.1033)
(-0.296956 0 21.5386)
(-0.642657 0 19.6397)
(-1.06171 0 17.5162)
(-1.52109 0 15.2361)
(-1.99447 0 12.849)
(-2.46045 0 10.3946)
(-2.90112 0 7.90617)
(-3.30114 0 5.41092)
(-3.64723 0 2.93102)
(-3.92792 0 0.484407)
(-4.13354 0 -1.91404)
(-4.25633 0 -4.25108)
(-4.29068 0 -6.51336)
(-4.23332 0 -8.68584)
(-4.08345 0 -10.7506)
(-3.84281 0 -12.686)
(-3.51564 0 -14.467)
(-3.10849 0 -16.0654)
(-2.63008 0 -17.4515)
(-2.09097 0 -18.5956)
(-1.50337 0 -19.4702)
(-0.880743 0 -20.0526)
(-0.237549 0 -20.3265)
(0.411205 0 -20.2841)
(1.05036 0 -19.9266)
(1.66501 0 -19.2642)
(2.24093 0 -18.3151)
(2.76496 0 -17.1036)
(3.22529 0 -15.6577)
(3.61184 0 -14.0076)
(3.91644 0 -12.1825)
(4.13313 0 -10.2101)
(4.25834 0 -8.11446)
(4.29099 0 -5.91617)
(4.23257 0 -3.63231)
(4.08698 0 -1.27735)
(3.86043 0 1.13556)
(3.56122 0 3.5929)
(3.1995 0 6.07907)
(2.78724 0 8.5751)
(2.33823 0 11.0575)
(1.86843 0 13.4975)
(1.3966 0 15.8603)
(0.945287 0 18.1037)
(0.542446 0 20.1747)
(0.223033 0 21.9971)
(0.0243254 0 23.444)
(-0.0424998 0 24.3142)
(-0.0405533 0 24.4087)
(-0.0899283 0 23.7078)
(-0.266519 0 22.3921)
(-0.568457 0 20.67)
(-0.960939 0 18.6803)
(-1.40868 0 16.5062)
(-1.88303 0 14.2048)
(-2.36078 0 11.8204)
(-2.82272 0 9.38891)
(-3.2525 0 6.93964)
(-3.63601 0 4.49598)
(-3.96101 0 2.07622)
(-4.21701 0 -0.305435)
(-4.39528 0 -2.63741)
(-4.48904 0 -4.90924)
(-4.49368 0 -7.1097)
(-4.4069 0 -9.22521)
(-4.22877 0 -11.2387)
(-3.96177 0 -13.1292)
(-3.61065 0 -14.8715)
(-3.18225 0 -16.4375)
(-2.6853 0 -17.797)
(-2.13018 0 -18.9201)
(-1.52866 0 -19.7793)
(-0.89372 0 -20.3514)
(-0.239163 0 -20.6203)
(0.293521 0 -21.1352)
(0.745549 0 -20.7676)
(1.1776 0 -20.0874)
(1.57823 0 -19.1138)
(1.937 0 -17.8723)
(2.24473 0 -16.3929)
(2.4938 0 -14.7074)
(2.67825 0 -12.8473)
(2.79399 0 -10.8422)
(2.83899 0 -8.71821)
(2.8133 0 -6.49764)
(2.71916 0 -4.19875)
(2.56097 0 -1.83656)
(2.34522 0 0.576013)
(2.08029 0 3.02644)
(1.77635 0 5.50087)
(1.44509 0 7.98245)
(1.09978 0 10.4499)
(0.755323 0 12.8762)
(0.42852 0 15.2279)
(0.138473 0 17.4639)
(-0.0929336 0 19.5331)
(-0.240842 0 21.3696)
(-0.279443 0 22.8811)
(-0.193478 0 23.934)
(-0.00762421 0 24.3689)
(0.193874 0 24.0898)
(0.314751 0 23.1522)
(0.311946 0 21.7105)
(0.193119 0 19.9109)
(-0.0163464 0 17.8562)
(-0.290387 0 15.6175)
(-0.605956 0 13.2486)
(-0.943038 0 10.793)
(-1.28411 0 8.28654)
(-1.61366 0 5.75861)
(-1.91788 0 3.23322)
(-2.18456 0 0.730022)
(-2.40306 0 -1.73434)
(-2.5645 0 -4.14464)
(-2.66199 0 -6.48539)
(-2.69075 0 -8.73924)
(-2.64827 0 -10.8858)
(-2.53434 0 -12.9012)
(-2.35104 0 -14.758)
(-2.10263 0 -16.4257)
(-1.79543 0 -17.8726)
(-1.43762 0 -19.0672)
(-1.03899 0 -19.9807)
(-0.610679 0 -20.589)
(-0.164857 0 -20.8752)
(0.285709 0 -20.8309)
(0.728087 0 -20.4574)
(1.14963 0 -19.7656)
(1.5384 0 -18.7744)
(1.88359 0 -17.5093)
(2.17581 0 -16.0002)
(2.40737 0 -14.2789)
(2.57247 0 -12.3767)
(2.66742 0 -10.3236)