/*--------------------------------*- C++ -*----------------------------------*\
| =========                 |                                                 |
| \\      /  F ield         | OpenFOAM: The Open Source CFD Toolbox           |
|  \\    /   O peration     | Version:  2.3.0                                 |
|   \\  /    A nd           | Web:      www.OpenFOAM.org                      |
|    \\/     M anipulation  |                                                 |
\*---------------------------------------------------------------------------*/
FoamFile
{
    version     2.0;
    format      ascii;
    class       surfaceScalarField;
    location    "6000";
    object      phi;
}
// * * * * * * * * * * * * * * * * * * * * * * * * * * * * * * * * * * * * * //

dimensions      [0 3 -1 0 0 0 0];

internalField   nonuniform List<scalar> 
353
(
-0.402376
0.0043541
-0.381416
-0.0209602
-0.353237
-0.0281782
-0.32902
-0.0242177
-0.313493
-0.0155264
-0.307178
-0.00631555
-0.308514
0.00133598
-0.315355
0.00684094
-0.325905
0.01055
-0.339165
0.0132605
-0.354833
0.0156678
-0.37318
0.0183474
0.0218645
-0.647585
0.0334894
-0.63916
-0.0293856
-0.614463
-0.0528753
-0.587081
-0.0515996
-0.564101
-0.0385064
-0.548091
-0.0223249
-0.538971
-0.00778456
-0.535363
0.00323327
-0.535302
0.0104886
-0.536704
0.0146623
-0.537577
0.0165413
-0.535877
0.0166473
0.0152919
-0.64027
0.0762266
-0.647773
-0.0218832
-0.636854
-0.0637937
-0.618333
-0.0701209
-0.598528
-0.0583112
-0.580595
-0.040258
-0.565639
-0.0227406
-0.553499
-0.00890669
-0.543178
0.000167085
-0.532954
0.00443882
-0.520538
0.00412501
-0.503124
-0.000766301
-0.0104088
-0.521792
0.125181
-0.543265
-0.000410182
-0.54773
-0.0593288
-0.542395
-0.075455
-0.531977
-0.06873
-0.519402
-0.0528329
-0.506342
-0.0357999
-0.493527
-0.0217216
-0.480916
-0.0124441
-0.467694
-0.00878302
-0.452212
-0.0113578
-0.432042
-0.0209358
-0.0383425
-0.356413
0.173582
-0.3872
0.0303767
-0.404732
-0.0417968
-0.412678
-0.0675084
-0.413874
-0.067535
-0.410479
-0.0562273
-0.404123
-0.0421565
-0.395933
-0.0299108
-0.386515
-0.0218626
-0.375835
-0.0194628
-0.363108
-0.0240845
-0.346703
-0.0373409
-0.0608452
-0.172555
0.21427
-0.205936
0.0637578
-0.231396
-0.0163374
-0.249392
-0.0495126
-0.260895
-0.056032
-0.266994
-0.0501279
-0.268795
-0.0403557
-0.26734
-0.0313659
-0.263502
-0.0257001
-0.257823
-0.0251422
-0.250316
-0.0315915
-0.240279
-0.0473774
-0.0749023
0.0119985
0.241466
-0.0176439
0.0934003
-0.0451645
0.0111832
-0.068365
-0.0263121
-0.0866175
-0.0377795
-0.0999814
-0.036764
-0.108872
-0.0314655
-0.113945
-0.0262922
-0.116017
-0.0236284
-0.1159
-0.0252594
-0.114167
-0.0333243
-0.110901
-0.0506429
-0.0802446
0.183807
0.251381
0.1621
0.115108
0.136793
0.03649
0.112415
-0.0019342
0.091148
-0.0165127
0.0738041
-0.01942
0.0605066
-0.018168
0.0509525
-0.0167381
0.0444885
-0.0171643
0.0402223
-0.0209933
0.0372651
-0.0303671
0.0349691
-0.0483469
0.330911
0.242209
0.319563
0.126456
0.29891
0.0571436
0.275847
0.0211286
0.254215
0.00511922
0.235761
-0.00096574
0.221044
-0.00345142
0.209936
-0.00562974
0.201792
-0.00902078
0.195557
-0.0147576
0.190031
-0.0248414
-0.0424007
0.440218
0.215091
0.439975
0.126699
0.425446
0.0716722
0.405548
0.0410268
0.385554
0.0251133
0.368128
0.0164605
0.354282
0.0103937
0.344025
0.00462795
0.336611
-0.00160686
0.330625
-0.00877201
0.324379
-0.0185952
-0.0342068
0.495819
0.174863
0.505481
0.117037
0.497999
0.0791537
0.483143
0.0558827
0.466915
0.041342
0.452431
0.0309446
0.440949
0.0218758
0.432614
0.0129629
0.426693
0.00431352
0.421485
-0.00356394
0.41484
-0.0119501
-0.0239556
0.4776
0.129746
0.49453
0.100107
0.495093
0.0785908
0.487999
0.0629767
0.478541
0.0508002
0.469359
0.0401259
0.461449
0.0297858
0.454956
0.0194559
0.449429
0.00984128
0.443564
0.0023007
0.435495
-0.0038808
-0.0113965
0.328063
0.0987608
0.370239
0.0875691
0.39354
0.0768061
0.405341
0.0667893
0.41082
0.0574981
0.412866
0.0487541
0.412672
0.0403205
0.410499
0.0319582
0.406438
0.0235166
0.400934
0.0153459
0.394763
0.00847137
0.388057
0.00282569
-0.00269108
0.183638
0.049724
0.225673
0.045534
0.2615
0.0409788
0.291903
0.0363866
0.317476
0.0319256
0.338588
0.0276418
0.355405
0.0235032
0.367924
0.0194399
0.376018
0.0154218
0.37972
0.0116444
0.379713
0.00847878
0.376844
0.00569463
0.00289536
0.16452
0.206603
0.243577
0.275486
0.302541
0.324986
0.343027
0.356801
0.366423
0.372199
0.374767
0.374599
)
;

boundaryField
{
    top
    {
        type            calculated;
        value           nonuniform List<scalar> 
13
(
0.00283389
0.00345112
0.00400538
0.00447721
0.00487064
0.00519641
0.00546215
0.00566634
0.00579978
0.00586873
0.00591007
0.00586305
0.0056507
)
;
    }
    bottom
    {
        type            calculated;
        value           uniform 0;
    }
    frontAndBack
    {
        type            empty;
        value           nonuniform 0();
    }
    left_cyc
    {
        type            cyclic;
        value           nonuniform 0();
    }
    right_cyc
    {
        type            cyclic;
        value           nonuniform 0();
    }
    procBoundary1to0
    {
        type            processor;
        value           nonuniform List<scalar> 
16
(
0.398022
0.61845
0.597533
0.472838
0.308011
0.131868
-0.0391944
-0.193723
-0.321739
-0.4131
-0.455591
-0.432483
-0.167827
-0.258996
-0.134601
-0.11763
)
;
    }
    procBoundary1to2
    {
        type            processor;
        value           nonuniform List<scalar> 
16
(
-0.395045
-0.529304
-0.477424
-0.404108
-0.3242
-0.226222
-0.105559
0.0329832
-0.0782587
0.184085
0.316185
0.404589
0.422936
0.379351
0.371257
0.371844
)
;
    }
}


// ************************************************************************* //
