/*--------------------------------*- C++ -*----------------------------------*\
| =========                 |                                                 |
| \\      /  F ield         | OpenFOAM: The Open Source CFD Toolbox           |
|  \\    /   O peration     | Version:  2.3.0                                 |
|   \\  /    A nd           | Web:      www.OpenFOAM.org                      |
|    \\/     M anipulation  |                                                 |
\*---------------------------------------------------------------------------*/
FoamFile
{
    version     2.0;
    format      ascii;
    class       volScalarField;
    location    "14000";
    object      NUEff;
}
// * * * * * * * * * * * * * * * * * * * * * * * * * * * * * * * * * * * * * //

dimensions      [0 2 -1 0 0 0 0];

internalField   nonuniform List<scalar> 
3060
(
0.174947
0.174759
0.174415
0.173928
0.173311
0.172578
0.171741
0.170811
0.169798
0.16871
0.167552
0.166332
0.165063
0.163778
0.162509
0.161259
0.160031
0.158833
0.157683
0.156604
0.155618
0.154752
0.154033
0.153489
0.153147
0.153032
0.153156
0.153507
0.15406
0.154786
0.155659
0.156651
0.157737
0.158892
0.160096
0.161331
0.162588
0.163865
0.165159
0.166432
0.167652
0.168807
0.16989
0.170894
0.171811
0.172631
0.173342
0.173931
0.174386
0.174693
0.174839
0.174817
0.174627
0.17428
0.173789
0.173166
0.172424
0.171578
0.170637
0.169612
0.168509
0.167336
0.166101
0.164818
0.163527
0.162256
0.161005
0.159776
0.158583
0.157444
0.15638
0.155417
0.154579
0.153896
0.153394
0.153101
0.153039
0.153216
0.153614
0.154207
0.154968
0.155868
0.156881
0.157981
0.159145
0.160352
0.161587
0.162841
0.164114
0.165402
0.16666
0.167864
0.169004
0.170074
0.171065
0.171972
0.172783
0.173486
0.17407
0.17452
0.174824
0.174969
0.627737
0.620132
0.605924
0.585142
0.557958
0.524959
0.487391
0.447202
0.406734
0.368171
0.333062
0.30217
0.275627
0.253185
0.234761
0.219757
0.207358
0.197064
0.188535
0.181512
0.175797
0.17124
0.167741
0.165243
0.163733
0.163232
0.163774
0.165325
0.167865
0.171411
0.176022
0.181802
0.188906
0.197539
0.207966
0.220543
0.235797
0.254601
0.277422
0.304394
0.33573
0.371223
0.410004
0.450412
0.490192
0.527009
0.558983
0.584951
0.604383
0.61712
0.623104
0.622183
0.614411
0.599905
0.578725
0.5511
0.517706
0.4799
0.43972
0.39954
0.361498
0.32705
0.296872
0.271032
0.249248
0.231503
0.217011
0.205035
0.195106
0.186897
0.180158
0.174698
0.170376
0.167099
0.16482
0.163532
0.163263
0.164034
0.165806
0.168565
0.172337
0.177188
0.183232
0.19063
0.199598
0.210407
0.223432
0.239229
0.258736
0.282222
0.309903
0.341946
0.378076
0.417326
0.45795
0.497668
0.534193
0.565746
0.591273
0.610324
0.62279
0.62864
0.939879
0.939132
0.937719
0.935595
0.932672
0.928809
0.923782
0.91725
0.908675
0.897193
0.881355
0.858605
0.824215
0.769294
0.679593
0.55222
0.422772
0.33037
0.273158
0.237586
0.21456
0.199172
0.188806
0.182058
0.178205
0.176958
0.178307
0.182268
0.189151
0.199703
0.215375
0.238873
0.275289
0.334043
0.428871
0.560032
0.686216
0.773804
0.827166
0.860606
0.882768
0.898217
0.909423
0.917787
0.924148
0.929027
0.932755
0.935546
0.937537
0.938809
0.9394
0.939309
0.93854
0.937084
0.934892
0.93187
0.927863
0.922632
0.915803
0.906788
0.894632
0.877716
0.853153
0.815558
0.754883
0.656549
0.523835
0.399814
0.315669
0.264014
0.231694
0.210625
0.1965
0.187021
0.18096
0.177703
0.177036
0.178962
0.183536
0.191147
0.202665
0.219747
0.245476
0.285657
0.350785
0.454159
0.588293
0.707186
0.786481
0.834824
0.865497
0.88608
0.900578
0.911181
0.919149
0.925241
0.929933
0.93353
0.93623
0.93816
0.939394
0.939968
0.971561
0.971257
0.970688
0.969841
0.968696
0.967216
0.965346
0.963003
0.960066
0.956356
0.951601
0.945373
0.936975
0.925201
0.907809
0.880541
0.83362
0.744734
0.58458
0.410123
0.305976
0.252498
0.223424
0.207036
0.198457
0.195784
0.198673
0.207514
0.2243
0.254107
0.309143
0.416531
0.593424
0.750658
0.836848
0.882449
0.90906
0.926085
0.937629
0.945872
0.951989
0.956659
0.960299
0.963177
0.965467
0.967287
0.968717
0.969812
0.970605
0.971117
0.971357
0.97132
0.971009
0.970423
0.969553
0.968374
0.966847
0.964912
0.962481
0.959422
0.955541
0.950538
0.943942
0.934975
0.922272
0.90326
0.872887
0.819407
0.716736
0.543257
0.381037
0.290996
0.244491
0.218897
0.204532
0.197373
0.195949
0.200102
0.210471
0.229553
0.263494
0.327038
0.450363
0.633347
0.774249
0.848864
0.889123
0.913161
0.928739
0.93946
0.947195
0.95298
0.957425
0.960909
0.963674
0.965882
0.967643
0.96903
0.970093
0.970865
0.971364
0.971597
0.982429
0.982238
0.98188
0.981351
0.98064
0.979731
0.978595
0.977193
0.975469
0.973341
0.970688
0.967332
0.963001
0.95726
0.94939
0.938108
0.920954
0.892682
0.840694
0.733502
0.539824
0.369547
0.285527
0.246139
0.227847
0.222449
0.228283
0.247188
0.28777
0.374558
0.548767
0.740071
0.843954
0.89445
0.92204
0.938842
0.949919
0.957663
0.963316
0.967583
0.97089
0.973502
0.975596
0.977289
0.978661
0.979768
0.980648
0.981327
0.981823
0.982145
0.982296
0.982273
0.982077
0.981709
0.981166
0.980436
0.979499
0.978327
0.976876
0.975087
0.972869
0.970094
0.966565
0.961982
0.955862
0.947393
0.935107
0.916124
0.884145
0.823651
0.697555
0.494229
0.344742
0.274018
0.240627
0.225638
0.222781
0.231236
0.253901
0.301804
0.404869
0.596067
0.76999
0.857995
0.901722
0.92627
0.941524
0.95173
0.958946
0.964261
0.968301
0.971449
0.973949
0.975961
0.977593
0.978919
0.979992
0.980847
0.981508
0.981991
0.982304
0.982452
0.987678
0.987532
0.98726
0.98686
0.986324
0.985643
0.984799
0.983768
0.982514
0.980987
0.979113
0.976786
0.973848
0.970057
0.965033
0.958111
0.948166
0.933061
0.908298
0.863166
0.770034
0.587498
0.402823
0.310696
0.272365
0.261759
0.273222
0.312966
0.408194
0.596156
0.775497
0.865811
0.909735
0.933945
0.948761
0.958539
0.965356
0.97031
0.974051
0.976951
0.979248
0.981096
0.982601
0.983834
0.984845
0.985668
0.986328
0.98684
0.987216
0.98746
0.987575
0.987558
0.987408
0.987129
0.986718
0.986168
0.985467
0.984598
0.983532
0.982233
0.980646
0.97869
0.976252
0.973156
0.969136
0.963767
0.956304
0.945459
0.928734
0.900729
0.848222
0.737698
0.539554
0.374948
0.298743
0.267975
0.262401
0.279191
0.327991
0.442316
0.643527
0.801961
0.878141
0.916196
0.937737
0.951176
0.960169
0.966504
0.971159
0.974696
0.977453
0.979647
0.981421
0.98287
0.984061
0.985039
0.985838
0.98648
0.986978
0.987345
0.987583
0.987695
0.990628
0.990504
0.990274
0.989935
0.989484
0.988913
0.988212
0.987361
0.986336
0.9851
0.983601
0.981764
0.979476
0.97657
0.972789
0.967694
0.960595
0.95027
0.93437
0.907914
0.859096
0.759237
0.579393
0.417138
0.341984
0.321849
0.343612
0.421545
0.587064
0.764719
0.861811
0.909366
0.935244
0.950847
0.961002
0.967996
0.973023
0.976755
0.979626
0.981888
0.983705
0.985186
0.986405
0.987414
0.988249
0.988934
0.989487
0.989919
0.990237
0.990444
0.990542
0.990527
0.9904
0.990164
0.989816
0.989353
0.988767
0.988044
0.987166
0.986105
0.984823
0.983262
0.98134
0.978935
0.975863
0.971837
0.966373
0.958692
0.947388
0.929707
0.899655
0.842719
0.725293
0.535646
0.393509
0.333574
0.323055
0.355176
0.45086
0.631985
0.793079
0.875332
0.916394
0.939318
0.953412
0.962719
0.969198
0.973893
0.977411
0.980133
0.982288
0.984027
0.98545
0.986626
0.987601
0.988411
0.989076
0.989614
0.990035
0.990345
0.990548
0.990643
0.992429
0.992316
0.992105
0.991796
0.991387
0.990872
0.990242
0.989485
0.98858
0.9875
0.986203
0.984629
0.982691
0.980257
0.977125
0.972969
0.967291
0.959253
0.947336
0.928582
0.896693
0.83737
0.723444
0.560804
0.447011
0.413165
0.449685
0.566606
0.729066
0.840506
0.898369
0.929563
0.947964
0.959686
0.967606
0.973208
0.977313
0.980407
0.982815
0.984734
0.986292
0.987575
0.988642
0.989534
0.990277
0.990893
0.991392
0.991784
0.992074
0.992264
0.992353
0.992339
0.992223
0.992007
0.991691
0.991271
0.990742
0.990094
0.989314
0.988379
0.987259
0.98591
0.984266
0.982232
0.979664
0.976339
0.971897
0.965782
0.957042
0.943923
0.922945
0.886548
0.817591
0.688372
0.527704
0.432943
0.415214
0.468657
0.60323
0.760302
0.857026
0.906977
0.934461
0.950988
0.961674
0.968978
0.974191
0.97804
0.980959
0.983246
0.985077
0.98657
0.987805
0.988835
0.989698
0.99042
0.991018
0.991505
0.991887
0.99217
0.992355
0.992442
0.993587
0.993478
0.993274
0.992977
0.992584
0.992093
0.991496
0.990783
0.98994
0.988941
0.987754
0.986327
0.984587
0.982422
0.979661
0.97604
0.971167
0.964399
0.954625
0.93982
0.916035
0.875239
0.802509
0.687625
0.575879
0.534242
0.578974
0.692355
0.806058
0.877293
0.917233
0.940569
0.955126
0.964754
0.971431
0.976244
0.979823
0.982554
0.984698
0.986423
0.987837
0.989013
0.99
0.990833
0.991534
0.992118
0.992595
0.992971
0.99325
0.993433
0.993519
0.993506
0.993394
0.993186
0.992881
0.992479
0.991974
0.991361
0.990627
0.989756
0.988722
0.987489
0.986001
0.984177
0.981896
0.97897
0.975111
0.969881
0.962556
0.951873
0.935485
0.908765
0.862297
0.779892
0.658972
0.559062
0.536882
0.600318
0.720901
0.825841
0.888365
0.923535
0.944391
0.95759
0.966422
0.972608
0.977101
0.980465
0.983045
0.985084
0.986732
0.988089
0.989222
0.990177
0.990984
0.991665
0.992233
0.992698
0.993065
0.993337
0.993516
0.9936
0.994364
0.994254
0.994049
0.993751
0.993359
0.992869
0.992279
0.991579
0.990757
0.989793
0.988659
0.987309
0.985677
0.983665
0.981122
0.977822
0.973436
0.967438
0.958954
0.946473
0.927269
0.896369
0.845653
0.769204
0.687725
0.652742
0.690201
0.772401
0.848038
0.897867
0.928209
0.94709
0.95938
0.967747
0.973671
0.978006
0.981271
0.983789
0.985783
0.987402
0.988742
0.989867
0.990822
0.991634
0.992322
0.992901
0.993375
0.993752
0.994031
0.994215
0.994301
0.994288
0.994176
0.993967
0.993662
0.99326
0.992758
0.992152
0.991432
0.990585
0.989588
0.988411
0.987005
0.985298
0.983182
0.98049
0.976981
0.972286
0.96582
0.956597
0.942894
0.921583
0.886999
0.83054
0.749515
0.673984
0.655062
0.706848
0.791509
0.861487
0.906065
0.933219
0.950281
0.961506
0.969221
0.974727
0.978785
0.981859
0.984242
0.986141
0.98769
0.988978
0.990063
0.990987
0.991775
0.992445
0.993008
0.993472
0.993839
0.994113
0.994292
0.994377
0.994906
0.994792
0.994581
0.994273
0.993868
0.993366
0.992762
0.992052
0.991224
0.990262
0.989139
0.987817
0.986236
0.984303
0.981882
0.978775
0.974693
0.969187
0.96154
0.950566
0.93428
0.909425
0.871513
0.818577
0.763719
0.739585
0.765416
0.820746
0.873238
0.9106
0.935062
0.951102
0.961921
0.969471
0.974912
0.97895
0.982026
0.984426
0.986344
0.987915
0.989228
0.990343
0.991297
0.992115
0.992815
0.993406
0.993894
0.994282
0.99457
0.99476
0.994849
0.994836
0.99472
0.994504
0.994189
0.993775
0.99326
0.992642
0.991911
0.991059
0.990065
0.988903
0.987528
0.985875
0.983846
0.981289
0.97799
0.973633
0.967718
0.959444
0.947479
0.929589
0.902183
0.86075
0.80535
0.754319
0.741207
0.776687
0.833697
0.883029
0.91706
0.939252
0.953881
0.963824
0.970815
0.975889
0.979677
0.98258
0.984855
0.986684
0.98819
0.989454
0.99053
0.991455
0.992251
0.992932
0.993508
0.993985
0.994364
0.994646
0.994832
0.994919
0.995304
0.995184
0.994962
0.994637
0.994211
0.993684
0.993053
0.992313
0.991458
0.990471
0.989331
0.988
0.986425
0.98452
0.982156
0.979158
0.975266
0.970088
0.963015
0.953097
0.938848
0.918092
0.888401
0.849958
0.812439
0.796338
0.813595
0.851501
0.889724
0.919059
0.939528
0.953581
0.96337
0.970357
0.975479
0.979332
0.982303
0.984648
0.98654
0.988107
0.98943
0.990564
0.991542
0.992389
0.993118
0.993736
0.994247
0.994655
0.994959
0.995158
0.995252
0.995238
0.995116
0.994889
0.994558
0.994123
0.993583
0.992936
0.992178
0.991298
0.990281
0.989101
0.98772
0.986076
0.984079
0.981588
0.978413
0.974269
0.968723
0.961105
0.95036
0.934851
0.912261
0.880356
0.84077
0.806158
0.797413
0.821173
0.860654
0.897197
0.924349
0.943141
0.956065
0.965114
0.971611
0.976401
0.980026
0.982835
0.985062
0.98687
0.988373
0.989649
0.990746
0.991696
0.99252
0.99323
0.993833
0.994334
0.994733
0.995031
0.995226
0.995318
0.995613
0.995486
0.99525
0.994904
0.994451
0.99389
0.99322
0.992438
0.991537
0.990505
0.989321
0.987954
0.986351
0.984433
0.982082
0.979136
0.975359
0.970402
0.963747
0.954623
0.941912
0.924174
0.90022
0.871258
0.844702
0.833712
0.845519
0.872408
0.901277
0.924999
0.942522
0.955074
0.964087
0.970667
0.975572
0.979315
0.982237
0.984572
0.986479
0.988075
0.989436
0.990613
0.991637
0.992529
0.993299
0.993954
0.994498
0.994932
0.995255
0.995467
0.995566
0.995551
0.995422
0.995181
0.994828
0.994366
0.993792
0.993107
0.992306
0.99138
0.990318
0.989096
0.987679
0.98601
0.984002
0.98153
0.978418
0.974407
0.969117
0.961982
0.952157
0.938442
0.919364
0.894007
0.864643
0.8404
0.834437
0.850762
0.879115
0.907157
0.92943
0.945695
0.957329
0.965709
0.971852
0.976455
0.979985
0.982754
0.984977
0.986802
0.988336
0.989651
0.990791
0.991787
0.992656
0.993408
0.994049
0.994581
0.995006
0.995323
0.995531
0.995628
0.995871
0.995736
0.995483
0.995114
0.994629
0.994029
0.993312
0.992477
0.991518
0.990424
0.989178
0.98775
0.986092
0.984131
0.981758
0.978824
0.975111
0.97031
0.96398
0.955498
0.944037
0.928683
0.90901
0.886645
0.867272
0.859528
0.867876
0.887536
0.909881
0.929405
0.944598
0.955928
0.964314
0.970577
0.975333
0.979014
0.981927
0.984286
0.986238
0.987889
0.989311
0.990551
0.991636
0.992585
0.993407
0.994108
0.994689
0.995152
0.995497
0.995723
0.995828
0.995812
0.995675
0.995418
0.995042
0.994547
0.993935
0.993202
0.992348
0.991364
0.99024
0.988955
0.987478
0.985755
0.983707
0.981219
0.978127
0.974196
0.969092
0.962336
0.953261
0.940998
0.924665
0.904115
0.881755
0.864238
0.860032
0.87161
0.892573
0.914592
0.933159
0.947407
0.957991
0.965832
0.971707
0.976184
0.979666
0.982434
0.984686
0.986557
0.988148
0.989524
0.990727
0.991784
0.99271
0.993513
0.994199
0.994768
0.995223
0.995561
0.995783
0.995886
0.996099
0.995956
0.995687
0.995293
0.994775
0.994133
0.993366
0.992472
0.991446
0.990278
0.988955
0.987448
0.985715
0.983688
0.981269
0.978319
0.97464
0.969952
0.963898
0.955983
0.945617
0.932273
0.915997
0.898462
0.883984
0.878361
0.884445
0.899172
0.916732
0.932917
0.946141
0.956401
0.964234
0.970228
0.974875
0.978526
0.981457
0.983863
0.985882
0.987609
0.98911
0.990427
0.991585
0.992599
0.993478
0.994227
0.994848
0.995342
0.995709
0.99595
0.996062
0.996045
0.995899
0.995625
0.995224
0.994697
0.994042
0.993259
0.992345
0.991294
0.990096
0.988733
0.987178
0.985381
0.98327
0.98074
0.977641
0.973757
0.968795
0.962368
0.953954
0.942954
0.928907
0.91211
0.894777
0.881784
0.878723
0.887174
0.903019
0.920527
0.936102
0.948627
0.958288
0.965657
0.971308
0.975697
0.979161
0.981954
0.984258
0.986199
0.987867
0.989321
0.990602
0.99173
0.992721
0.993581
0.994315
0.994924
0.995409
0.99577
0.996006
0.996116
0.996313
0.996162
0.995877
0.99546
0.99491
0.994227
0.993409
0.992455
0.991359
0.990113
0.988703
0.987106
0.985284
0.983177
0.980698
0.977718
0.974063
0.969495
0.963712
0.95634
0.946982
0.935389
0.921876
0.907997
0.897005
0.89284
0.897368
0.908578
0.922507
0.93597
0.947477
0.956752
0.964055
0.969786
0.974317
0.977946
0.980909
0.983377
0.985477
0.987293
0.988883
0.990285
0.99152
0.992602
0.993539
0.994336
0.994996
0.99552
0.995909
0.996162
0.996281
0.996263
0.996109
0.995819
0.995395
0.994835
0.994139
0.993305
0.992331
0.99121
0.989932
0.988483
0.986838
0.984954
0.982766
0.98018
0.977061
0.973219
0.968404
0.962297
0.954511
0.94466
0.932574
0.918777
0.905191
0.895384
0.893105
0.899394
0.911543
0.925573
0.938666
0.949666
0.958466
0.965379
0.970807
0.975107
0.978564
0.981396
0.983766
0.985791
0.987548
0.989093
0.990458
0.991663
0.992721
0.993639
0.99442
0.995068
0.995583
0.995965
0.996215
0.996331
0.996524
0.996364
0.996066
0.995627
0.995049
0.994329
0.993466
0.992456
0.991295
0.989974
0.988481
0.986796
0.984885
0.982697
0.980157
0.97715
0.973525
0.969083
0.963584
0.956756
0.948357
0.938336
0.927138
0.916124
0.907711
0.904592
0.908003
0.916606
0.927688
0.938866
0.94883
0.957165
0.963937
0.969392
0.973801
0.977403
0.980395
0.982925
0.985106
0.98701
0.988687
0.99017
0.991477
0.992622
0.993612
0.994452
0.995147
0.995697
0.996105
0.996371
0.996495
0.996476
0.996315
0.996011
0.995566
0.994978
0.994245
0.993365
0.992335
0.991148
0.989796
0.988265
0.986531
0.98456
0.982295
0.979655
0.976519
0.972724
0.968064
0.962289
0.955125
0.946354
0.936
0.924674
0.913979
0.906506
0.904788
0.909518
0.918894
0.930153
0.941128
0.950737
0.958704
0.965155
0.97035
0.974554
0.977998
0.980868
0.983306
0.985414
0.987262
0.988894
0.990339
0.991617
0.992738
0.993708
0.994533
0.995216
0.995757
0.996158
0.99642
0.996542
0.996736
0.996571
0.996261
0.995807
0.995207
0.994459
0.993561
0.992507
0.991293
0.98991
0.988346
0.986584
0.984596
0.982341
0.979755
0.976739
0.973166
0.968879
0.963695
0.957434
0.949977
0.9414
0.932191
0.923481
0.917041
0.914699
0.917279
0.923887
0.932672
0.941886
0.95043
0.957842
0.964059
0.969206
0.973466
0.977018
0.980021
0.982598
0.984846
0.986826
0.988577
0.990128
0.991494
0.992689
0.993721
0.994594
0.995314
0.995885
0.996307
0.996583
0.996712
0.996692
0.996525
0.99621
0.995749
0.995139
0.994379
0.993464
0.99239
0.991151
0.989737
0.988135
0.986326
0.98428
0.981953
0.979274
0.97614
0.972417
0.967942
0.962529
0.956004
0.948275
0.939488
0.930251
0.921852
0.916146
0.914844
0.91841
0.925641
0.934634
0.943756
0.952064
0.959202
0.965163
0.970091
0.974173
0.977584
0.980476
0.982966
0.985146
0.987071
0.988778
0.990293
0.99163
0.992801
0.993813
0.994671
0.99538
0.995941
0.996357
0.996628
0.996755
0.996954
0.996786
0.99647
0.996006
0.995395
0.994631
0.993713
0.992633
0.991387
0.989964
0.988354
0.986541
0.984504
0.982213
0.979613
0.976625
0.973149
0.969066
0.964251
0.958599
0.952084
0.944858
0.937388
0.930574
0.92568
0.923932
0.925876
0.930917
0.93781
0.945302
0.952516
0.959003
0.964623
0.96941
0.973471
0.97693
0.979906
0.982496
0.98478
0.986806
0.988606
0.9902
0.991604
0.992829
0.993884
0.994776
0.99551
0.996091
0.996522
0.996803
0.996935
0.996915
0.996744
0.996423
0.995953
0.995332
0.994556
0.993622
0.992523
0.991251
0.989798
0.988152
0.986294
0.984202
0.981845
0.979161
0.976068
0.972462
0.968222
0.963224
0.957374
0.950672
0.943325
0.935887
0.929352
0.925022
0.924038
0.92671
0.932243
0.939342
0.946817
0.953885
0.960177
0.965601
0.970211
0.974122
0.977459
0.980335
0.982847
0.985067
0.987042
0.988799
0.990358
0.991733
0.992935
0.993971
0.994848
0.995571
0.996143
0.996568
0.996845
0.996974
0.997182
0.997013
0.996696
0.996233
0.995621
0.994858
0.993938
0.992857
0.991605
0.990175
0.988556
0.986735
0.984696
0.982418
0.979859
0.97696
0.973646
0.969838
0.965462
0.960475
0.954913
0.94896
0.943026
0.937791
0.934129
0.932843
0.93429
0.938079
0.943392
0.949361
0.955319
0.960868
0.965836
0.970192
0.973983
0.977283
0.980171
0.982721
0.984989
0.987017
0.988822
0.990423
0.991832
0.99306
0.994116
0.995007
0.995741
0.996322
0.996753
0.997034
0.997166
0.997146
0.996975
0.996654
0.996184
0.995563
0.994788
0.993854
0.992753
0.991478
0.99002
0.988366
0.986503
0.984413
0.982076
0.979444
0.976455
0.973033
0.9691
0.964584
0.959456
0.953775
0.947765
0.941894
0.936895
0.933655
0.93292
0.934893
0.939058
0.944558
0.950552
0.956432
0.961852
0.966677
0.970897
0.974567
0.977764
0.980567
0.983046
0.985258
0.987238
0.989004
0.990572
0.991954
0.993159
0.994197
0.995075
0.995797
0.99637
0.996794
0.997072
0.997202
0.99742
0.997253
0.996943
0.996489
0.995891
0.995145
0.994248
0.993192
0.991971
0.990575
0.988995
0.987221
0.985241
0.983046
0.980603
0.977872
0.974806
0.971361
0.967504
0.963239
0.958636
0.953878
0.949296
0.945378
0.942703
0.941779
0.942833
0.945616
0.949607
0.954231
0.959006
0.963609
0.967867
0.971713
0.975147
0.978202
0.980923
0.983356
0.985541
0.987507
0.989265
0.990825
0.992199
0.993396
0.994426
0.995296
0.996012
0.99658
0.997001
0.997278
0.997407
0.997388
0.997219
0.996904
0.996445
0.995838
0.995082
0.99417
0.993097
0.991854
0.990432
0.988821
0.987009
0.984985
0.982738
0.980234
0.977429
0.974279
0.970739
0.966782
0.962423
0.957752
0.95298
0.948471
0.944741
0.942371
0.941832
0.943257
0.946316
0.950464
0.955134
0.959877
0.964403
0.968564
0.972311
0.975652
0.978625
0.981276
0.98365
0.985787
0.98771
0.989432
0.990962
0.992311
0.993487
0.9945
0.995357
0.996063
0.996623
0.997039
0.997311
0.99744
0.997668
0.997508
0.99721
0.996776
0.996206
0.995498
0.994647
0.993647
0.992493
0.991177
0.989691
0.988027
0.98618
0.984147
0.981906
0.979435
0.976711
0.973717
0.970452
0.966948
0.963286
0.959626
0.956215
0.95338
0.951487
0.950843
0.951589
0.953571
0.956471
0.959926
0.96361
0.967281
0.970788
0.974049
0.977037
0.979754
0.982217
0.984449
0.986472
0.988306
0.989953
0.99142
0.992714
0.993845
0.994819
0.995644
0.996325
0.996866
0.997269
0.997534
0.997658
0.997639
0.997477
0.997176
0.996737
0.996159
0.995441
0.994577
0.993562
0.992389
0.99105
0.989536
0.98784
0.985956
0.98388
0.98159
0.979063
0.976275
0.973214
0.969884
0.966324
0.962631
0.95898
0.955638
0.952945
0.951263
0.950879
0.951876
0.954052
0.957074
0.960581
0.964262
0.967893
0.97134
0.974535
0.977457
0.980113
0.982521
0.984705
0.986688
0.988486
0.990101
0.991542
0.992814
0.993926
0.994886
0.995699
0.99637
0.996904
0.997302
0.997563
0.997687
0.997925
0.997775
0.997497
0.997094
0.996567
0.995914
0.995133
0.994219
0.99317
0.991978
0.990638
0.989147
0.987503
0.985708
0.983752
0.981625
0.979323
0.976848
0.974219
0.971477
0.9687
0.96601
0.963577
0.961607
0.960317
0.959885
0.960395
0.961753
0.963777
0.96625
0.968967
0.97176
0.97451
0.977142
0.979616
0.981915
0.984036
0.985986
0.987772
0.989404
0.99088
0.992202
0.993374
0.994403
0.995294
0.996051
0.996679
0.99718
0.997554
0.997801
0.997918
0.9979
0.997749
0.997468
0.99706
0.996526
0.995864
0.995072
0.994146
0.99308
0.991868
0.990506
0.988989
0.987316
0.985487
0.983493
0.981325
0.97898
0.976462
0.973794
0.971023
0.968237
0.965567
0.963191
0.961322
0.960173
0.959909
0.960581
0.96207
0.964183
0.966703
0.969431
0.972209
0.974927
0.977518
0.979949
0.982205
0.984286
0.9862
0.987954
0.989557
0.991008
0.992307
0.993461
0.994474
0.995352
0.996099
0.996718
0.997213
0.997583
0.997827
0.997943
0.998191
0.998054
0.997803
0.997441
0.996968
0.996387
0.995697
0.994896
0.993981
0.99295
0.991801
0.990533
0.989146
0.987647
0.986033
0.984305
0.98247
0.98054
0.97854
0.976511
0.974515
0.972636
0.970982
0.969674
0.968831
0.968553
0.968887
0.96978
0.97113
0.972818
0.974722
0.976735
0.978775
0.980782
0.982714
0.98455
0.986276
0.987886
0.989379
0.990756
0.992012
0.993147
0.994162
0.995059
0.995841
0.996511
0.99707
0.997519
0.997856
0.99808
0.998186
0.99817
0.998032
0.997778
0.997411
0.996934
0.996346
0.995646
0.994834
0.993906
0.99286
0.991693
0.990405
0.988997
0.987473
0.985832
0.984076
0.982213
0.980258
0.978239
0.976199
0.974205
0.972347
0.970737
0.969495
0.968742
0.968568
0.969002
0.969979
0.971391
0.973116
0.975035
0.977047
0.979073
0.981058
0.982965
0.984773
0.986471
0.988056
0.989525
0.99088
0.992117
0.993234
0.994234
0.995119
0.99589
0.996552
0.997104
0.997547
0.997881
0.998102
0.998207
0.998463
0.998344
0.998125
0.997811
0.997405
0.996909
0.996326
0.995655
0.994896
0.994051
0.993118
0.9921
0.990999
0.989822
0.988571
0.987254
0.985882
0.98447
0.983042
0.981629
0.980274
0.979032
0.977963
0.977134
0.976607
0.976436
0.976645
0.977206
0.978065
0.97916
0.980423
0.981793
0.983218
0.984654
0.986072
0.987447
0.988764
0.990013
0.991186
0.992281
0.993291
0.994214
0.995047
0.995792
0.996449
0.997016
0.997493
0.99788
0.998172
0.998367
0.99846
0.998446
0.998325
0.998104
0.997787
0.997376
0.996875
0.996284
0.995605
0.994837
0.993979
0.993034
0.992001
0.990885
0.989691
0.988423
0.987089
0.985701
0.984276
0.982839
0.981425
0.980077
0.978852
0.977813
0.977027
0.976554
0.976444
0.976714
0.977325
0.978224
0.979346
0.980624
0.981998
0.983419
0.984846
0.986249
0.987608
0.988909
0.990141
0.991298
0.992377
0.993373
0.994283
0.995105
0.995841
0.996488
0.997049
0.997521
0.997903
0.998192
0.998385
0.998477
0.998741
0.998641
0.998459
0.9982
0.997867
0.997466
0.996998
0.996467
0.995874
0.995222
0.994512
0.993747
0.99293
0.992067
0.991163
0.990227
0.98927
0.988306
0.987352
0.986429
0.985565
0.984789
0.984134
0.983635
0.983322
0.98322
0.983345
0.983681
0.9842
0.984872
0.985664
0.98654
0.987473
0.988435
0.989405
0.990366
0.991304
0.992209
0.993071
0.993884
0.994645
0.995348
0.995993
0.996577
0.997097
0.997553
0.99794
0.998257
0.998499
0.998661
0.998739
0.998727
0.998626
0.998443
0.998181
0.997845
0.997439
0.996967
0.996429
0.995829
0.995169
0.99445
0.993675
0.992849
0.991975
0.99106
0.990115
0.98915
0.98818
0.987223
0.986303
0.985445
0.984682
0.984047
0.983573
0.983291
0.983225
0.983385
0.98375
0.984293
0.984983
0.985786
0.986668
0.987601
0.98856
0.989524
0.990477
0.991405
0.992299
0.993151
0.993954
0.994705
0.9954
0.996037
0.996614
0.997128
0.997579
0.997962
0.998276
0.998515
0.998676
0.998753
0.999021
0.998943
0.998801
0.998601
0.998346
0.998042
0.997693
0.997302
0.996872
0.996405
0.995906
0.995375
0.994816
0.994232
0.993629
0.993015
0.992398
0.991789
0.991198
0.990638
0.990124
0.98967
0.989294
0.98901
0.988834
0.988778
0.988848
0.989037
0.989333
0.989721
0.990184
0.990708
0.991275
0.991872
0.992487
0.993107
0.993724
0.994328
0.994913
0.995471
0.995999
0.996496
0.996958
0.997383
0.997767
0.998108
0.998402
0.998645
0.998832
0.998959
0.99902
0.999011
0.998932
0.998789
0.998586
0.99833
0.998023
0.99767
0.997275
0.99684
0.996368
0.995863
0.995327
0.994762
0.994171
0.993562
0.992944
0.992324
0.991713
0.991122
0.990565
0.990056
0.989611
0.989246
0.988976
0.988817
0.98878
0.988869
0.989075
0.989385
0.989783
0.990254
0.990782
0.991352
0.991949
0.992561
0.993177
0.993789
0.994388
0.994966
0.995518
0.996041
0.996532
0.996989
0.997409
0.997789
0.998127
0.998418
0.998659
0.998844
0.99897
0.99903
0.999303
0.999247
0.999147
0.999006
0.99883
0.998622
0.998387
0.998128
0.997847
0.997548
0.997233
0.996904
0.996561
0.996206
0.995845
0.995482
0.995125
0.994778
0.994447
0.994139
0.99386
0.993618
0.993419
0.993272
0.993181
0.993152
0.993188
0.993286
0.993441
0.993645
0.993893
0.994177
0.99449
0.994825
0.995176
0.995537
0.995902
0.996265
0.99662
0.996963
0.997292
0.997606
0.997903
0.998181
0.998437
0.998667
0.998869
0.999038
0.999169
0.999259
0.999302
0.999295
0.999239
0.999138
0.998997
0.998819
0.998609
0.998372
0.99811
0.997827
0.997525
0.997207
0.996874
0.996528
0.99617
0.995806
0.995441
0.995083
0.994735
0.994405
0.994099
0.993824
0.993587
0.993395
0.993255
0.993172
0.993153
0.993199
0.993305
0.993467
0.993678
0.99393
0.994217
0.994532
0.994868
0.995218
0.995578
0.99594
0.9963
0.996652
0.996992
0.997318
0.997629
0.997923
0.998198
0.998452
0.99868
0.99888
0.999047
0.999177
0.999266
0.999309
0.999583
0.99955
0.999492
0.99941
0.999309
0.999192
0.999061
0.998919
0.998768
0.99861
0.998447
0.998279
0.998106
0.997927
0.997748
0.997571
0.997398
0.997233
0.997078
0.996936
0.996809
0.996701
0.996612
0.996547
0.996507
0.996494
0.99651
0.996554
0.996622
0.996713
0.996825
0.996954
0.997099
0.997256
0.997423
0.997597
0.997776
0.997957
0.998136
0.998309
0.998477
0.998641
0.998798
0.998948
0.999088
0.999217
0.999331
0.999428
0.999505
0.999557
0.999583
0.999579
0.999546
0.999487
0.999405
0.999303
0.999184
0.999052
0.998909
0.998757
0.998598
0.998434
0.998264
0.998089
0.997909
0.997729
0.997551
0.997378
0.997214
0.997059
0.996918
0.996793
0.996687
0.996602
0.99654
0.996503
0.996495
0.996515
0.996562
0.996633
0.996727
0.996841
0.996972
0.997118
0.997276
0.997443
0.997617
0.997795
0.997975
0.998152
0.998323
0.99849
0.998652
0.998808
0.998957
0.999096
0.999224
0.999337
0.999434
0.999509
0.999562
0.999587
0.999861
0.999851
0.999832
0.999806
0.999774
0.999737
0.999697
0.999655
0.999611
0.999565
0.999519
0.999473
0.999425
0.999376
0.999326
0.999278
0.999231
0.999187
0.999147
0.99911
0.999077
0.999049
0.999027
0.999011
0.999001
0.998997
0.999001
0.999012
0.999029
0.999052
0.999081
0.999114
0.999152
0.999193
0.999238
0.999285
0.999334
0.999384
0.999434
0.999481
0.999528
0.999574
0.99962
0.999664
0.999706
0.999745
0.999781
0.999811
0.999836
0.999853
0.999861
0.99986
0.999849
0.99983
0.999804
0.999772
0.999735
0.999695
0.999652
0.999608
0.999562
0.999516
0.999469
0.999421
0.999371
0.999321
0.999272
0.999226
0.999182
0.999142
0.999105
0.999073
0.999046
0.999024
0.999009
0.999
0.998997
0.999003
0.999014
0.999032
0.999056
0.999085
0.999119
0.999157
0.999199
0.999243
0.99929
0.999339
0.999389
0.999438
0.999485
0.999532
0.999577
0.999623
0.999666
0.999708
0.999747
0.999783
0.999813
0.999837
0.999854
0.999862
)
;

boundaryField
{
    top
    {
        type            calculated;
        value           uniform 1;
    }
    bottom
    {
        type            calculated;
        value           uniform 0.148957;
    }
    frontAndBack
    {
        type            empty;
    }
    left_cyc
    {
        type            cyclic;
    }
    right_cyc
    {
        type            cyclic;
    }
}


// ************************************************************************* //
