/*--------------------------------*- C++ -*----------------------------------*\
| =========                 |                                                 |
| \\      /  F ield         | OpenFOAM: The Open Source CFD Toolbox           |
|  \\    /   O peration     | Version:  2.3.0                                 |
|   \\  /    A nd           | Web:      www.OpenFOAM.org                      |
|    \\/     M anipulation  |                                                 |
\*---------------------------------------------------------------------------*/
FoamFile
{
    version     2.0;
    format      ascii;
    class       volScalarField;
    location    "14000";
    object      NUEff;
}
// * * * * * * * * * * * * * * * * * * * * * * * * * * * * * * * * * * * * * //

dimensions      [0 2 -1 0 0 0 0];

internalField   nonuniform List<scalar> 
3060
(
0.175191
0.174999
0.174649
0.174153
0.173524
0.172776
0.171923
0.170977
0.169949
0.168846
0.167677
0.166447
0.165169
0.163876
0.162601
0.161343
0.160106
0.1589
0.157741
0.156653
0.15566
0.154789
0.154066
0.15352
0.153178
0.153065
0.153193
0.153548
0.154106
0.15484
0.15572
0.156722
0.157817
0.158983
0.160196
0.161439
0.162704
0.163988
0.165289
0.166569
0.167798
0.168964
0.17006
0.171079
0.172011
0.172846
0.173571
0.174171
0.174635
0.174947
0.175096
0.175073
0.174879
0.174526
0.174025
0.17339
0.172635
0.171773
0.170817
0.169777
0.168662
0.167479
0.166235
0.164944
0.163647
0.162369
0.161109
0.159872
0.158669
0.15752
0.156446
0.155474
0.15463
0.15394
0.153433
0.153136
0.153072
0.153247
0.153646
0.154242
0.155007
0.155913
0.156933
0.158042
0.159215
0.160432
0.161674
0.162936
0.164216
0.165511
0.166779
0.167993
0.169146
0.170229
0.171237
0.172159
0.172985
0.173703
0.174298
0.174757
0.175066
0.175214
0.63743
0.62987
0.615711
0.594914
0.567554
0.534115
0.49578
0.454523
0.412812
0.373003
0.336783
0.304983
0.277739
0.254768
0.235969
0.22068
0.20806
0.197593
0.18893
0.18181
0.176026
0.171424
0.167895
0.165381
0.163867
0.163372
0.163929
0.165505
0.168082
0.171678
0.176358
0.182233
0.189463
0.198263
0.208902
0.221747
0.237345
0.256606
0.280039
0.307809
0.340152
0.376848
0.41694
0.458613
0.499437
0.536965
0.569315
0.595404
0.614814
0.627481
0.633417
0.632499
0.624777
0.610327
0.589134
0.561323
0.527464
0.488849
0.447551
0.406077
0.366743
0.331145
0.300021
0.273443
0.251093
0.232932
0.218123
0.205898
0.195771
0.187408
0.180554
0.175008
0.170624
0.167302
0.16499
0.163681
0.163401
0.16417
0.16595
0.16873
0.172536
0.177439
0.18356
0.191067
0.200179
0.211176
0.224438
0.240543
0.260466
0.284532
0.312975
0.345988
0.383279
0.423794
0.465633
0.506345
0.543541
0.575448
0.60109
0.620122
0.632526
0.638331
0.940803
0.940069
0.93868
0.936592
0.93372
0.929925
0.924991
0.918586
0.910189
0.898965
0.883517
0.861387
0.82803
0.774852
0.687695
0.561669
0.429997
0.334568
0.275489
0.238945
0.215412
0.19975
0.189234
0.182409
0.178527
0.177288
0.178683
0.182731
0.189759
0.200551
0.216631
0.240853
0.278613
0.339878
0.438577
0.572121
0.69612
0.780421
0.831622
0.863805
0.885217
0.900198
0.911096
0.919249
0.925462
0.930232
0.933881
0.936615
0.938566
0.939812
0.940391
0.940302
0.939547
0.93812
0.935971
0.93301
0.929088
0.923973
0.917304
0.908518
0.8967
0.880304
0.856585
0.820419
0.762175
0.667173
0.535572
0.408312
0.320611
0.266845
0.233407
0.21173
0.197258
0.187574
0.18139
0.178061
0.177361
0.179292
0.18391
0.191619
0.203318
0.22073
0.247074
0.288436
0.355787
0.462356
0.597841
0.714654
0.791555
0.838355
0.868116
0.888144
0.902287
0.912653
0.920456
0.926429
0.931034
0.934566
0.937219
0.939115
0.940327
0.940891
0.971924
0.971624
0.971061
0.970225
0.969094
0.967633
0.965787
0.963475
0.960581
0.956928
0.952251
0.946136
0.937905
0.926391
0.909434
0.882946
0.837551
0.751674
0.594572
0.417161
0.309412
0.254298
0.224525
0.207829
0.199129
0.196459
0.199466
0.20857
0.225878
0.256771
0.314253
0.426783
0.60709
0.759637
0.841801
0.885421
0.911032
0.927505
0.93872
0.946753
0.952729
0.957301
0.960871
0.963697
0.965948
0.967738
0.969146
0.970224
0.971006
0.97151
0.971747
0.97171
0.971403
0.970826
0.969968
0.968807
0.967304
0.9654
0.96301
0.960006
0.9562
0.951303
0.944861
0.936126
0.923792
0.905411
0.876206
0.825086
0.727003
0.556704
0.38951
0.295169
0.246739
0.220276
0.205487
0.198118
0.196615
0.200802
0.211341
0.230821
0.265658
0.331314
0.458814
0.643167
0.780344
0.852344
0.891306
0.914667
0.929863
0.94035
0.947932
0.953613
0.957985
0.961415
0.964141
0.966319
0.968056
0.969425
0.970475
0.971236
0.971729
0.97196
0.982645
0.982456
0.982102
0.981579
0.980876
0.979978
0.978855
0.977471
0.975769
0.97367
0.971055
0.96775
0.963489
0.95785
0.95013
0.939088
0.922342
0.894844
0.844519
0.740955
0.549834
0.37531
0.288397
0.247887
0.229194
0.223763
0.229881
0.249538
0.291921
0.38313
0.563151
0.750152
0.848998
0.897245
0.923799
0.940058
0.95082
0.958367
0.963889
0.968066
0.971308
0.973872
0.97593
0.977596
0.978946
0.980036
0.980904
0.981574
0.982063
0.98238
0.982529
0.982506
0.982312
0.98195
0.981414
0.980694
0.97977
0.978616
0.977188
0.975427
0.973248
0.970523
0.967064
0.962578
0.956601
0.94835
0.936419
0.918062
0.887317
0.829577
0.709211
0.507435
0.351639
0.277466
0.242684
0.227117
0.224077
0.232666
0.255893
0.305293
0.412044
0.606454
0.776417
0.861317
0.903665
0.927551
0.942445
0.952435
0.959513
0.964734
0.968708
0.971808
0.974272
0.976257
0.977867
0.979177
0.980237
0.981081
0.981735
0.982212
0.982522
0.982668
0.987831
0.987687
0.987418
0.987022
0.986492
0.985819
0.984986
0.983967
0.982729
0.981222
0.979374
0.977081
0.974187
0.970456
0.965516
0.958719
0.948971
0.934199
0.910064
0.866291
0.776347
0.597706
0.409837
0.314535
0.275042
0.264283
0.276413
0.318161
0.418333
0.610663
0.784129
0.870015
0.91207
0.935418
0.949781
0.959293
0.965943
0.970785
0.974447
0.977291
0.979545
0.981361
0.982841
0.984054
0.98505
0.98586
0.986511
0.987016
0.987386
0.987628
0.987741
0.987723
0.987576
0.987301
0.986895
0.986353
0.985662
0.984805
0.983756
0.982477
0.980916
0.978995
0.976601
0.973567
0.969631
0.964384
0.957105
0.946558
0.930355
0.903374
0.853167
0.747931
0.553675
0.383263
0.303146
0.270878
0.264897
0.282091
0.332516
0.450766
0.653461
0.807313
0.880856
0.917788
0.93879
0.951935
0.96075
0.966969
0.971545
0.975025
0.977741
0.979903
0.981652
0.983082
0.984258
0.985224
0.986013
0.986646
0.98714
0.987501
0.987737
0.987848
0.990746
0.990624
0.990396
0.990061
0.989615
0.989052
0.988359
0.987519
0.986507
0.985288
0.98381
0.981999
0.979744
0.976883
0.973162
0.968151
0.961179
0.951055
0.935501
0.909711
0.862365
0.765912
0.589664
0.424779
0.347201
0.326655
0.349832
0.431828
0.601361
0.773876
0.866265
0.911783
0.936735
0.95186
0.96174
0.968562
0.973474
0.977127
0.979941
0.982159
0.983943
0.985398
0.986597
0.987589
0.988411
0.989086
0.989631
0.990056
0.99037
0.990574
0.990671
0.990656
0.990531
0.990297
0.989955
0.989498
0.98892
0.988208
0.987344
0.9863
0.985039
0.983505
0.981618
0.979259
0.976249
0.972309
0.96697
0.959479
0.948485
0.931356
0.902409
0.84798
0.736018
0.549397
0.402291
0.339177
0.327815
0.360892
0.459648
0.642102
0.798751
0.878155
0.918004
0.940359
0.954149
0.963275
0.969638
0.974255
0.977715
0.980395
0.982518
0.984232
0.985635
0.986795
0.987758
0.988556
0.989214
0.989745
0.990161
0.990467
0.990667
0.990761
0.992526
0.992414
0.992205
0.9919
0.991496
0.990987
0.990366
0.989618
0.988726
0.987661
0.986383
0.984832
0.982922
0.980524
0.977442
0.973352
0.967771
0.959877
0.948196
0.929861
0.898811
0.841364
0.731269
0.571235
0.45595
0.421627
0.460246
0.580242
0.739594
0.845939
0.901245
0.931276
0.949093
0.960487
0.968208
0.973679
0.977695
0.980724
0.983085
0.984967
0.986496
0.987757
0.988806
0.989682
0.990414
0.99102
0.991512
0.991899
0.992184
0.992371
0.992459
0.992446
0.992331
0.992118
0.991806
0.991392
0.990871
0.990233
0.989465
0.988546
0.987445
0.98612
0.984506
0.982511
0.979993
0.976736
0.972391
0.96642
0.957901
0.945154
0.924856
0.889853
0.823999
0.700172
0.540645
0.442636
0.423589
0.478177
0.613728
0.767117
0.860452
0.908855
0.93563
0.951791
0.962265
0.969437
0.974561
0.978347
0.98122
0.983471
0.985275
0.986746
0.987963
0.988979
0.98983
0.990543
0.991133
0.991613
0.991991
0.99227
0.992453
0.992539
0.99367
0.993562
0.993361
0.993067
0.992679
0.992194
0.991604
0.990902
0.99007
0.989086
0.987916
0.98651
0.984796
0.982664
0.979947
0.976384
0.971592
0.964941
0.955351
0.940854
0.917638
0.878007
0.807736
0.696597
0.586804
0.545737
0.591629
0.703723
0.812978
0.881027
0.919392
0.941941
0.956071
0.965444
0.97196
0.976664
0.980166
0.98284
0.984942
0.986633
0.988021
0.989176
0.990146
0.990965
0.991654
0.992229
0.992699
0.99307
0.993345
0.993525
0.99361
0.993597
0.993486
0.993281
0.992981
0.992584
0.992087
0.991483
0.990761
0.989905
0.988889
0.987678
0.986218
0.984429
0.982193
0.979327
0.975551
0.970439
0.963292
0.952892
0.936994
0.911194
0.866604
0.787855
0.670998
0.571367
0.548204
0.61114
0.729063
0.830354
0.890794
0.924983
0.945347
0.958272
0.966939
0.973015
0.977433
0.980742
0.983281
0.985288
0.986911
0.988247
0.989364
0.990304
0.9911
0.991772
0.992332
0.992791
0.993154
0.993423
0.9936
0.993683
0.994436
0.994327
0.994125
0.99383
0.993443
0.992959
0.992377
0.991686
0.990876
0.989927
0.98881
0.98748
0.985874
0.983895
0.981391
0.978145
0.973832
0.967937
0.959608
0.947376
0.928606
0.898523
0.849417
0.77572
0.697092
0.663567
0.700846
0.780488
0.852948
0.900736
0.929987
0.948275
0.960223
0.968377
0.97416
0.978398
0.981593
0.984058
0.986012
0.987599
0.988914
0.990018
0.990956
0.991754
0.992432
0.993001
0.993469
0.993839
0.994115
0.994296
0.994382
0.994368
0.994258
0.994051
0.99375
0.993354
0.99286
0.992263
0.991555
0.990722
0.989743
0.988587
0.987208
0.985534
0.983461
0.980825
0.97739
0.972801
0.966488
0.9575
0.944184
0.923553
0.890239
0.836117
0.758357
0.684831
0.66567
0.715675
0.797314
0.864792
0.907992
0.934443
0.951124
0.962125
0.969697
0.975107
0.979097
0.982121
0.984465
0.986333
0.987858
0.989125
0.990194
0.991104
0.991881
0.992542
0.993097
0.993555
0.993918
0.994188
0.994365
0.994449
0.994971
0.994858
0.994649
0.994345
0.993945
0.993448
0.992853
0.992152
0.991336
0.990388
0.989284
0.987983
0.986427
0.984526
0.982144
0.979088
0.975075
0.969665
0.962156
0.951398
0.935466
0.911235
0.874452
0.823373
0.770693
0.747848
0.773234
0.826599
0.87701
0.912971
0.936616
0.952179
0.962706
0.970067
0.97538
0.979328
0.982337
0.984686
0.986564
0.988104
0.989392
0.990486
0.991423
0.992228
0.992916
0.993498
0.993979
0.994361
0.994646
0.994833
0.994921
0.994907
0.994793
0.99458
0.994269
0.993861
0.993354
0.992744
0.992026
0.991188
0.990212
0.989072
0.987723
0.986103
0.984116
0.981612
0.978385
0.974125
0.968349
0.960281
0.948641
0.931291
0.904816
0.864955
0.811727
0.762397
0.749296
0.783189
0.838008
0.885658
0.918704
0.940349
0.954661
0.964409
0.971272
0.976257
0.979981
0.982835
0.985072
0.98687
0.988351
0.989595
0.990654
0.991565
0.992349
0.993021
0.99359
0.99406
0.994435
0.994714
0.994898
0.994984
0.995362
0.995244
0.995024
0.994703
0.994282
0.993761
0.993138
0.992408
0.991565
0.990593
0.989471
0.988163
0.986613
0.98474
0.982417
0.97947
0.975645
0.970557
0.963614
0.953888
0.939943
0.919688
0.890834
0.853666
0.817616
0.802404
0.819336
0.855954
0.89279
0.921113
0.940939
0.954591
0.964122
0.970937
0.975938
0.979704
0.98261
0.984904
0.986757
0.988292
0.989589
0.990701
0.991663
0.992496
0.993212
0.993821
0.994326
0.994728
0.995028
0.995225
0.995317
0.995303
0.995183
0.994958
0.994631
0.994202
0.99367
0.993033
0.992287
0.991421
0.990422
0.989265
0.987911
0.986301
0.984345
0.981907
0.978801
0.97475
0.969335
0.961904
0.951443
0.936381
0.914509
0.883714
0.84556
0.812079
0.803363
0.826029
0.864038
0.899409
0.925816
0.944162
0.956811
0.965683
0.972061
0.976766
0.980327
0.983087
0.985276
0.987053
0.988531
0.989786
0.990865
0.991801
0.992613
0.993313
0.993909
0.994403
0.994798
0.995092
0.995286
0.995376
0.995667
0.995541
0.995307
0.994965
0.994516
0.993962
0.9933
0.992528
0.99164
0.990624
0.989459
0.988115
0.986539
0.984655
0.982344
0.97945
0.97574
0.970871
0.964339
0.955392
0.942947
0.925624
0.902311
0.874249
0.848674
0.838271
0.849881
0.875943
0.903865
0.92683
0.943834
0.95604
0.964821
0.97124
0.97603
0.979687
0.982544
0.984829
0.986695
0.988258
0.989592
0.990747
0.991753
0.99263
0.993389
0.994035
0.994571
0.995
0.995319
0.995528
0.995626
0.995611
0.995484
0.995245
0.994897
0.99444
0.993874
0.993199
0.99241
0.9915
0.990456
0.989257
0.987868
0.986233
0.984268
0.98185
0.978806
0.974886
0.96972
0.962759
0.953187
0.939851
0.921344
0.896799
0.868396
0.844875
0.838919
0.854523
0.881886
0.909086
0.930776
0.946666
0.958057
0.966273
0.972303
0.976822
0.980288
0.983008
0.985192
0.986985
0.988493
0.989785
0.990907
0.991888
0.992744
0.993486
0.99412
0.994646
0.995066
0.99538
0.995585
0.995682
0.99592
0.995786
0.995536
0.99517
0.99469
0.994096
0.993388
0.992564
0.991618
0.99054
0.989314
0.98791
0.986281
0.984354
0.982024
0.979143
0.975497
0.970783
0.96457
0.956252
0.945027
0.930019
0.910848
0.889124
0.870416
0.863064
0.871297
0.890423
0.912115
0.931063
0.945831
0.956861
0.965037
0.971149
0.975792
0.979388
0.982236
0.984543
0.986453
0.98807
0.989465
0.990682
0.991749
0.992683
0.993492
0.994183
0.994758
0.995215
0.995556
0.99578
0.995884
0.995868
0.995732
0.995477
0.995105
0.994617
0.994012
0.99329
0.992447
0.99148
0.990375
0.989114
0.987666
0.985979
0.983975
0.981541
0.978518
0.974677
0.969691
0.963098
0.95425
0.942311
0.926437
0.906494
0.884784
0.867728
0.863516
0.874615
0.894903
0.916308
0.934412
0.948341
0.958707
0.966397
0.972161
0.976556
0.979973
0.982691
0.984902
0.98674
0.988303
0.989656
0.99084
0.991881
0.992794
0.993588
0.994265
0.994829
0.995279
0.995614
0.995833
0.995936
0.996145
0.996003
0.995736
0.995345
0.994832
0.994197
0.993438
0.992554
0.991542
0.990392
0.989089
0.987607
0.985904
0.983912
0.981538
0.978642
0.97503
0.97043
0.964486
0.956721
0.946561
0.933505
0.917615
0.900548
0.886528
0.881173
0.887193
0.90157
0.918669
0.93442
0.9473
0.957302
0.964945
0.9708
0.975335
0.978902
0.981767
0.984121
0.986097
0.987789
0.989261
0.990555
0.991693
0.992692
0.993559
0.994298
0.994912
0.995401
0.995765
0.996002
0.996113
0.996096
0.995952
0.99568
0.995284
0.994762
0.994115
0.993342
0.992441
0.991406
0.990228
0.98889
0.987364
0.985604
0.983538
0.981064
0.978034
0.97424
0.969391
0.963113
0.954903
0.944179
0.930497
0.914149
0.897267
0.884573
0.881498
0.889625
0.905001
0.922056
0.937267
0.949524
0.958992
0.96622
0.971768
0.976073
0.979472
0.982214
0.984475
0.986381
0.98802
0.989451
0.990712
0.991824
0.992802
0.993652
0.994378
0.994981
0.995461
0.995819
0.996053
0.996162
0.996356
0.996206
0.995923
0.995509
0.994963
0.994286
0.993477
0.992533
0.991451
0.990223
0.988833
0.987261
0.98547
0.9834
0.980965
0.97804
0.974452
0.969968
0.96429
0.957053
0.947874
0.936517
0.9233
0.909762
0.899086
0.895106
0.899601
0.910582
0.924188
0.937327
0.948557
0.957612
0.964746
0.970345
0.974772
0.97832
0.981217
0.983632
0.985689
0.987469
0.98903
0.990409
0.991624
0.99269
0.993615
0.994403
0.995056
0.995575
0.99596
0.996211
0.996328
0.99631
0.996158
0.995871
0.99545
0.994896
0.994208
0.993384
0.992422
0.991317
0.99006
0.988636
0.987021
0.985174
0.983031
0.980501
0.977451
0.973695
0.968988
0.963019
0.955412
0.945793
0.933996
0.920529
0.907255
0.89764
0.895346
0.901414
0.913234
0.926931
0.939741
0.950519
0.959149
0.965934
0.971262
0.975482
0.978874
0.981654
0.983982
0.985971
0.987699
0.989219
0.990564
0.991753
0.992798
0.993705
0.994479
0.995121
0.995632
0.996011
0.996258
0.996374
0.996563
0.996405
0.996108
0.995673
0.995098
0.994385
0.993529
0.992529
0.991381
0.990077
0.988604
0.986944
0.985064
0.982913
0.980417
0.977464
0.973903
0.969541
0.964138
0.95743
0.949182
0.939349
0.928375
0.917603
0.909407
0.906415
0.909813
0.91827
0.92913
0.940071
0.949818
0.95797
0.964594
0.96993
0.974242
0.977767
0.980694
0.983172
0.98531
0.987179
0.988827
0.990287
0.991575
0.992705
0.993683
0.994515
0.995203
0.995748
0.996153
0.996417
0.996539
0.996521
0.99636
0.996059
0.995617
0.995034
0.994309
0.993439
0.992421
0.991249
0.989917
0.98841
0.986707
0.984772
0.982552
0.979967
0.976897
0.973184
0.968625
0.962974
0.955965
0.947384
0.937253
0.926165
0.915681
0.908329
0.906593
0.911173
0.920324
0.931343
0.942102
0.951531
0.959353
0.965689
0.970791
0.974919
0.978302
0.98112
0.983514
0.985588
0.987405
0.989013
0.990439
0.991701
0.992809
0.99377
0.994588
0.995265
0.995802
0.9962
0.996461
0.996582
0.996772
0.996608
0.9963
0.995848
0.995252
0.994509
0.993618
0.992574
0.991371
0.990003
0.988459
0.986721
0.984762
0.982543
0.979999
0.977034
0.973521
0.969305
0.964207
0.958048
0.950714
0.94228
0.933233
0.92469
0.918394
0.916138
0.918718
0.925238
0.933878
0.942924
0.951305
0.958571
0.964664
0.969707
0.973879
0.97736
0.980302
0.98283
0.985036
0.986982
0.988707
0.990235
0.991584
0.992766
0.993786
0.994652
0.995366
0.995932
0.996351
0.996625
0.996753
0.996733
0.996567
0.996254
0.995796
0.995191
0.994437
0.993531
0.992469
0.991244
0.989848
0.988269
0.986489
0.984478
0.982194
0.979567
0.976495
0.972847
0.968462
0.963157
0.956761
0.949182
0.940559
0.931487
0.923224
0.91759
0.916271
0.919737
0.926818
0.935645
0.944609
0.952777
0.959796
0.965658
0.970504
0.974516
0.97787
0.980712
0.983161
0.985307
0.987204
0.988888
0.990384
0.991707
0.992866
0.99387
0.994721
0.995425
0.995982
0.996396
0.996666
0.996791
0.996988
0.99682
0.996505
0.996044
0.995435
0.994676
0.993764
0.992692
0.991455
0.990046
0.988453
0.986661
0.984651
0.982392
0.97983
0.976887
0.973464
0.969442
0.964698
0.959128
0.952706
0.945582
0.938221
0.931514
0.926711
0.92502
0.92697
0.931964
0.93877
0.946154
0.953253
0.959631
0.965153
0.969853
0.97384
0.977236
0.980158
0.982703
0.98495
0.986946
0.988721
0.990295
0.991684
0.992897
0.993943
0.994828
0.995557
0.996134
0.996562
0.996841
0.996972
0.996952
0.996782
0.996463
0.995996
0.995379
0.994609
0.993682
0.992592
0.991333
0.989896
0.98827
0.986439
0.984379
0.98206
0.979423
0.976385
0.972845
0.968681
0.963772
0.958022
0.95143
0.944197
0.936864
0.93041
0.926117
0.925117
0.927726
0.933164
0.940156
0.947523
0.95449
0.960692
0.966035
0.970576
0.974427
0.977712
0.980545
0.983019
0.985209
0.987159
0.988895
0.990438
0.991801
0.992993
0.994022
0.994893
0.995612
0.996181
0.996603
0.996879
0.997008
0.997212
0.997043
0.996728
0.996266
0.995657
0.994897
0.993982
0.992906
0.991663
0.990243
0.988637
0.986833
0.984815
0.982564
0.980037
0.977174
0.973903
0.970143
0.96582
0.960892
0.955393
0.949504
0.943635
0.938462
0.934851
0.933601
0.935059
0.938829
0.944099
0.950006
0.955892
0.961368
0.966265
0.970556
0.974288
0.977537
0.980381
0.982893
0.985131
0.987133
0.988919
0.990504
0.9919
0.993118
0.994167
0.995053
0.995783
0.99636
0.996789
0.997069
0.9972
0.99718
0.997009
0.99669
0.996222
0.995604
0.994834
0.993905
0.992812
0.991548
0.990102
0.988465
0.986624
0.98456
0.982255
0.979662
0.976718
0.973349
0.969475
0.965026
0.959969
0.95436
0.94842
0.942607
0.937648
0.934422
0.933672
0.935608
0.93972
0.945158
0.951088
0.956902
0.96226
0.967027
0.971194
0.974817
0.977972
0.980739
0.983188
0.985375
0.987334
0.989084
0.990638
0.99201
0.993208
0.99424
0.995114
0.995833
0.996403
0.996826
0.997103
0.997232
0.997447
0.99728
0.996971
0.996518
0.995921
0.995178
0.994283
0.993231
0.992015
0.990626
0.989055
0.987293
0.985328
0.983152
0.980732
0.978027
0.97499
0.971577
0.967754
0.963524
0.958955
0.95423
0.949679
0.945789
0.943138
0.942235
0.943301
0.946084
0.950063
0.95466
0.9594
0.963962
0.968176
0.971979
0.975373
0.978392
0.981081
0.983487
0.98565
0.987597
0.98934
0.990889
0.992254
0.993444
0.994469
0.995335
0.996048
0.996613
0.997033
0.997308
0.997438
0.997418
0.99725
0.996936
0.996478
0.995874
0.99512
0.994213
0.993145
0.99191
0.990497
0.988897
0.987101
0.985096
0.982873
0.980397
0.977625
0.974511
0.971012
0.967098
0.962782
0.958151
0.953411
0.948926
0.945207
0.942836
0.942285
0.94369
0.946725
0.950845
0.955484
0.960194
0.964685
0.968811
0.972523
0.975833
0.978777
0.981402
0.983754
0.985872
0.987782
0.989492
0.991013
0.992355
0.993527
0.994536
0.99539
0.996094
0.996652
0.997067
0.997339
0.997467
0.997691
0.997531
0.997234
0.996801
0.996231
0.995524
0.994674
0.993676
0.992524
0.991211
0.989729
0.988072
0.986233
0.984209
0.981981
0.979525
0.976816
0.973838
0.970588
0.967097
0.963447
0.959796
0.95639
0.953562
0.951676
0.951043
0.951802
0.953793
0.956699
0.960152
0.963828
0.967484
0.970971
0.974212
0.977178
0.979875
0.982319
0.984534
0.986545
0.988367
0.990005
0.991466
0.992755
0.993882
0.994853
0.995676
0.996355
0.996895
0.997296
0.997561
0.997685
0.997666
0.997504
0.997203
0.996765
0.996189
0.995472
0.994611
0.993599
0.99243
0.991096
0.989589
0.987902
0.986029
0.983967
0.981694
0.979185
0.976419
0.973379
0.970069
0.966527
0.962847
0.959203
0.955861
0.953163
0.951471
0.951077
0.952066
0.954236
0.957253
0.960753
0.964425
0.968045
0.971477
0.974656
0.977562
0.980202
0.982596
0.984768
0.986741
0.988531
0.990141
0.991577
0.992846
0.993956
0.994914
0.995725
0.996396
0.996929
0.997326
0.997587
0.997711
0.997946
0.997796
0.997518
0.997114
0.996586
0.995933
0.995151
0.994238
0.993188
0.991996
0.990656
0.989166
0.987523
0.985731
0.983777
0.981654
0.979355
0.976882
0.974253
0.971509
0.968727
0.966031
0.96359
0.961615
0.960323
0.959896
0.960416
0.961788
0.963827
0.966312
0.969036
0.971832
0.974581
0.97721
0.979677
0.98197
0.984084
0.986028
0.98781
0.989438
0.990911
0.992231
0.993402
0.994429
0.995319
0.996076
0.996703
0.997204
0.997578
0.997825
0.997941
0.997923
0.997772
0.997491
0.997083
0.996549
0.995888
0.995097
0.994171
0.993106
0.991896
0.990536
0.989022
0.987352
0.985529
0.983541
0.981379
0.97904
0.976528
0.973862
0.971092
0.968301
0.965622
0.963234
0.961352
0.96019
0.959918
0.960588
0.962081
0.964202
0.96673
0.969464
0.972245
0.974965
0.977555
0.979983
0.982235
0.984313
0.986224
0.987976
0.989578
0.991028
0.992327
0.993481
0.994494
0.995372
0.996119
0.996739
0.997234
0.997604
0.997848
0.997964
0.998208
0.998072
0.99782
0.997456
0.996983
0.996401
0.995709
0.994906
0.993988
0.992955
0.991803
0.99053
0.98914
0.987638
0.98602
0.984287
0.982446
0.980509
0.978501
0.976462
0.974453
0.972561
0.970894
0.969576
0.968729
0.968452
0.968794
0.9697
0.971066
0.97277
0.974689
0.976715
0.978764
0.980777
0.982715
0.984554
0.986281
0.987893
0.989388
0.990767
0.992025
0.993161
0.994177
0.995076
0.995859
0.996529
0.997089
0.997538
0.997876
0.9981
0.998206
0.998189
0.998052
0.997797
0.99743
0.996952
0.996363
0.995663
0.994849
0.99392
0.992872
0.991704
0.990413
0.989003
0.987478
0.985835
0.984077
0.98221
0.98025
0.978223
0.976173
0.974166
0.972293
0.970667
0.969411
0.968646
0.968466
0.968902
0.969885
0.971308
0.973046
0.974979
0.977003
0.979039
0.981032
0.982945
0.984759
0.986461
0.988049
0.989522
0.990881
0.992121
0.993241
0.994243
0.99513
0.995903
0.996566
0.997119
0.997564
0.997898
0.998119
0.998225
0.998478
0.998358
0.998138
0.997823
0.997415
0.996918
0.996331
0.995657
0.994895
0.994045
0.993108
0.992084
0.990977
0.989793
0.988535
0.987209
0.985828
0.984405
0.982965
0.981539
0.980171
0.978915
0.977834
0.976996
0.976465
0.976293
0.976508
0.977079
0.977952
0.979061
0.980339
0.981723
0.983161
0.984608
0.986035
0.987418
0.988742
0.989997
0.991176
0.992276
0.99329
0.994216
0.995053
0.995801
0.996459
0.997028
0.997507
0.997894
0.998188
0.998383
0.998476
0.998462
0.998341
0.998119
0.997801
0.997389
0.996887
0.996294
0.995612
0.994841
0.99398
0.993031
0.991993
0.990872
0.989672
0.988398
0.987057
0.985661
0.984226
0.982777
0.98135
0.979988
0.978748
0.977695
0.976896
0.976415
0.976302
0.976573
0.977191
0.9781
0.979234
0.980526
0.981914
0.983347
0.984786
0.986199
0.987568
0.988876
0.990115
0.991279
0.992364
0.993366
0.99428
0.995106
0.995845
0.996496
0.997058
0.997532
0.997916
0.998206
0.9984
0.998492
0.998752
0.998652
0.998469
0.998208
0.997874
0.99747
0.997
0.996465
0.995868
0.995211
0.994496
0.993725
0.992901
0.992031
0.991119
0.990174
0.989208
0.988233
0.987268
0.986335
0.98546
0.984673
0.98401
0.983504
0.983187
0.983085
0.983214
0.983556
0.984085
0.984768
0.985571
0.986459
0.987403
0.988376
0.989355
0.990325
0.991271
0.992182
0.993051
0.99387
0.994636
0.995344
0.995992
0.996579
0.997103
0.99756
0.99795
0.998268
0.998511
0.998674
0.998752
0.99874
0.998639
0.998454
0.998191
0.997854
0.997446
0.996971
0.99643
0.995827
0.995162
0.994439
0.993659
0.992826
0.991945
0.991024
0.99007
0.989096
0.988117
0.987149
0.986217
0.985348
0.984574
0.983929
0.983446
0.983158
0.98309
0.983251
0.983621
0.984172
0.984871
0.985685
0.986578
0.987523
0.988492
0.989466
0.990428
0.991364
0.992266
0.993125
0.993935
0.994691
0.995392
0.996033
0.996613
0.997131
0.997584
0.99797
0.998285
0.998525
0.998687
0.998764
0.99903
0.998951
0.998808
0.998606
0.99835
0.998044
0.997692
0.997297
0.996864
0.996393
0.995889
0.995353
0.994789
0.994198
0.993589
0.992968
0.992344
0.991727
0.991129
0.990561
0.990039
0.989579
0.989197
0.988909
0.988731
0.988674
0.988747
0.98894
0.989242
0.989636
0.990107
0.990638
0.991214
0.991819
0.99244
0.993068
0.993691
0.994302
0.994891
0.995454
0.995988
0.996488
0.996954
0.997382
0.997769
0.998112
0.998408
0.998653
0.998841
0.998968
0.99903
0.99902
0.998941
0.998797
0.998593
0.998335
0.998026
0.997671
0.997272
0.996834
0.996359
0.99585
0.995309
0.994738
0.994142
0.993527
0.992902
0.992275
0.991656
0.991058
0.990493
0.989976
0.989523
0.989152
0.988878
0.988716
0.988677
0.988767
0.988976
0.98929
0.989694
0.990173
0.990708
0.991285
0.99189
0.992509
0.993133
0.993752
0.994357
0.994941
0.995498
0.996026
0.996522
0.996982
0.997406
0.997789
0.99813
0.998423
0.998665
0.998852
0.998978
0.999039
0.999308
0.999252
0.999151
0.999009
0.998832
0.998622
0.998385
0.998123
0.99784
0.997538
0.99722
0.996887
0.99654
0.996181
0.995815
0.995449
0.995087
0.994735
0.994399
0.994087
0.993804
0.993558
0.993357
0.993207
0.993115
0.993086
0.993123
0.993223
0.993381
0.993589
0.993841
0.99413
0.994447
0.994787
0.995143
0.995508
0.995877
0.996244
0.996603
0.996949
0.997282
0.997599
0.997899
0.998179
0.998437
0.998669
0.998872
0.999042
0.999175
0.999265
0.999309
0.999302
0.999245
0.999144
0.999001
0.998822
0.99861
0.998371
0.998107
0.997821
0.997517
0.997195
0.996859
0.99651
0.996147
0.995779
0.995411
0.995047
0.994695
0.994361
0.99405
0.993771
0.993529
0.993334
0.993191
0.993107
0.993087
0.993133
0.993242
0.993406
0.99362
0.993876
0.994167
0.994486
0.994827
0.995182
0.995546
0.995913
0.996277
0.996633
0.996976
0.997306
0.99762
0.997917
0.998195
0.99845
0.998681
0.998882
0.999051
0.999182
0.999272
0.999315
0.999586
0.999553
0.999494
0.999411
0.999309
0.999191
0.999059
0.998915
0.998763
0.998604
0.998439
0.998269
0.998094
0.997913
0.997731
0.997552
0.997377
0.99721
0.997053
0.996909
0.996781
0.99667
0.996581
0.996514
0.996474
0.996461
0.996478
0.996522
0.996591
0.996684
0.996797
0.996929
0.997076
0.997235
0.997404
0.997581
0.997762
0.997945
0.998126
0.998301
0.998471
0.998636
0.998794
0.998946
0.999087
0.999217
0.999333
0.999431
0.999508
0.999561
0.999587
0.999583
0.999549
0.99949
0.999407
0.999304
0.999184
0.999051
0.998907
0.998753
0.998593
0.998426
0.998255
0.998078
0.997896
0.997714
0.997534
0.997359
0.997192
0.997036
0.996893
0.996766
0.996657
0.99657
0.996507
0.996471
0.996462
0.996482
0.99653
0.996602
0.996697
0.996813
0.996946
0.997094
0.997254
0.997423
0.997599
0.997779
0.997961
0.99814
0.998314
0.998483
0.998646
0.998804
0.998954
0.999095
0.999224
0.999338
0.999435
0.999512
0.999565
0.99959
0.999862
0.999851
0.999832
0.999806
0.999774
0.999737
0.999696
0.999654
0.999609
0.999563
0.999517
0.99947
0.999422
0.999372
0.999321
0.999272
0.999225
0.999181
0.99914
0.999102
0.999069
0.999041
0.999018
0.999002
0.998991
0.998988
0.998992
0.999003
0.999021
0.999044
0.999073
0.999107
0.999145
0.999187
0.999233
0.99928
0.99933
0.99938
0.99943
0.999479
0.999526
0.999572
0.999618
0.999663
0.999705
0.999745
0.999781
0.999812
0.999837
0.999854
0.999862
0.999861
0.99985
0.999831
0.999804
0.999772
0.999735
0.999694
0.999651
0.999606
0.99956
0.999513
0.999466
0.999417
0.999367
0.999316
0.999267
0.99922
0.999176
0.999135
0.999098
0.999065
0.999038
0.999016
0.999
0.998991
0.998988
0.998993
0.999005
0.999024
0.999048
0.999077
0.999112
0.99915
0.999192
0.999238
0.999285
0.999335
0.999385
0.999435
0.999482
0.999529
0.999575
0.999621
0.999665
0.999707
0.999747
0.999783
0.999813
0.999838
0.999855
0.999863
)
;

boundaryField
{
    top
    {
        type            calculated;
        value           uniform 1;
    }
    bottom
    {
        type            calculated;
        value           uniform 0.148957;
    }
    frontAndBack
    {
        type            empty;
    }
    left_cyc
    {
        type            cyclic;
    }
    right_cyc
    {
        type            cyclic;
    }
}


// ************************************************************************* //
