/*--------------------------------*- C++ -*----------------------------------*\
| =========                 |                                                 |
| \\      /  F ield         | OpenFOAM: The Open Source CFD Toolbox           |
|  \\    /   O peration     | Version:  2.3.0                                 |
|   \\  /    A nd           | Web:      www.OpenFOAM.org                      |
|    \\/     M anipulation  |                                                 |
\*---------------------------------------------------------------------------*/
FoamFile
{
    version     2.0;
    format      ascii;
    class       volScalarField;
    location    "14000";
    object      p;
}
// * * * * * * * * * * * * * * * * * * * * * * * * * * * * * * * * * * * * * //

dimensions      [0 2 -2 0 0 0 0];

internalField   nonuniform List<scalar> 
3060
(
0
-3.20509
-9.19967
-17.9226
-29.3052
-43.2871
-59.8236
-78.8742
-100.372
-124.188
-150.099
-177.775
-206.75
-236.398
-265.87
-294.129
-320.111
-342.912
-361.8
-376.39
-386.918
-393.922
-398.205
-400.603
-401.769
-402.089
-401.685
-400.418
-397.883
-393.41
-386.156
-375.328
-360.404
-341.182
-318.083
-291.857
-263.429
-233.887
-204.27
-175.413
-147.936
-122.295
-98.8161
-77.7112
-59.104
-43.0576
-29.6128
-18.8164
-10.7294
-5.41768
-2.93637
-3.31581
-6.55083
-12.6036
-21.4146
-32.9178
-47.0557
-63.7848
-83.0618
-104.811
-128.888
-155.052
-182.946
-212.071
-241.76
-271.113
-299.058
-324.537
-346.674
-364.774
-378.575
-388.391
-394.825
-398.707
-400.852
-401.862
-402.07
-401.548
-400.104
-397.28
-392.36
-384.494
-372.929
-357.202
-337.216
-313.493
-286.811
-258.122
-228.506
-198.964
-170.279
-143.031
-117.649
-94.4309
-73.573
-55.1851
-39.3232
-26.0265
-15.3436
-7.33858
-2.07955
0.376935
34.332
31.7925
27.0064
19.9581
10.6204
-1.03824
-15.0354
-31.3468
-49.8803
-70.4616
-92.8262
-116.597
-141.248
-166.082
-190.428
-213.995
-236.634
-257.499
-275.15
-288.675
-298.418
-305.031
-309.266
-311.792
-313.1
-313.478
-313.015
-311.609
-308.958
-304.558
-297.729
-287.719
-273.885
-255.945
-234.895
-212.164
-188.537
-164.148
-139.334
-114.789
-91.2028
-69.093
-48.8286
-30.6671
-14.7741
-1.23245
9.94174
18.771
25.2889
29.5231
31.4879
31.188
28.6229
23.7859
16.6589
7.21171
-4.58848
-18.757
-35.2623
-54.0008
-74.7834
-97.3258
-121.224
-145.915
-170.675
-194.871
-218.285
-240.684
-261.056
-277.953
-290.714
-299.811
-305.926
-309.802
-312.082
-313.217
-313.455
-312.846
-311.252
-308.33
-303.534
-296.165
-285.478
-270.854
-252.214
-230.747
-207.818
-184.04
-159.513
-134.654
-110.176
-86.7334
-64.8104
-44.7507
-26.7936
-11.0907
2.28567
13.3253
22.052
28.4972
32.6858
34.6295
63.2419
60.6629
55.8325
48.7952
39.6265
28.4477
15.4357
0.81759
-15.156
-32.2457
-50.2467
-68.9948
-88.3757
-108.34
-128.827
-149.277
-168.266
-184.601
-198.387
-209.992
-218.748
-224.23
-227.375
-229.106
-229.956
-230.191
-229.895
-228.973
-227.146
-223.856
-218.163
-209.172
-197.403
-183.465
-166.95
-147.839
-127.403
-107.02
-87.1816
-67.9407
-49.3502
-31.5334
-14.6645
1.04133
15.3363
27.9674
38.7117
47.3993
53.9164
58.1934
60.1895
59.8843
57.2812
52.4059
45.3055
36.0598
24.7968
11.7013
-2.99256
-19.0297
-36.169
-54.2058
-72.978
-92.3794
-112.37
-132.852
-153.099
-171.602
-187.38
-200.732
-211.87
-219.961
-224.914
-227.738
-229.286
-230.024
-230.176
-229.792
-228.743
-226.705
-223.042
-216.76
-207.14
-194.939
-180.537
-163.455
-143.92
-123.353
-102.986
-83.1722
-63.9518
-45.3882
-27.6113
-10.7961
4.84218
19.058
31.6037
42.2637
50.8761
57.333
61.5689
63.5449
110.936
108.444
103.791
97.0451
88.3122
77.743
65.5376
51.9379
37.2059
21.5908
5.30013
-11.516
-28.7641
-46.3723
-64.1245
-81.3229
-96.9379
-110.715
-122.91
-132.544
-139.425
-144.218
-146.537
-147.4
-147.684
-147.738
-147.654
-147.329
-146.39
-143.924
-138.981
-131.962
-122.153
-109.873
-96.0244
-80.3175
-63.0964
-45.4055
-27.8965
-10.766
5.91496
22.0449
37.4635
51.9528
65.256
77.1086
87.271
95.5484
101.796
105.916
107.843
107.548
105.036
100.345
93.5481
84.7552
74.124
61.8622
48.2187
33.4593
17.8333
1.54458
-15.2625
-32.4996
-50.0864
-67.7473
-84.6655
-99.863
-113.289
-125.044
-134.05
-140.5
-144.8
-146.734
-147.448
-147.689
-147.733
-147.633
-147.247
-146.111
-143.185
-137.798
-130.287
-119.863
-107.208
-92.9812
-76.8707
-59.4236
-41.6704
-24.1464
-7.00577
9.68254
25.8112
41.2144
55.6712
68.926
80.7191
90.8181
99.036
105.235
109.319
111.23
158.136
155.905
151.741
145.712
137.916
128.485
117.586
105.41
92.1651
78.0626
63.306
48.0921
32.6247
17.1439
1.98331
-12.37
-25.4977
-37.5548
-48.5921
-57.1894
-62.6824
-65.6339
-66.6788
-66.7084
-66.4597
-66.343
-66.4599
-66.6983
-66.6239
-65.5003
-62.4227
-56.7823
-48.0156
-36.9113
-24.8191
-11.6259
2.77338
17.9274
33.3575
48.7378
63.8314
78.4335
92.3432
105.353
117.248
127.819
136.877
144.258
149.835
153.516
155.24
154.976
152.73
148.539
142.473
134.634
125.159
114.217
102.006
88.7371
74.624
59.8723
44.682
29.263
13.8688
-1.14045
-15.2499
-28.1149
-39.9764
-50.6409
-58.5623
-63.4713
-65.939
-66.7139
-66.6343
-66.4062
-66.347
-66.515
-66.752
-66.5225
-65.0757
-61.4859
-55.2196
-45.8181
-34.4318
-22.1315
-8.66692
5.95373
21.2398
36.7448
52.1662
67.278
81.8803
95.7753
108.757
120.614
131.141
140.152
147.49
153.032
156.688
158.399
199.583
197.553
193.772
188.308
181.265
172.772
162.991
152.104
140.304
127.791
114.761
101.409
87.9343
74.5651
61.5839
49.365
38.3246
28.7353
20.7989
14.6547
10.7071
9.83106
11.0848
12.9921
14.1512
14.4718
14.1114
12.8896
10.9599
9.75926
10.7797
14.8813
21.13
29.1765
38.8555
49.9667
62.2212
75.196
88.5231
101.923
115.17
128.061
140.4
151.986
162.618
172.1
180.252
186.917
191.967
195.306
196.871
196.632
194.592
190.792
185.304
178.231
169.711
159.905
149.001
137.196
124.692
111.687
98.3789
84.9743
71.7096
58.8843
46.8933
36.1417
26.8724
19.3029
13.5302
10.2123
9.93331
11.4653
13.3179
14.2801
14.4579
13.9452
12.5226
10.6368
9.79295
11.4658
16.123
22.7326
31.134
41.1255
52.5133
64.9765
78.0923
91.5139
104.976
118.262
131.173
143.516
155.093
165.705
175.161
183.283
189.919
194.944
198.266
199.822
238.123
236.292
232.885
227.972
221.653
214.058
205.34
195.668
185.226
174.202
162.784
151.166
139.545
128.139
117.197
107.011
97.8897
90.0973
83.9376
79.8386
78.3491
80.1706
84.7135
89.6259
92.9401
93.8863
92.8006
89.3281
84.3352
79.8609
78.2318
79.9089
84.1515
90.425
98.3014
107.484
117.705
128.648
140.025
151.588
163.117
174.414
185.284
195.534
204.975
213.424
220.71
226.684
231.222
234.228
235.639
235.423
233.585
230.166
225.237
218.902
211.292
202.563
192.89
182.457
171.455
160.078
148.519
136.983
125.695
114.912
104.937
96.076
88.5892
82.8132
79.1807
78.3268
80.8482
85.7141
90.465
93.3077
93.8402
92.3055
88.4196
83.3735
79.3619
78.4457
80.7086
85.3934
92.0269
100.196
109.628
120.046
131.137
142.622
154.262
165.846
177.177
188.065
198.32
207.756
216.192
223.462
229.419
233.941
236.935
238.339
274.182
272.534
269.47
265.062
259.411
252.643
244.907
236.366
227.196
217.575
207.684
197.708
187.834
178.262
169.212
160.927
153.668
147.683
143.258
140.774
140.763
144.238
151.644
160.206
166.402
168.508
166.108
159.664
151.018
143.783
140.558
140.752
143.374
147.908
153.975
161.295
169.616
178.676
188.232
198.062
207.967
217.756
227.244
236.246
244.583
252.078
258.568
263.909
267.977
270.677
271.945
271.751
270.099
267.029
262.614
256.956
250.184
242.45
233.919
224.771
215.185
205.347
195.443
185.665
176.219
167.329
159.247
152.235
146.543
142.477
140.436
141.028
145.36
153.343
161.697
167.177
168.392
165.123
158.058
149.41
142.908
140.483
141.225
144.265
149.138
155.485
163.042
171.555
180.766
190.438
200.357
210.329
220.165
229.684
238.704
247.048
254.542
261.027
266.359
270.419
273.112
274.377
308.603
307.122
304.375
300.432
295.395
289.388
282.557
275.06
267.066
258.747
250.275
241.823
233.567
225.686
218.37
211.828
206.277
201.941
199.077
198.016
199.191
203.33
211.354
221.81
230.222
233.231
229.804
221.106
210.653
202.859
198.938
197.925
199.115
202.082
206.499
212.112
218.694
226.028
233.905
242.134
250.532
258.922
267.13
274.98
282.298
288.916
294.676
299.434
303.071
305.49
306.628
306.453
304.972
302.223
298.279
293.242
287.241
280.421
272.946
264.984
256.711
248.302
239.931
231.778
224.026
216.87
210.523
205.204
201.144
198.613
197.959
199.656
204.529
213.321
223.773
231.312
233.06
228.432
219.05
208.855
201.886
198.633
198.105
199.681
202.964
207.646
213.481
220.249
227.734
235.733
244.058
252.532
260.98
269.229
277.108
284.444
291.071
296.834
301.591
305.225
307.641
308.777
341.987
340.663
338.209
334.697
330.228
324.924
318.929
312.397
305.491
298.374
291.211
284.163
277.391
271.054
265.317
260.354
256.341
253.464
251.931
252.001
253.997
258.361
265.649
275.281
283.714
286.887
283.277
274.604
265.024
257.92
253.725
251.868
251.914
253.542
256.498
260.573
265.581
271.345
277.69
284.449
291.461
298.563
305.589
312.375
318.754
324.563
329.648
333.869
337.106
339.265
340.282
340.126
338.802
336.35
332.842
328.38
323.089
317.114
310.611
303.745
296.683
289.59
282.629
275.964
269.757
264.176
259.397
255.6
252.974
251.738
252.162
254.59
259.503
267.406
277.186
284.853
286.704
281.863
272.656
263.422
256.944
253.262
251.814
252.198
254.11
257.307
261.589
266.775
272.687
279.155
286.017
293.111
300.277
307.354
314.177
320.581
326.407
331.502
335.728
338.968
341.127
342.144
374.772
373.594
371.417
368.311
364.374
359.73
354.516
348.883
342.986
336.983
331.027
325.268
319.852
314.918
310.607
307.059
304.41
302.802
302.383
303.328
305.835
310.123
316.368
324.093
330.954
333.617
330.588
323.547
315.857
309.732
305.568
303.174
302.329
302.834
304.517
307.229
310.827
315.174
320.127
325.544
331.283
337.196
343.13
348.929
354.433
359.487
363.941
367.658
370.52
372.435
373.338
373.199
372.024
369.852
366.753
362.828
358.202
353.014
347.416
341.566
335.623
329.742
324.074
318.766
313.96
309.798
306.421
303.968
302.582
302.416
303.652
306.492
311.164
317.796
325.618
331.902
333.463
329.423
321.998
314.528
308.803
305.009
302.938
302.373
303.122
305.021
307.921
311.685
316.175
321.251
326.772
332.597
338.58
344.57
350.412
355.949
361.026
365.495
369.222
372.09
374.007
374.911
407.237
406.202
404.292
401.577
398.152
394.137
389.666
384.883
379.937
374.974
370.139
365.57
361.394
357.735
354.708
352.42
350.972
350.457
350.966
352.591
355.417
359.494
364.763
370.724
375.818
377.788
375.545
370.313
364.357
359.158
355.167
352.43
350.888
350.456
351.042
352.553
354.895
357.965
361.654
365.843
370.409
375.218
380.131
385.001
389.679
394.015
397.866
401.099
403.601
405.279
406.072
405.95
404.919
403.015
400.31
396.902
392.909
388.468
383.725
378.829
373.93
369.172
364.694
360.626
357.09
354.203
352.071
350.796
350.471
351.188
353.038
356.104
360.427
365.902
371.862
376.518
377.674
374.686
369.145
363.268
358.294
354.55
352.05
350.729
350.5
351.272
352.952
355.446
358.652
362.459
366.752
371.405
376.287
381.259
386.177
390.891
395.255
399.125
402.372
404.882
406.565
407.359
439.535
438.642
436.998
434.67
431.751
428.354
424.607
420.646
416.61
412.636
408.855
405.393
402.362
399.867
397.999
396.837
396.444
396.872
398.159
400.326
403.367
407.219
411.697
416.322
420.044
421.447
419.848
416.017
411.375
406.933
403.139
400.164
398.066
396.847
396.485
396.941
398.16
400.076
402.61
405.666
409.138
412.908
416.851
420.831
424.709
428.346
431.605
434.362
436.505
437.949
438.632
438.528
437.639
436.003
433.688
430.787
427.415
423.701
419.782
415.799
411.89
408.186
404.814
401.887
399.508
397.769
396.746
396.503
397.088
398.538
400.871
404.071
408.061
412.617
417.17
420.545
421.367
419.23
415.132
410.47
406.129
402.48
399.668
397.735
396.678
396.472
397.074
398.431
400.474
403.12
406.276
409.834
413.679
417.683
421.712
425.63
429.297
432.579
435.351
437.505
438.954
439.64
471.715
470.968
469.597
467.666
465.26
462.487
459.464
456.317
453.173
450.156
447.386
444.972
443.011
441.59
440.779
440.628
441.17
442.419
444.369
446.986
450.197
453.868
457.763
461.456
464.238
465.252
464.097
461.227
457.504
453.623
449.987
446.825
444.264
442.374
441.187
440.705
440.914
441.779
443.246
445.24
447.676
450.45
453.451
456.557
459.643
462.58
465.243
467.514
469.293
470.496
471.067
470.98
470.238
468.876
466.958
464.572
461.825
458.837
455.733
452.643
449.69
446.996
444.668
442.805
441.492
440.797
440.768
441.436
442.811
444.882
447.611
450.914
454.642
458.531
462.107
464.603
465.195
463.642
460.533
456.73
452.863
449.295
446.232
443.787
442.021
440.959
440.603
440.933
441.912
443.484
445.574
448.093
450.939
454.001
457.158
460.285
463.253
465.94
468.229
470.019
471.23
471.804
503.752
503.158
502.074
500.557
498.686
496.558
494.277
491.957
489.709
487.643
485.861
484.459
483.517
483.104
483.268
484.038
485.42
487.397
489.926
492.932
496.298
499.854
503.349
506.427
508.604
509.369
508.499
506.248
503.136
499.638
496.102
492.77
489.809
487.332
485.411
484.088
483.376
483.266
483.73
484.713
486.146
487.943
490.009
492.237
494.517
496.735
498.78
500.548
501.944
502.895
503.348
503.278
502.69
501.616
500.113
498.263
496.162
493.916
491.639
489.444
487.439
485.729
484.408
483.557
483.241
483.508
484.382
485.867
487.94
490.553
493.625
497.03
500.583
504.017
506.952
508.883
509.326
508.146
505.677
502.447
498.906
495.38
492.095
489.206
486.818
484.996
483.775
483.167
483.159
483.719
484.79
486.302
488.169
490.294
492.571
494.892
497.143
499.213
500.998
502.407
503.366
503.822
535.557
535.128
534.351
533.277
531.975
530.526
529.023
527.56
526.231
525.128
524.336
523.932
523.981
524.532
525.616
527.241
529.391
532.025
535.072
538.429
541.954
545.458
548.702
551.392
553.198
553.814
553.115
551.247
548.519
545.261
541.764
538.261
534.939
531.935
529.352
527.256
525.688
524.659
524.16
524.157
524.599
525.416
526.532
527.858
529.301
530.766
532.159
533.39
534.378
535.059
535.385
535.335
534.912
534.145
533.086
531.804
530.383
528.915
527.493
526.214
525.17
524.445
524.115
524.245
524.882
526.054
527.764
529.994
532.697
535.796
539.181
542.702
546.161
549.308
551.841
553.426
553.779
552.825
550.752
547.883
544.544
541.013
537.516
534.229
531.282
528.771
526.758
525.276
524.335
523.921
523.999
524.512
525.395
526.566
527.94
529.423
530.92
532.338
533.588
534.589
535.278
535.608
566.997
566.748
566.304
565.708
565.017
564.297
563.619
563.058
562.688
562.578
562.796
563.396
564.428
565.922
567.892
570.328
573.197
576.439
579.965
583.653
587.349
590.861
593.969
596.434
598.024
598.554
597.955
596.308
593.803
590.674
587.158
583.474
579.81
576.319
573.12
570.3
567.916
566
564.557
563.574
563.015
562.831
562.964
563.347
563.909
564.574
565.268
565.922
566.469
566.856
567.045
567.016
566.772
566.338
565.758
565.088
564.394
563.749
563.228
562.904
562.849
563.126
563.794
564.896
566.464
568.506
571.009
573.937
577.223
580.772
584.457
588.116
591.552
594.539
596.838
598.222
598.523
597.699
595.857
593.198
589.96
586.378
582.667
579.008
575.547
572.396
569.638
567.324
565.48
564.111
563.197
562.703
562.578
562.764
563.192
563.791
564.487
565.206
565.878
566.438
566.834
567.027
597.9
597.846
597.765
597.689
597.658
597.721
597.926
598.323
598.962
599.891
601.152
602.782
604.808
607.245
610.089
613.316
616.878
620.702
624.687
628.702
632.588
636.161
639.22
641.572
643.048
643.532
642.986
641.455
639.06
635.971
632.386
628.501
624.501
620.541
616.751
613.231
610.05
607.255
604.867
602.889
601.303
600.082
599.188
598.576
598.199
598.008
597.951
597.979
598.046
598.114
598.153
598.147
598.099
598.028
597.967
597.957
598.046
598.282
598.716
599.398
600.375
601.689
603.376
605.462
607.959
610.86
614.136
617.736
621.581
625.565
629.551
633.375
636.848
639.77
641.951
643.23
643.504
642.749
641.027
638.47
635.254
631.58
627.642
623.62
619.666
615.903
612.424
609.296
606.558
604.231
602.312
600.783
599.614
598.766
598.196
597.854
597.692
597.659
597.706
597.787
597.864
597.906
628.055
628.215
628.528
629.014
629.697
630.6
631.749
633.167
634.876
636.899
639.252
641.95
644.999
648.398
652.125
656.144
660.395
664.795
669.238
673.589
677.691
681.369
684.448
686.765
688.194
688.658
688.133
686.648
684.283
681.169
677.468
673.357
669.01
664.582
660.205
655.987
652.006
648.32
644.966
641.961
639.308
637
635.021
633.354
631.977
630.868
630.002
629.356
628.904
628.625
628.5
628.519
628.684
629.007
629.509
630.211
631.139
632.317
633.769
635.517
637.581
639.98
642.725
645.823
649.268
653.036
657.087
661.356
665.758
670.178
674.478
678.497
682.059
684.99
687.132
688.368
688.631
687.906
686.232
683.698
680.444
676.635
672.451
668.061
663.618
659.247
655.051
651.105
647.463
644.156
641.199
638.594
636.33
634.392
632.762
631.418
630.337
629.494
628.866
628.428
628.158
628.037
657.225
657.614
658.351
659.441
660.887
662.689
664.844
667.346
670.19
673.368
676.871
680.689
684.806
689.202
693.839
698.67
703.625
708.616
713.531
718.238
722.584
726.411
729.562
731.9
733.327
733.787
733.264
731.776
729.384
726.189
722.33
717.963
713.248
708.335
703.357
698.422
693.619
689.014
684.655
680.578
676.805
673.35
670.225
667.438
664.997
662.909
661.179
659.809
658.8
658.147
657.846
657.892
658.286
659.034
660.139
661.604
663.43
665.612
668.145
671.023
674.237
677.777
681.633
685.786
690.214
694.877
699.723
704.678
709.651
714.525
719.162
723.41
727.108
730.101
732.262
733.497
733.76
733.04
731.364
728.798
725.454
721.473
717.016
712.239
707.292
702.3
697.371
692.586
688.009
683.684
679.644
675.909
672.491
669.401
666.647
664.236
662.175
660.467
659.116
658.12
657.476
657.179
685.142
685.775
686.962
688.692
690.946
693.697
696.915
700.563
704.604
709
713.714
718.709
723.947
729.387
734.977
740.655
746.347
751.957
757.373
762.466
767.093
771.109
774.376
776.777
778.233
778.699
778.164
776.641
774.177
770.857
766.797
762.137
757.022
751.594
745.982
740.298
734.634
729.066
723.654
718.45
713.497
708.834
704.498
700.529
696.965
693.842
691.198
689.063
687.462
686.412
685.924
685.998
686.637
687.834
689.579
691.852
694.627
697.87
701.546
705.616
710.042
714.786
719.81
725.073
730.531
736.131
741.808
747.483
753.057
758.415
763.423
767.938
771.815
774.918
777.138
778.402
778.672
777.941
776.228
773.587
770.109
765.917
761.152
755.959
750.479
744.837
739.141
733.48
727.925
722.534
717.355
712.431
707.798
703.493
699.553
696.015
692.918
690.296
688.179
686.592
685.552
685.068
711.52
712.407
714.063
716.459
719.555
723.296
727.621
732.463
737.754
743.423
749.405
755.636
762.051
768.588
775.18
781.753
788.224
794.495
800.453
805.973
810.922
815.169
818.592
821.092
822.601
823.081
822.522
820.938
818.366
814.877
810.573
805.576
800.019
794.034
787.746
781.267
774.693
768.11
761.591
755.203
749.013
743.084
737.483
732.279
727.542
723.342
719.745
716.812
714.594
713.131
712.446
712.551
713.444
715.111
717.522
720.637
724.4
728.75
733.618
738.934
744.629
750.634
756.883
763.312
769.855
776.442
782.999
789.438
795.657
801.54
806.962
811.787
815.886
819.14
821.455
822.77
823.052
822.298
820.521
817.768
814.115
809.669
804.555
798.906
792.853
786.519
780.011
773.425
766.841
760.33
753.958
747.787
741.882
736.306
731.129
726.417
722.241
718.666
715.752
713.549
712.095
711.415
736.056
737.203
739.337
742.413
746.367
751.118
756.576
762.642
769.216
776.197
783.49
791.001
798.642
806.326
813.971
821.491
828.793
835.773
842.322
848.317
853.636
858.16
861.78
864.411
865.993
866.493
865.904
864.234
861.519
857.819
853.224
847.842
841.792
835.2
828.184
820.858
813.322
805.672
797.994
790.374
782.899
775.662
768.758
762.286
756.348
751.045
746.475
742.728
739.882
737.996
737.111
737.247
738.399
740.545
743.637
747.61
752.384
757.865
763.955
770.552
777.555
784.864
792.386
800.031
807.709
815.337
822.826
830.08
836.994
843.454
849.339
854.523
858.891
862.336
864.779
866.164
866.465
865.675
863.811
860.91
857.04
852.294
846.783
840.629
833.954
826.877
819.508
811.946
804.282
796.601
788.986
781.525
774.305
767.422
760.974
755.06
749.782
745.234
741.506
738.675
736.8
735.921
758.439
759.844
762.453
766.205
771.012
776.768
783.355
790.644
798.506
806.811
815.431
824.247
833.143
842.011
850.75
859.261
867.442
875.184
882.375
888.898
894.639
899.488
903.348
906.143
907.818
908.345
907.715
905.938
903.045
899.09
894.154
888.333
881.737
874.484
866.689
858.466
849.923
841.164
832.291
823.408
814.627
806.066
797.848
790.103
782.964
776.562
771.024
766.467
762.996
760.69
759.607
759.773
761.184
763.805
767.573
772.4
778.18
784.79
792.103
799.987
808.308
816.94
825.76
834.652
843.504
852.214
860.682
868.802
876.464
883.555
889.956
895.552
900.237
903.916
906.518
907.993
908.316
907.482
905.505
902.421
898.29
893.195
887.235
880.522
873.173
865.304
857.025
848.443
839.659
830.773
821.888
813.113
804.565
796.366
788.644
781.529
775.151
769.636
765.1
761.645
759.351
758.273
778.358
780.01
783.076
787.476
793.104
799.829
807.506
815.981
825.096
834.693
844.618
854.725
864.874
874.934
884.785
894.315
903.41
911.955
919.835
926.936
933.148
938.368
942.509
945.499
947.288
947.847
947.169
945.263
942.158
937.907
932.581
926.271
919.08
911.118
902.502
893.348
883.771
873.886
863.812
853.67
843.595
833.732
824.232
815.25
806.947
799.483
793.012
787.677
783.605
780.896
779.622
779.817
781.477
784.555
788.973
794.622
801.37
809.072
817.571
826.706
836.318
846.252
856.358
866.495
876.531
886.345
895.821
904.843
913.297
921.065
928.033
934.092
939.14
943.093
945.884
947.466
947.816
946.929
944.817
941.516
937.081
931.588
925.129
917.81
909.742
901.039
891.818
882.191
872.272
862.176
852.026
841.953
832.101
822.617
813.658
805.38
797.941
791.494
786.181
782.127
779.43
778.163
795.507
797.388
800.875
805.873
812.258
819.877
828.564
838.14
848.423
859.231
870.389
881.724
893.075
904.29
915.234
925.775
935.789
945.153
953.748
961.459
968.177
973.804
978.257
981.466
983.383
983.98
983.247
981.196
977.855
973.274
967.524
960.689
952.87
944.176
934.723
924.633
914.03
903.043
891.804
880.455
869.152
858.062
847.359
837.225
827.842
819.395
812.062
806.009
801.383
798.302
796.852
797.074
798.962
802.462
807.479
813.886
821.531
830.244
839.844
850.147
860.97
872.134
883.465
894.8
905.985
916.883
927.362
937.295
946.558
955.031
962.599
969.156
974.603
978.861
981.864
983.568
983.947
982.998
980.734
977.19
972.418
966.492
959.5
951.543
942.732
933.184
923.017
912.356
901.327
890.061
878.699
867.396
856.315
845.629
835.517
826.16
817.74
810.433
804.403
799.796
796.728
795.285
809.601
811.681
815.534
821.054
828.099
836.5
846.07
856.611
867.922
879.803
892.057
904.495
916.937
929.213
941.17
952.663
963.553
973.708
983.004
991.321
998.551
1004.59
1009.37
1012.81
1014.86
1015.5
1014.71
1012.5
1008.92
1004
997.811
990.448
982.006
972.595
962.335
951.355
939.79
927.779
915.473
903.031
890.626
878.444
866.679
855.529
845.2
835.894
827.808
821.128
816.018
812.613
811.009
811.255
813.343
817.21
822.75
829.82
838.247
847.844
858.411
869.743
881.638
893.898
906.33
918.753
930.996
942.903
954.327
965.129
975.175
984.341
992.507
999.567
1005.42
1010
1013.22
1015.05
1015.46
1014.45
1012.02
1008.23
1003.11
996.739
989.211
980.622
971.086
960.723
949.659
938.029
925.972
913.636
901.179
888.772
876.599
864.851
853.725
843.422
834.145
826.087
819.431
814.342
810.951
809.355
820.39
822.63
826.779
832.719
840.295
849.323
859.603
870.922
883.064
895.814
908.962
922.307
935.656
948.825
961.646
973.96
985.615
996.47
1006.39
1015.26
1022.95
1029.38
1034.46
1038.11
1040.29
1040.96
1040.12
1037.78
1033.96
1028.72
1022.14
1014.29
1005.29
995.235
984.264
972.509
960.114
947.233
934.03
920.68
907.37
894.299
881.672
869.704
858.611
848.614
839.923
832.739
827.24
823.574
821.847
822.111
824.36
828.523
834.484
842.085
851.142
861.451
872.796
884.96
897.725
910.88
924.219
937.548
950.682
963.45
975.691
987.252
997.992
1007.78
1016.49
1024.01
1030.24
1035.11
1038.54
1040.49
1040.93
1039.85
1037.28
1033.24
1027.8
1021.03
1013.01
1003.85
993.669
982.588
970.744
958.28
945.35
932.116
918.75
905.439
892.376
879.768
867.824
856.761
846.793
838.131
830.973
825.496
821.845
820.125
827.606
829.961
834.32
840.558
848.51
857.983
868.765
880.633
893.362
906.727
920.511
934.506
948.511
962.338
975.802
988.733
1000.97
1012.36
1022.77
1032.07
1040.13
1046.87
1052.19
1056.01
1058.3
1059
1058.11
1055.65
1051.65
1046.16
1039.26
1031.03
1021.58
1011.04
999.519
987.174
974.155
960.628
946.768
932.761
918.804
905.1
891.863
879.316
867.685
857.199
848.079
840.538
834.762
830.91
829.094
829.373
831.736
836.11
842.369
850.348
859.851
870.662
882.558
895.31
908.691
922.483
936.473
950.459
964.249
977.659
990.515
1002.66
1013.93
1024.2
1033.33
1041.22
1047.75
1052.85
1056.45
1058.5
1058.96
1057.84
1055.14
1050.91
1045.21
1038.11
1029.71
1020.11
1009.42
997.793
985.357
972.268
958.691
944.799
930.777
916.818
903.125
889.907
877.386
865.784
855.329
846.24
838.725
832.972
829.135
827.327
831.2
833.614
838.082
844.473
852.618
862.318
873.353
885.496
898.516
912.185
926.283
940.598
954.929
969.086
982.877
996.123
1008.66
1020.32
1030.98
1040.5
1048.75
1055.65
1061.09
1065
1067.33
1068.05
1067.15
1064.63
1060.53
1054.91
1047.84
1039.42
1029.75
1018.95
1007.15
994.507
981.172
967.317
953.126
938.795
924.518
910.503
896.964
884.129
872.228
861.495
852.157
844.432
838.515
834.567
832.705
832.99
835.413
839.896
846.309
854.481
864.209
875.275
887.446
900.489
914.175
928.281
942.592
956.904
971.025
984.761
997.93
1010.37
1021.91
1032.43
1041.78
1049.85
1056.54
1061.76
1065.45
1067.54
1068.02
1066.87
1064.11
1059.78
1053.95
1046.69
1038.08
1028.25
1017.31
1005.4
992.665
979.258
965.353
951.131
936.785
922.507
908.502
894.983
882.173
870.302
859.6
850.293
842.596
836.701
832.768
830.914
)
;

boundaryField
{
    top
    {
        type            calculated;
        value           nonuniform List<scalar> 
102
(
831.471
833.919
838.446
844.919
853.163
862.975
874.132
886.404
899.557
913.362
927.596
942.048
956.518
970.819
984.752
998.136
1010.8
1022.59
1033.36
1042.98
1051.33
1058.3
1063.8
1067.75
1070.12
1070.84
1069.93
1067.38
1063.23
1057.55
1050.41
1041.89
1032.11
1021.2
1009.28
996.498
983.023
969.025
954.69
940.219
925.805
911.652
897.978
885.01
872.981
862.127
852.679
844.859
838.865
834.864
832.975
833.265
835.721
840.264
846.759
855.031
864.872
876.061
888.361
901.539
915.361
929.604
944.053
958.506
972.771
986.649
999.957
1012.52
1024.19
1034.82
1044.27
1052.43
1059.2
1064.48
1068.2
1070.32
1070.81
1069.64
1066.85
1062.48
1056.58
1049.24
1040.54
1030.6
1019.55
1007.51
994.642
981.096
967.047
952.683
938.199
923.784
909.642
895.988
883.047
871.048
860.226
850.81
843.018
837.047
833.061
831.181
)
;
    }
    bottom
    {
        type            calculated;
        value           nonuniform List<scalar> 
102
(
-38.8552
-42.073
-48.091
-56.8476
-68.2734
-82.3076
-98.9051
-118.025
-139.6
-163.501
-189.506
-217.284
-246.37
-276.133
-305.724
-334.105
-360.211
-383.139
-402.153
-416.867
-427.511
-434.621
-438.994
-441.462
-442.672
-443.008
-442.587
-441.274
-438.668
-434.102
-426.742
-415.796
-400.749
-381.4
-358.174
-331.823
-303.273
-273.611
-243.879
-214.912
-187.333
-161.6
-138.036
-116.854
-98.1791
-82.0732
-68.5778
-57.7401
-49.6218
-44.2891
-41.7979
-42.1789
-45.4268
-51.5032
-60.3483
-71.8953
-86.0862
-102.877
-122.224
-144.053
-168.217
-194.476
-222.473
-251.71
-281.516
-310.988
-339.056
-364.661
-386.926
-405.152
-419.075
-429.006
-435.544
-439.513
-441.722
-442.771
-442.988
-442.442
-440.947
-438.047
-433.032
-425.058
-413.374
-397.522
-377.409
-353.56
-326.754
-297.944
-268.21
-238.553
-209.76
-182.413
-156.939
-133.638
-112.705
-94.2496
-78.3289
-64.9823
-54.2587
-46.2227
-40.943
-38.4767
)
;
    }
    frontAndBack
    {
        type            empty;
    }
    left_cyc
    {
        type            cyclic;
    }
    right_cyc
    {
        type            cyclic;
    }
}


// ************************************************************************* //
