/*--------------------------------*- C++ -*----------------------------------*\
| =========                 |                                                 |
| \\      /  F ield         | OpenFOAM: The Open Source CFD Toolbox           |
|  \\    /   O peration     | Version:  2.3.0                                 |
|   \\  /    A nd           | Web:      www.OpenFOAM.org                      |
|    \\/     M anipulation  |                                                 |
\*---------------------------------------------------------------------------*/
FoamFile
{
    version     2.0;
    format      ascii;
    class       volScalarField;
    location    "14000";
    object      p_rgh;
}
// * * * * * * * * * * * * * * * * * * * * * * * * * * * * * * * * * * * * * //

dimensions      [0 2 -2 0 0 0 0];

internalField   nonuniform List<scalar> 
3060
(
-38.8552
-42.073
-48.091
-56.8476
-68.2734
-82.3076
-98.9051
-118.025
-139.6
-163.501
-189.506
-217.284
-246.37
-276.133
-305.724
-334.105
-360.211
-383.139
-402.153
-416.867
-427.511
-434.621
-438.994
-441.462
-442.672
-443.008
-442.587
-441.274
-438.668
-434.102
-426.742
-415.796
-400.749
-381.4
-358.174
-331.823
-303.273
-273.611
-243.879
-214.912
-187.333
-161.6
-138.036
-116.854
-98.1791
-82.0732
-68.5778
-57.7401
-49.6218
-44.2891
-41.7979
-42.1789
-45.4268
-51.5032
-60.3483
-71.8953
-86.0862
-102.877
-122.224
-144.053
-168.217
-194.476
-222.473
-251.71
-281.516
-310.988
-339.056
-364.661
-386.926
-405.152
-419.075
-429.006
-435.544
-439.513
-441.722
-442.771
-442.988
-442.442
-440.947
-438.047
-433.032
-425.058
-413.374
-397.522
-377.409
-353.56
-326.754
-297.944
-268.21
-238.553
-209.76
-182.413
-156.939
-133.638
-112.705
-94.2496
-78.3289
-64.9823
-54.2587
-46.2227
-40.943
-38.4767
-66.8096
-69.4559
-74.4383
-81.768
-91.4679
-103.566
-118.077
-134.975
-154.166
-175.478
-198.647
-223.297
-248.901
-274.762
-300.179
-324.841
-348.603
-370.607
-389.395
-404.028
-414.819
-422.385
-427.435
-430.594
-432.307
-432.822
-432.205
-430.379
-427.082
-421.855
-414.066
-403.001
-388.054
-368.973
-346.782
-322.926
-298.201
-272.737
-246.898
-221.402
-196.941
-174.033
-153.045
-134.235
-117.766
-103.723
-92.1234
-82.9485
-76.1681
-71.7588
-69.7106
-70.0234
-72.6967
-77.7324
-85.1443
-94.9585
-107.204
-121.894
-138.995
-158.402
-179.927
-203.288
-228.081
-253.742
-279.546
-304.821
-329.34
-352.871
-374.387
-392.42
-406.282
-416.413
-423.457
-428.116
-430.987
-432.476
-432.791
-431.971
-429.907
-426.298
-420.647
-412.297
-400.541
-384.799
-365.019
-342.416
-318.372
-293.506
-267.914
-242.047
-216.635
-192.333
-169.626
-148.855
-130.259
-113.989
-100.118
-88.6591
-79.5913
-72.8868
-68.5253
-66.4992
-81.391
-84.2487
-89.591
-97.3624
-107.477
-119.805
-134.163
-150.32
-168.022
-187.033
-207.148
-228.207
-250.096
-272.761
-296.127
-319.553
-341.607
-361.06
-377.959
-392.599
-404.226
-412.321
-417.711
-421.193
-423.172
-423.791
-423.064
-420.972
-417.357
-411.795
-403.466
-391.586
-376.768
-359.706
-340.066
-317.886
-294.471
-271.206
-248.671
-226.932
-206.043
-186.128
-167.358
-149.946
-134.141
-120.196
-108.341
-98.7504
-91.5483
-86.8143
-84.6006
-84.9397
-87.8249
-93.2186
-101.063
-111.267
-123.696
-138.157
-154.413
-172.207
-191.3
-211.488
-232.611
-254.562
-277.295
-300.691
-323.947
-345.539
-364.45
-380.915
-395.067
-405.991
-413.495
-418.476
-421.66
-423.382
-423.752
-422.777
-420.422
-416.488
-410.472
-401.498
-388.954
-373.691
-356.167
-335.976
-313.399
-289.883
-266.674
-244.208
-222.531
-201.709
-181.869
-163.185
-145.868
-130.164
-116.325
-104.568
-95.0654
-87.9322
-83.2452
-81.0544
-61.7113
-64.7154
-70.3086
-78.4021
-88.8721
-101.552
-116.23
-132.654
-150.56
-169.697
-189.862
-210.908
-232.745
-255.298
-278.336
-301.081
-322.466
-342.156
-360.281
-375.708
-388.075
-397.862
-404.481
-408.714
-411.179
-411.978
-411.058
-408.473
-404.098
-397.279
-387.297
-374.759
-359.131
-340.904
-321.132
-299.652
-276.884
-253.911
-231.469
-209.767
-188.88
-168.905
-150
-132.381
-116.304
-102.039
-89.8348
-79.8996
-72.3937
-67.4353
-65.1077
-65.465
-68.4959
-74.1385
-82.301
-92.8548
-105.627
-120.397
-136.91
-154.894
-174.101
-194.329
-215.439
-237.342
-259.951
-282.972
-305.505
-326.527
-345.897
-363.582
-378.345
-390.206
-399.384
-405.451
-409.315
-411.461
-411.928
-410.681
-407.772
-402.996
-395.563
-385.033
-371.937
-355.669
-337.073
-316.96
-295.13
-272.196
-249.25
-226.874
-205.24
-184.416
-164.507
-145.674
-128.136
-112.15
-97.9794
-85.8674
-76.0142
-68.5743
-63.6614
-61.3562
-31.146
-34.1688
-39.7847
-47.8945
-58.3699
-71.0522
-85.7546
-102.269
-120.38
-139.872
-160.549
-182.219
-204.687
-227.714
-250.949
-273.865
-295.968
-317.28
-337.658
-355.432
-369.645
-380.545
-388.435
-393.84
-397.08
-398.159
-396.936
-393.56
-388.008
-379.955
-368.861
-354.448
-336.467
-316
-294.643
-272.474
-249.52
-226.305
-203.351
-180.999
-159.485
-139.008
-119.761
-101.951
-85.7946
-71.5108
-59.3074
-49.3684
-41.8483
-36.8706
-34.529
-34.889
-37.9363
-43.5978
-51.7719
-62.3271
-75.1007
-89.9017
-106.518
-124.73
-144.322
-165.093
-186.849
-209.386
-232.449
-255.654
-278.439
-300.372
-321.546
-341.56
-358.609
-372.121
-382.349
-389.707
-394.652
-397.473
-398.092
-396.419
-392.625
-386.591
-377.973
-366.198
-351.06
-332.411
-311.685
-290.187
-267.847
-244.788
-221.563
-198.655
-176.377
-154.952
-134.571
-115.425
-97.7177
-81.6632
-67.4777
-55.3644
-45.5031
-38.0445
-33.1089
-30.788
0.930571
-2.20563
-8.0168
-16.3846
-27.1616
-40.1735
-55.2248
-72.1065
-90.6068
-110.521
-131.659
-153.839
-176.878
-200.56
-224.594
-248.613
-272.086
-294.556
-315.559
-334.609
-350.882
-363.028
-371.482
-377.19
-380.975
-382.351
-380.812
-376.914
-371.084
-362.458
-350.074
-333.579
-314.378
-293.239
-270.671
-247.134
-223.097
-199.097
-175.491
-152.566
-130.539
-109.598
-89.9289
-71.7281
-55.2054
-40.5756
-28.0486
-17.8184
-10.0556
-4.90297
-2.47291
-2.84712
-6.00751
-11.8637
-20.2951
-31.1515
-44.2554
-59.4076
-76.396
-95.0063
-115.032
-136.279
-158.564
-181.695
-205.444
-229.497
-253.451
-276.77
-299.009
-319.669
-338.289
-353.775
-365.059
-372.859
-378.124
-381.48
-382.263
-380.166
-375.877
-369.537
-360.208
-346.937
-329.756
-310.159
-288.71
-265.935
-242.271
-218.207
-194.223
-170.686
-147.855
-125.934
-105.104
-85.5455
-67.4547
-51.0385
-36.5089
-24.0723
-13.9194
-6.21749
-1.10659
1.30288
33.8584
30.5694
24.4907
15.7628
4.55639
-8.93357
-24.4962
-41.9144
-60.9748
-81.4768
-103.236
-126.083
-149.85
-174.351
-199.352
-224.606
-249.655
-274.008
-297.028
-317.848
-335.371
-348.26
-356.403
-361.423
-364.536
-365.789
-364.414
-361.232
-356.103
-347.738
-334.541
-316.747
-295.73
-272.57
-248.129
-223.031
-197.772
-172.811
-148.382
-124.722
-102.02
-80.4489
-60.1848
-41.4187
-24.3574
-9.21825
3.7795
14.4255
22.5277
27.9206
30.4701
30.0769
26.7632
20.6383
11.845
0.556387
-13.0298
-28.6999
-46.2341
-65.4171
-86.0463
-107.935
-130.911
-154.799
-179.403
-204.476
-229.733
-254.703
-278.873
-301.551
-321.838
-338.531
-350.378
-357.702
-362.226
-364.993
-365.703
-363.852
-360.307
-354.617
-345.335
-331.123
-312.585
-291.092
-267.639
-243.049
-217.898
-192.67
-167.778
-143.453
-119.915
-97.3412
-75.8989
-55.7614
-37.1171
-20.1708
-5.13772
7.76564
18.3317
26.3713
31.7213
34.2497
65.5022
62.0002
55.5445
46.306
34.4893
20.3235
4.04974
-14.0916
-33.8729
-55.0888
-77.5607
-101.135
-125.675
-151.041
-177.067
-203.569
-230.122
-256.209
-281.152
-304.04
-323.669
-338.231
-346.392
-349.994
-351.631
-352.189
-351.609
-349.941
-346.191
-337.674
-322.723
-302.816
-279.732
-254.654
-228.484
-201.891
-175.389
-149.405
-124.105
-99.6594
-76.213
-53.9117
-32.9174
-13.4174
4.37496
20.2258
33.8909
45.1287
53.7128
59.4442
62.1602
61.7409
58.2128
51.7084
42.4008
30.497
16.2288
-0.160258
-18.4276
-38.344
-59.7028
-82.324
-106.052
-130.744
-156.253
-182.403
-208.968
-235.499
-261.45
-286.093
-308.466
-327.259
-340.548
-347.518
-350.512
-351.858
-352.145
-351.307
-349.302
-344.791
-334.98
-318.864
-298.221
-274.686
-249.357
-223.087
-196.496
-170.074
-144.218
-119.063
-94.7687
-71.4743
-49.3207
-28.4678
-9.1013
8.56666
24.304
37.8689
49.0221
57.5399
63.226
65.9196
95.147
91.3577
84.3906
74.4563
61.8074
46.7232
29.4923
10.3953
-10.3116
-32.4076
-55.7146
-80.0965
-105.451
-131.693
-158.736
-186.43
-214.385
-242.084
-268.828
-293.67
-315.39
-332.317
-342.465
-346.175
-346.838
-346.892
-346.892
-346.19
-342.207
-331.612
-314.31
-292.32
-267.286
-240.413
-212.634
-184.642
-156.948
-129.943
-103.75
-78.4669
-54.1862
-31.0212
-9.11995
11.3274
30.0892
46.8998
61.473
73.5182
82.7587
88.9491
91.8893
91.435
87.6176
80.5979
70.589
57.8462
42.6517
25.2965
6.06297
-14.7913
-37.0453
-60.5204
-85.0794
-110.617
-137.042
-164.257
-192.068
-220.056
-247.668
-274.151
-298.507
-319.436
-335.141
-343.796
-346.547
-346.904
-346.88
-346.775
-345.633
-340.489
-328.409
-310.01
-287.32
-261.865
-234.783
-206.952
-179.016
-151.453
-124.626
-98.6169
-73.515
-49.4089
-26.4094
-4.66374
15.6382
34.2655
50.9538
65.4189
77.3729
86.542
92.6833
95.5993
122.691
118.525
110.882
100.026
86.2731
69.972
51.4791
31.134
9.23901
-13.9572
-38.2683
-63.5714
-89.7998
-116.926
-144.941
-173.717
-202.912
-232.035
-260.397
-287.054
-310.791
-330.088
-343.18
-349.382
-351.039
-351.249
-351.074
-349.292
-342.732
-329.213
-309.569
-285.574
-258.733
-230.247
-201.046
-171.812
-143.027
-115.032
-87.9292
-61.7373
-36.4958
-12.2858
10.7538
32.4202
52.4494
70.5263
86.3025
99.4184
109.528
116.324
119.558
119.058
114.861
107.16
96.2226
82.3672
65.9463
47.3188
26.8264
4.772
-18.5959
-43.0918
-68.5931
-95.032
-122.377
-150.607
-179.548
-208.826
-237.911
-266.06
-292.273
-315.271
-333.464
-345.116
-350.079
-351.18
-351.23
-350.836
-348.321
-340.392
-325.496
-304.852
-280.203
-252.985
-224.336
-195.132
-166.003
-137.396
-109.621
-82.7352
-56.7507
-31.7038
-7.67517
15.1956
36.7051
56.589
74.5335
90.1923
103.209
113.24
119.982
123.189
148.481
143.834
135.327
123.287
108.113
90.2457
70.1295
48.1852
24.7793
0.204328
-25.334
-51.7188
-78.9148
-106.949
-135.885
-165.612
-195.849
-226.155
-255.871
-284.084
-309.62
-331.075
-346.944
-356.337
-360.328
-361.279
-360.26
-356.052
-346.29
-330.033
-308.258
-282.478
-254.088
-224.251
-193.864
-163.576
-133.82
-104.875
-76.8247
-49.6175
-23.2411
2.2501
26.7181
49.935
71.5879
91.2926
108.617
123.109
134.333
141.902
145.511
144.953
140.272
131.701
119.571
104.284
86.2858
66.0239
43.9211
20.3446
-4.41418
-30.1512
-56.7515
-84.1802
-112.461
-141.646
-171.577
-201.942
-232.254
-261.805
-289.624
-314.485
-334.94
-349.514
-357.615
-360.749
-361.219
-359.654
-354.454
-343.35
-325.862
-303.176
-276.798
-248.08
-218.126
-187.781
-157.641
-128.1
-99.408
-71.6018
-44.6229
-18.4574
6.83918
31.1267
54.1755
75.672
95.233
112.428
126.811
137.948
145.458
149.036
173.083
167.843
158.267
144.76
127.821
108.002
85.8618
61.9233
36.637
10.3556
-16.6821
-44.3545
-72.6493
-101.64
-131.448
-161.991
-193.06
-224.274
-255.021
-284.435
-311.394
-334.588
-352.67
-364.709
-370.971
-372.762
-370.787
-364.242
-351.839
-333.399
-309.904
-282.711
-253.125
-222.253
-190.948
-159.806
-129.201
-99.3393
-70.2807
-41.9134
-14.1828
12.8745
39.1094
64.2546
87.9301
109.662
128.912
145.113
157.718
166.244
170.312
169.683
164.406
154.758
141.15
124.086
104.124
81.8261
57.7176
32.2501
5.77487
-21.4719
-49.3722
-77.916
-107.176
-137.253
-168.028
-199.258
-230.517
-261.141
-290.208
-316.551
-338.832
-355.734
-366.503
-371.696
-372.653
-369.801
-362.113
-348.435
-328.875
-304.546
-276.811
-246.942
-215.994
-184.767
-153.806
-123.444
-93.856
-65.0597
-36.9352
-9.4271
17.4254
43.4698
68.4362
91.9437
113.52
132.628
148.707
161.216
169.674
173.709
197.123
191.178
180.326
165.061
146.003
123.838
99.2594
72.9127
45.352
17.0066
-11.8364
-41.0372
-70.5953
-100.622
-131.262
-162.492
-194.183
-226.019
-257.445
-287.645
-315.56
-339.955
-359.573
-373.443
-381.336
-383.761
-381.06
-372.837
-358.604
-338.643
-313.959
-285.815
-255.44
-223.879
-191.931
-160.136
-128.797
-98.038
-67.8829
-38.1783
-8.83965
20.1015
48.4705
75.9445
102.059
126.232
147.794
166.044
180.301
189.967
194.583
193.87
187.883
176.95
161.573
142.377
120.055
95.3047
68.7762
41.0242
12.477
-16.5817
-46.0169
-75.8323
-106.14
-137.056
-168.535
-200.409
-232.318
-263.652
-293.545
-320.895
-344.444
-362.963
-375.59
-382.283
-383.615
-379.8
-370.351
-354.895
-333.894
-308.437
-279.799
-249.177
-217.571
-185.727
-154.134
-123.052
-92.5743
-62.6913
-33.2373
-4.12753
24.6019
52.772
80.0569
105.992
129.994
151.401
169.516
183.664
193.255
197.832
221.186
214.429
202.101
184.804
163.292
138.404
110.989
81.8317
51.6068
20.8353
-10.1331
-41.1219
-72.1276
-103.283
-134.737
-166.549
-198.669
-230.856
-262.604
-293.157
-321.526
-346.55
-367.037
-381.982
-390.854
-393.668
-390.512
-381.278
-365.967
-345.143
-319.832
-291.232
-260.494
-228.592
-196.264
-163.997
-132.019
-100.374
-69.0073
-37.7661
-6.54763
24.6072
55.4801
85.6774
114.635
141.643
165.887
186.509
202.676
213.659
218.904
218.095
211.29
198.872
181.449
159.784
134.724
107.123
77.7718
47.3459
16.3659
-14.8204
-46.0435
-77.3049
-108.738
-140.468
-172.532
-204.847
-237.123
-268.797
-299.071
-326.915
-351.148
-370.597
-384.322
-391.93
-393.5
-389.095
-378.597
-362.103
-340.301
-314.269
-285.21
-254.25
-222.319
-190.111
-158.054
-126.334
-94.9585
-63.8697
-32.8795
-1.89069
29.0488
59.7155
89.7134
118.478
145.301
169.375
189.846
205.891
216.789
221.991
245.768
238.103
224.126
204.555
180.297
152.36
121.76
89.4363
56.1952
22.6599
-10.7459
-43.7826
-76.427
-108.812
-141.09
-173.406
-205.792
-238.102
-269.839
-300.317
-328.642
-353.743
-374.496
-389.898
-399.259
-402.278
-398.873
-389.126
-373.352
-352.263
-326.873
-298.306
-267.625
-235.703
-203.213
-170.629
-138.08
-105.528
-72.8338
-39.8526
-6.48534
27.202
60.921
94.1959
126.352
156.541
183.787
207.062
225.364
237.819
243.768
242.852
235.132
221.055
201.344
176.917
148.791
117.989
85.4586
52.0064
18.2559
-15.3653
-48.6297
-81.5189
-114.165
-146.707
-179.268
-211.846
-244.257
-275.917
-306.131
-333.962
-358.318
-378.087
-392.314
-400.396
-402.099
-397.384
-386.377
-369.47
-347.457
-321.389
-292.391
-261.5
-229.542
-197.182
-164.805
-132.505
-100.212
-67.777
-35.0358
-1.89159
31.5793
65.0852
98.1503
130.1
160.088
187.146
210.254
228.421
240.78
246.681
271.268
262.614
246.848
224.816
197.593
166.363
132.315
96.5537
60.02
23.4435
-12.6851
-48.0063
-82.4744
-116.196
-149.334
-182.106
-214.607
-246.742
-278.142
-308.204
-336.11
-360.879
-381.461
-396.878
-406.365
-409.449
-405.95
-396.061
-380.266
-359.342
-334.276
-306.111
-275.818
-244.198
-211.833
-179.07
-145.989
-112.485
-78.3444
-43.4308
-7.67318
28.8338
65.6771
102.305
137.931
171.558
202.047
228.187
248.802
262.855
269.57
268.537
259.822
243.944
221.758
194.348
162.911
128.646
92.664
55.9086
19.1048
-17.2284
-52.7655
-87.46
-121.416
-154.794
-187.788
-220.463
-252.679
-284.012
-313.826
-341.267
-365.336
-384.988
-399.281
-407.51
-409.268
-404.456
-393.337
-376.463
-354.668
-328.963
-300.392
-269.902
-238.253
-205.996
-173.421
-140.567
-107.299
-73.3891
-38.696
-3.14599
33.1435
69.765
106.173
141.577
174.987
205.27
231.226
251.69
265.636
272.298
297.993
288.286
270.635
246.031
215.721
181.069
143.439
104.091
64.1075
24.3413
-14.6036
-52.3533
-88.781
-123.937
-157.999
-191.238
-223.809
-255.677
-286.572
-315.985
-343.196
-367.321
-387.402
-402.51
-411.864
-414.917
-411.431
-401.663
-386.169
-365.737
-341.299
-313.806
-284.128
-252.968
-220.811
-187.907
-154.273
-119.746
-84.0595
-47.076
-8.78508
30.6341
70.7468
110.882
150.121
187.323
221.18
250.305
273.341
289.083
296.619
295.458
285.683
267.908
243.134
212.62
177.743
139.879
100.297
60.0851
20.098
-19.0551
-57.0096
-93.6416
-128.999
-163.268
-196.7
-229.417
-261.345
-292.169
-321.343
-348.115
-371.584
-390.792
-404.836
-412.98
-414.739
-409.977
-399.032
-382.519
-361.27
-336.232
-308.354
-278.484
-247.288
-215.215
-182.471
-149.034
-114.713
-79.2234
-42.4397
-4.35036
34.8581
74.7498
114.656
153.66
190.626
224.258
253.182
276.051
291.674
299.15
326.206
315.424
295.88
268.721
235.363
197.339
156.171
113.265
69.8281
26.826
-15.0396
-55.3251
-93.8247
-130.515
-165.596
-199.372
-232.042
-263.631
-293.951
-322.592
-348.94
-372.221
-391.58
-406.162
-415.213
-418.17
-414.768
-405.293
-390.315
-370.592
-346.977
-320.317
-291.37
-260.73
-228.787
-195.706
-161.446
-125.801
-88.4666
-49.3047
-8.37956
34.0474
77.4667
121.105
163.925
204.651
241.829
273.907
299.353
316.796
325.172
323.879
313.024
293.345
266.001
232.42
194.153
152.735
109.581
65.9064
22.6817
-19.3901
-59.868
-98.5478
-135.404
-170.656
-204.588
-237.371
-268.995
-299.232
-327.638
-353.568
-376.236
-394.78
-408.365
-416.276
-418
-413.385
-402.802
-386.873
-366.386
-342.208
-315.18
-286.039
-255.349
-223.462
-190.506
-156.407
-120.932
-83.7606
-44.7758
-4.04169
38.178
81.3727
124.771
167.34
207.814
244.748
276.606
301.871
319.184
327.494
356.134
344.329
322.999
293.445
257.24
216.067
171.585
125.316
78.5772
32.4324
-12.3253
-55.166
-95.796
-134.105
-170.312
-204.735
-237.599
-268.976
-298.75
-326.604
-352.033
-374.383
-392.907
-406.843
-415.496
-418.32
-415.041
-405.954
-391.609
-372.703
-349.993
-324.214
-296.005
-265.852
-234.051
-200.696
-165.7
-128.831
-89.7724
-48.3831
-4.8165
40.5756
87.1948
134.173
180.369
224.397
264.674
299.51
327.22
346.271
355.449
354.029
342.146
320.671
290.917
254.474
213.041
168.29
121.758
74.7704
28.3974
-16.5649
-59.5867
-100.374
-138.813
-175.154
-209.695
-242.636
-274.017
-303.691
-331.309
-356.341
-378.116
-395.885
-408.898
-416.49
-418.16
-413.748
-403.632
-388.405
-368.79
-345.552
-319.418
-291.01
-260.786
-229.008
-195.741
-160.867
-124.132
-85.2028
-43.9692
-0.583829
44.6014
90.9892
137.714
183.644
227.4
267.416
302.016
329.53
348.442
357.549
387.944
375.24
352.354
320.73
282.072
238.183
190.823
141.602
91.9194
42.9155
-4.53447
-49.8142
-92.5361
-132.493
-169.915
-205.107
-238.3
-269.594
-298.933
-326.084
-350.645
-372.08
-389.757
-403.017
-411.239
-413.915
-410.773
-402.104
-388.42
-370.337
-348.51
-323.557
-295.999
-266.218
-234.426
-200.663
-164.813
-126.641
-85.8428
-42.2811
3.79195
51.9301
101.447
151.393
200.546
247.435
290.386
327.6
357.269
377.723
387.609
386.077
373.289
350.25
318.414
279.504
235.338
187.692
138.192
88.2473
39.0071
-8.64898
-54.1019
-96.9622
-137.019
-174.54
-209.814
-243.047
-274.315
-303.534
-330.445
-354.625
-375.521
-392.5
-404.911
-412.157
-413.767
-409.579
-399.964
-385.468
-366.728
-344.404
-319.106
-291.34
-261.464
-229.663
-195.95
-160.186
-122.114
-81.4147
-37.9916
7.90612
55.8342
105.11
154.788
203.657
250.257
292.93
329.893
359.355
379.662
389.472
421.751
408.347
384.272
351.082
310.581
264.648
215.102
163.601
111.589
60.2572
10.5421
-36.8636
-81.4818
-123.006
-161.658
-197.705
-231.357
-262.724
-291.789
-318.387
-342.212
-362.834
-379.735
-392.359
-400.168
-402.699
-399.687
-391.416
-378.347
-361.013
-339.961
-315.698
-288.637
-259.067
-227.133
-192.839
-156.061
-116.586
-74.151
-28.6369
19.6042
70.0365
121.899
174.18
225.608
274.667
319.629
358.633
389.787
411.32
421.759
420.137
406.647
382.411
349.001
308.236
262.012
212.164
160.368
108.08
56.5012
6.57515
-41.0008
-85.7453
-127.348
-166.072
-202.169
-235.828
-267.139
-296.064
-322.417
-345.873
-365.99
-382.247
-394.093
-401.01
-402.562
-398.592
-389.457
-375.643
-357.7
-336.179
-311.579
-284.299
-254.611
-222.637
-188.358
-151.633
-112.231
-69.8732
-24.4876
23.5782
73.7928
125.401
177.399
228.527
277.28
321.95
360.692
391.629
413.008
423.368
457.622
443.801
419.045
384.988
343.486
296.444
245.69
192.883
139.466
86.645
35.3884
-13.5575
-59.6394
-102.459
-142.206
-179.079
-213.243
-244.795
-273.735
-299.947
-323.2
-343.158
-359.403
-371.477
-378.921
-381.321
-378.422
-370.495
-357.95
-341.24
-320.814
-297.076
-270.348
-240.845
-208.667
-173.8
-136.142
-95.5242
-51.7549
-4.75318
45.039
97.0133
150.358
204.033
256.756
307.009
353.063
393.044
425.028
447.184
457.957
456.28
442.37
417.45
383.168
341.393
294.05
242.983
189.867
136.16
83.0804
31.6048
-17.5135
-63.717
-106.607
-146.411
-183.31
-217.455
-248.927
-277.709
-303.67
-326.565
-346.047
-361.697
-373.06
-379.69
-381.196
-377.421
-368.706
-355.479
-338.204
-317.332
-293.263
-266.307
-236.665
-204.419
-169.541
-131.911
-91.3485
-47.6465
-0.772313
48.838
100.583
153.659
207.036
259.444
309.379
355.131
394.842
426.604
448.602
459.295
495.586
481.712
456.928
422.898
381.476
334.537
283.862
231.055
177.512
124.408
72.7014
23.1584
-23.622
-67.1726
-107.621
-145.07
-179.617
-211.322
-240.178
-266.097
-288.899
-308.319
-324.024
-335.639
-342.775
-345.063
-342.254
-334.611
-322.5
-306.298
-286.373
-263.044
-236.563
-207.096
-174.721
-139.433
-101.171
-59.8375
-15.3378
32.3481
82.713
135.107
188.706
242.482
295.189
345.358
391.315
431.23
463.204
485.399
496.223
494.534
480.572
455.624
421.368
379.671
332.428
281.433
228.308
174.464
121.09
69.1547
19.435
-27.4628
-71.1022
-111.607
-149.07
-183.581
-215.188
-243.875
-269.54
-291.995
-310.966
-326.12
-337.083
-343.478
-344.948
-341.34
-332.978
-320.239
-303.512
-283.164
-259.511
-232.797
-203.176
-170.715
-135.397
-97.1497
-55.8656
-11.4365
36.113
86.2834
138.434
191.75
245.216
297.598
347.443
393.094
432.737
464.489
486.527
497.27
535.631
522.149
498.126
465.204
425.175
379.824
330.824
279.671
227.662
175.887
125.252
76.4932
30.2108
-13.1013
-53.4714
-90.8914
-125.374
-156.921
-185.501
-211.025
-233.343
-252.236
-267.435
-278.627
-285.482
-287.667
-284.94
-277.558
-265.846
-250.125
-230.697
-207.821
-181.705
-152.487
-120.249
-85.0178
-46.7903
-5.56024
38.6529
85.7844
135.305
186.57
238.79
290.998
342.037
390.542
434.949
473.534
504.481
526.009
536.535
534.89
521.322
497.141
463.998
423.701
378.049
328.73
277.258
224.942
172.889
122.016
73.0722
26.6725
-16.7654
-57.2046
-94.6395
-129.08
-160.523
-188.929
-214.203
-236.188
-254.661
-269.349
-279.945
-286.124
-287.561
-284.106
-276.067
-263.78
-247.571
-227.744
-204.556
-178.207
-148.831
-116.499
-81.2316
-43.0179
-1.84388
42.2813
89.2588
138.569
189.577
241.503
293.396
344.109
392.292
436.398
474.717
505.448
526.824
537.272
577.711
565.133
542.78
512.21
475.09
433.053
387.61
340.093
291.649
243.236
195.651
149.548
105.471
63.879
24.875
-11.4166
-44.918
-75.5668
-103.289
-127.98
-149.494
-167.639
-182.185
-192.865
-199.393
-201.462
-198.84
-191.776
-180.564
-165.485
-146.794
-124.712
-99.4234
-71.0656
-39.7385
-5.51494
31.5382
71.3325
113.727
158.556
205.328
253.463
302.259
350.867
398.267
443.25
484.421
520.215
548.968
569.013
578.842
577.303
564.644
542.143
511.367
473.993
431.67
385.92
338.093
289.346
240.652
192.819
146.517
102.3
60.5548
21.4648
-14.8515
-48.317
-78.867
-106.424
-130.879
-152.082
-169.839
-183.919
-194.059
-199.975
-201.366
-198.084
-190.425
-178.692
-163.167
-144.106
-121.731
-96.2223
-67.7129
-36.2978
-2.04511
34.983
74.7028
116.98
161.632
208.179
256.049
304.551
352.848
399.932
444.608
485.493
521.037
549.588
569.491
579.247
621.749
610.637
590.951
564.097
531.552
494.74
454.955
413.322
370.788
328.138
286.009
244.92
205.294
167.476
131.725
98.2657
67.2544
38.8134
13.059
-9.88002
-29.8512
-46.674
-60.14
-70.016
-76.0471
-77.9521
-75.5075
-68.9531
-58.5603
-44.5757
-27.2247
-6.70839
16.7989
43.1495
72.2166
103.881
138.013
174.441
212.913
253.161
294.804
337.389
380.357
423.026
464.559
503.951
540.02
571.422
596.698
614.367
623.058
621.693
610.512
590.694
563.655
530.883
493.812
453.748
411.827
369.008
326.084
283.706
242.4
202.601
164.613
128.759
95.2585
64.2659
35.9046
10.2929
-12.4381
-32.1343
-48.6142
-61.6698
-71.0701
-76.5627
-77.8674
-74.8388
-67.7619
-56.9097
-42.5313
-24.8536
-4.07802
19.6226
46.1028
75.2385
106.914
141
177.328
215.647
255.698
297.108
339.431
382.119
424.497
465.74
504.853
540.666
571.844
596.94
614.483
623.109
667.634
658.58
642.6
620.884
594.654
565.069
533.161
499.806
465.72
431.478
397.523
364.192
331.734
300.291
270.283
241.996
215.632
191.347
169.284
149.587
132.41
117.927
106.324
97.8081
92.6037
90.9626
93.0907
98.7658
107.745
119.81
134.763
152.418
172.61
195.185
219.999
246.905
275.736
306.267
338.177
371.109
404.868
439.182
473.684
507.891
541.187
572.806
601.822
627.157
647.621
661.979
669.07
667.954
658.842
642.753
620.884
594.465
564.664
532.521
498.918
464.582
430.093
395.899
362.343
329.675
298.064
267.943
239.595
213.223
188.986
167.027
147.491
130.534
116.328
105.06
96.9344
92.1744
91.0327
93.6455
99.7511
109.106
121.493
136.709
154.57
174.91
197.577
222.427
249.317
278.077
308.484
340.209
372.934
406.468
440.543
474.796
508.752
541.802
573.187
601.989
627.139
647.455
661.71
668.747
715.254
708.842
697.597
682.419
664.216
643.829
621.983
599.277
576.174
553.017
530.039
507.371
485.047
462.996
441.704
421.464
402.471
384.875
368.806
354.395
341.777
331.098
322.514
316.193
312.317
311.093
312.695
316.935
323.613
332.551
343.586
356.565
371.346
387.793
405.776
425.159
445.782
467.427
489.759
512.387
535.352
558.598
581.968
605.199
627.915
649.611
669.653
687.275
701.609
711.734
716.765
715.97
709.515
698.191
682.901
664.56
644.013
621.993
599.099
575.802
552.447
529.268
506.394
483.855
461.64
440.227
419.908
400.878
383.286
367.266
352.948
340.469
329.974
321.619
315.569
312.007
311.143
313.092
317.636
324.574
333.729
344.938
358.045
372.909
389.395
407.373
426.709
447.241
468.747
490.878
513.311
536.083
559.134
582.31
605.351
627.883
649.407
669.292
686.779
701.004
711.054
716.047
764.435
761.21
755.656
748.314
739.713
730.32
720.52
710.602
700.765
691.119
681.693
672.429
663.161
653.599
644.189
635.142
626.574
618.564
611.179
604.488
598.567
593.5
589.378
586.306
584.397
583.789
584.6
586.7
589.959
594.265
599.517
605.626
612.509
620.093
628.307
637.08
646.327
655.912
665.583
674.999
684.442
694.057
703.883
713.871
723.889
733.712
743.024
751.417
758.398
763.429
765.972
765.567
762.318
756.72
749.316
740.637
731.155
721.255
711.229
701.275
691.505
681.944
672.526
663.074
653.373
643.85
634.713
626.078
618.023
610.617
603.931
598.04
593.029
588.99
586.026
584.253
583.811
584.779
587.008
590.369
594.751
600.053
606.186
613.068
620.624
628.788
637.488
646.636
656.09
665.576
674.839
684.148
693.639
703.348
713.225
723.137
732.863
742.089
750.406
757.328
762.317
764.839
815.202
815.637
816.592
818.183
820.492
823.56
827.384
831.92
837.084
842.764
848.812
855.043
861.194
866.861
872.25
877.365
882.156
886.565
890.536
894.021
896.982
899.395
901.245
902.531
903.268
903.487
903.227
902.445
901.114
899.22
896.766
893.768
890.253
886.261
881.839
877.046
871.937
866.556
860.868
854.745
848.597
842.669
837.142
832.157
827.82
824.207
821.352
819.248
817.842
817.042
816.727
816.77
817.201
818.152
819.736
822.036
825.093
828.903
833.421
838.562
844.21
850.215
856.382
862.431
868.015
873.322
878.35
883.05
887.363
891.233
894.613
897.469
899.775
901.519
902.703
903.342
903.472
903.12
902.239
900.804
898.804
896.243
893.14
889.522
885.43
880.913
876.028
870.832
865.36
859.557
853.364
847.166
841.204
835.65
830.645
826.293
822.667
819.803
817.692
816.28
815.476
815.159
)
;

boundaryField
{
    top
    {
        type            fixedFluxPressure;
        gradient        nonuniform List<scalar> 
102
(
1564.73
1685.54
1899.82
2192.73
2548.85
2953.47
3393.46
3857.64
4336.95
4824.47
5315.63
5808.93
6308.04
6826.09
7338.73
7834.85
8307.25
8750.11
9158.1
9526.12
9849.24
10122.6
10341.7
10502
10599.5
10630
10590.5
10484.4
10315.7
10088.4
9806.96
9475.97
9100.27
8684.83
8234.84
7755.77
7253.76
6736.73
6217.93
5717.04
5221.09
4727.58
4238.76
3759.81
3298.26
2863.8
2468.24
2125.28
1850
1657.91
1563.5
1578.32
1699.8
1915.34
2210
2568.28
2975.36
3418.03
3885.01
4367.19
4857.65
5351.92
5848.83
6353.07
6873.98
7388.25
7884.98
8356.98
8798.36
9203.79
9568.14
9886.46
10154
10366.2
10518.7
10607.5
10628.6
10580
10465.4
10289.1
10055.2
9768.17
9432.67
9053.55
8635.81
8184.62
7705.42
7204.42
6689.82
6176.16
5678.7
5185.65
4694.92
4208.89
3732.74
3273.94
2842.13
2449
2108.17
1834.6
1643.72
1549.94
)
;
        value           nonuniform List<scalar> 
102
(
841.281
843.729
848.256
854.729
862.973
872.785
883.942
896.214
909.367
923.172
937.406
951.858
966.328
980.629
994.562
1007.95
1020.61
1032.4
1043.17
1052.79
1061.14
1068.11
1073.61
1077.56
1079.93
1080.65
1079.74
1077.19
1073.04
1067.36
1060.22
1051.7
1041.92
1031.01
1019.09
1006.31
992.833
978.835
964.5
950.029
935.615
921.462
907.788
894.82
882.791
871.937
862.489
854.669
848.675
844.674
842.785
843.075
845.531
850.074
856.569
864.841
874.682
885.871
898.171
911.349
925.171
939.414
953.863
968.316
982.581
996.459
1009.77
1022.33
1034
1044.63
1054.08
1062.24
1069.01
1074.29
1078.01
1080.13
1080.62
1079.45
1076.66
1072.29
1066.39
1059.05
1050.35
1040.41
1029.36
1017.32
1004.45
990.906
976.857
962.493
948.009
933.594
919.452
905.798
892.857
880.858
870.036
860.62
852.828
846.857
842.871
840.991
)
;
    }
    bottom
    {
        type            fixedFluxPressure;
        gradient        nonuniform List<scalar> 
102
(
0
0
0
0
0
0
0
0
0
0
0
0
0
0
0
0
0
0
0
0
0
0
0
0
0
0
0
0
0
0
0
0
0
0
0
0
0
0
0
0
0
0
0
0
0
0
0
0
0
0
0
0
0
0
0
0
0
0
0
0
0
0
0
0
0
0
0
0
0
0
0
0
0
0
0
0
0
0
0
0
0
0
0
0
0
0
0
0
0
0
0
0
0
0
0
0
0
0
0
0
0
-1.65461e-14
)
;
        value           nonuniform List<scalar> 
102
(
-38.8552
-42.073
-48.091
-56.8476
-68.2734
-82.3076
-98.9051
-118.025
-139.6
-163.501
-189.506
-217.284
-246.37
-276.133
-305.724
-334.105
-360.211
-383.139
-402.153
-416.867
-427.511
-434.621
-438.994
-441.462
-442.672
-443.008
-442.587
-441.274
-438.668
-434.102
-426.742
-415.796
-400.749
-381.4
-358.174
-331.823
-303.273
-273.611
-243.879
-214.912
-187.333
-161.6
-138.036
-116.854
-98.1791
-82.0732
-68.5778
-57.7401
-49.6218
-44.2891
-41.7979
-42.1789
-45.4268
-51.5032
-60.3483
-71.8953
-86.0862
-102.877
-122.224
-144.053
-168.217
-194.476
-222.473
-251.71
-281.516
-310.988
-339.056
-364.661
-386.926
-405.152
-419.075
-429.006
-435.544
-439.513
-441.722
-442.771
-442.988
-442.442
-440.947
-438.047
-433.032
-425.058
-413.374
-397.522
-377.409
-353.56
-326.754
-297.944
-268.21
-238.553
-209.76
-182.413
-156.939
-133.638
-112.705
-94.2496
-78.3289
-64.9823
-54.2587
-46.2227
-40.943
-38.4767
)
;
    }
    frontAndBack
    {
        type            empty;
    }
    left_cyc
    {
        type            cyclic;
    }