/*--------------------------------*- C++ -*----------------------------------*\
| =========                 |                                                 |
| \\      /  F ield         | OpenFOAM: The Open Source CFD Toolbox           |
|  \\    /   O peration     | Version:  2.3.0                                 |
|   \\  /    A nd           | Web:      www.OpenFOAM.org                      |
|    \\/     M anipulation  |                                                 |
\*---------------------------------------------------------------------------*/
FoamFile
{
    version     2.0;
    format      ascii;
    class       volScalarField;
    location    "14000";
    object      p_rgh;
}
// * * * * * * * * * * * * * * * * * * * * * * * * * * * * * * * * * * * * * //

dimensions      [0 2 -2 0 0 0 0];

internalField   nonuniform List<scalar> 
765
(
-71.5688
-85.5094
-111.023
-146.904
-191.48
-242.273
-295.434
-345.849
-389.732
-425.002
-447.028
-455.957
-458.283
-456.871
-449.901
-431.456
-398.385
-356.387
-307.141
-254.134
-202.375
-156.082
-117.984
-89.8922
-73.0996
-68.4952
-76.3953
-96.2917
-127.178
-167.647
-215.697
-268.264
-320.721
-368.408
-408.166
-438.131
-452.821
-457.865
-458.318
-454.79
-443.257
-417.077
-379.543
-333.645
-282.08
-229.061
-179.542
-136.968
-103.564
-80.866
-69.9824
-113.914
-124.718
-144.072
-170.79
-203.62
-241.169
-282.085
-325.752
-367.149
-398.015
-418.998
-430.679
-434.088
-431.952
-422.585
-403.434
-375.071
-335.641
-291.724
-249.979
-211.496
-177.408
-149.117
-127.896
-114.94
-111.315
-117.507
-132.771
-155.985
-185.94
-221.328
-260.728
-303.222
-347.03
-383.773
-409.427
-426.327
-433.292
-434.003
-428.992
-414.618
-391.426
-357.617
-314.641
-271.517
-231.349
-194.851
-163.436
-138.457
-121.146
-112.662
-61.2443
-72.7835
-93.2428
-121.25
-155.487
-194.784
-238.11
-284.705
-330.204
-365.893
-390.838
-403.692
-407.545
-405.011
-394.808
-372.291
-339.142
-295.181
-248.186
-204.024
-163.688
-128.159
-98.5615
-76.179
-62.3805
-58.4641
-65.1286
-81.3441
-105.777
-137.068
-173.974
-215.409
-260.507
-307.536
-349.086
-379.44
-398.887
-406.423
-407.311
-401.839
-385.705
-358.054
-319.37
-272.799
-226.888
-184.484
-146.356
-113.569
-87.3293
-68.9823
-59.887
7.76033
-5.63138
-29.0917
-60.7522
-98.869
-141.997
-188.928
-238.553
-287.402
-331.011
-362.24
-376.249
-380.33
-377.719
-366.675
-339.33
-297.555
-249.579
-199.647
-152.043
-107.954
-68.5616
-35.2393
-9.66553
6.30084
10.8776
3.10086
-15.6085
-43.424
-78.5134
-119.28
-164.424
-212.795
-262.744
-309.466
-348.443
-371.097
-379.272
-380.168
-374.24
-356.185
-320.79
-275.496
-225.928
-176.845
-130.757
-88.769
-52.1262
-22.3512
-1.24077
9.34801
65.5103
49.6685
22.3503
-13.6918
-56.0196
-102.939
-153.588
-207.746
-262.56
-313.058
-350.728
-368.553
-374.127
-370.456
-356.3
-322.929
-274.246
-219.899
-165.121
-113.801
-66.0321
-22.5478
15.152
44.7793
63.6085
69.0487
59.8059
37.8233
5.78426
-33.6538
-78.3996
-127.197
-179.546
-234.608
-288.002
-333.844
-361.891
-372.5
-373.782
-365.925
-343.221
-301.087
-248.963
-193.886
-140.565
-90.8001
-44.9216
-3.97867
30.1283
54.8326
67.3958
118.487
98.8882
65.5423
22.6054
-26.259
-78.6776
-133.833
-192.224
-251.726
-308.129
-354.184
-380.681
-389.31
-383.824
-361.926
-319.547
-264.619
-205.367
-146.437
-90.705
-37.7072
12.0893
56.6813
92.6639
115.91
122.644
111.187
84.1289
45.4536
-0.812552
-51.5996
-105.343
-161.987
-221.268
-279.86
-332.469
-369.905
-386.826
-388.678
-376.16
-344.16
-294.504
-236.84
-177.343
-119.783
-65.2965
-13.6321
34.0299
74.9499
105.248
120.816
168.227
143.488
101.798
49.2137
-8.86893
-68.9423
-129.777
-191.958
-254.394
-313.939
-364.489
-397.634
-409.759
-402.05
-373.587
-326.183
-267.984
-205.856
-143.542
-82.5445
-22.3469
36.3568
90.6199
135.425
164.735
173.219
158.757
124.709
76.7944
20.9248
-38.3653
-98.7637
-160.097
-222.512
-284.02
-340.164
-383.297
-406.19
-408.779
-391.39
-353.071
-299.462
-238.785
-176.287
-114.511
-53.8518
5.91745
63.0432
113.471
151.492
171.152
218.372
187.236
135.193
70.5688
0.815072
-69.1069
-137.042
-202.519
-266.102
-325.937
-377.122
-412.44
-426.452
-417.459
-386.576
-338.272
-279.848
-216.882
-151.889
-84.705
-15.253
54.7683
121.137
176.896
213.744
224.419
206.203
163.474
104.073
36.1371
-34.0015
-102.95
-169.406
-233.884
-295.968
-352.365
-396.799
-422.217
-425.256
-405.51
-365.43
-311.425
-250.346
-186.289
-120.352
-51.7967
18.3494
87.4112
149.68
197.286
222.048
271.521
233.086
169.69
92.0326
9.58643
-70.9508
-145.972
-214.516
-278.344
-336.87
-386.563
-421.513
-435.958
-426.635
-395.835
-348.885
-291.961
-229.231
-161.916
-88.6282
-9.32298
73.0329
152.508
220.217
265.56
278.868
256.223
203.82
131.937
50.913
-31.0823
-108.964
-180.393
-246.391
-307.778
-362.567
-405.91
-431.537
-434.702
-414.551
-375.208
-322.797
-262.764
-197.881
-128.007
-51.3977
30.0946
112.131
187.236
245.432
276.114
330.277
285.021
211.484
122.313
28.4187
-62.167
-144.354
-216.435
-280.79
-337.779
-385.197
-418.563
-432.633
-423.526
-394.05
-349.363
-294.295
-231.625
-161.534
-81.9612
6.84617
100.435
191.519
269.842
323.012
338.91
311.979
250.774
167.848
75.176
-17.752
-104.456
-181.124
-249.051
-309.781
-362.458
-403.673
-428.314
-431.415
-411.907
-374.441
-324.266
-265.371
-199.313
-125.179
-40.4362
51.6444
145.296
231.737
299.47
335.783
396.968
347.238
267.457
171.275
70.0636
-27.5892
-115.569
-191.366
-257.03
-313.24
-358.766
-390.447
-403.913
-395.189
-367.228
-324.53
-270.627
-207.204
-133.965
-49.0636
46.6363
147.551
245.753
330.561
388.77
406.479
376.607
309.838
220.201
120.305
20.067
-73.2784
-154.678
-225.095
-285.993
-337.162
-376.39
-399.789
-402.764
-384.166
-348.562
-300.118
-241.546
-173.585
-95.2186
-4.20278
95.1025
196.041
289.358
363.03
403.123
473.46
423.738
344.867
250.094
149.919
52.2462
-36.9074
-114.457
-181.032
-236.841
-281.029
-311.344
-324.256
-315.894
-289.202
-247.967
-194.762
-130.745
-55.8879
30.428
126.457
226.554
323.361
407.076
465.076
483.007
452.883
386.568
298.192
199.626
99.9375
5.93554
-77.0892
-148.935
-210.079
-260.275
-297.993
-320.317
-323.17
-305.382
-271.234
-223.959
-165.447
-96.2415
-15.9969
75.8553
174.836
274.535
366.473
439.453
479.712
561.351
518.26
450.789
370.135
284.487
199.588
119.633
47.4458
-15.3806
-67.9843
-109.286
-137.415
-149.429
-141.653
-116.927
-78.4879
-28.4362
32.0021
101.984
180.179
264.148
349.967
432.364
503.833
553.911
569.65
543.315
486.272
410.965
327.023
241.253
158.472
82.3538
14.8665
-42.8759
-89.9983
-125.081
-145.757
-148.411
-131.896
-100.168
-55.8676
-0.621375
64.6295
138.966
220.469
305.973
390.98
469.231
531.815
566.857
661.798
633.529
590.365
539.79
486.522
433.016
380.033
328.669
282.418
242.97
211.678
190.204
180.923
186.936
205.833
234.992
272.619
317.326
367.565
420.39
473.707
527.11
578.599
624.067
656.715
667.233
649.734
612.802
565.18
512.907
459.468
406.407
353.76
304.797
261.848
226.318
199.655
183.814
181.759
194.467
218.642
252.14
293.434
341.2
393.584
446.524
499.994
552.836
602.082
642.352
665.495
776.603
771.442
765.322
760.35
757.113
754.81
750.998
744.052
736.674
729.638
723.433
718.687
716.384
717.904
722.169
728.074
734.924
742.214
749.277
754.001
756.313
759.171
763.705
769.667
775.322
777.502
774.002
768.001
762.327
758.308
755.841
753.445
747.565
740.326
733.113
726.469
720.921
717.243
716.713
719.77
724.962
731.423
738.589
745.993
752.757
755.594
757.866
761.462
766.81
772.947
777.389
)
;

boundaryField
{
    top
    {
        type            fixedFluxPressure;
        gradient        nonuniform List<scalar> 
51
(
1974.53
2418.58
3108.5
3930.65
4813.61
5729.67
6705.64
7746.36
8724.56
9578.57
10260.5
10723.8
10918.9
10793.3
10387
9751.57
8933.9
7981.16
6950.61
5949.61
5025.73
4135.02
3294.16
2564.2
2049.03
1885.97
2158.38
2743.81
3511.65
4369.15
5266.2
6197.96
7228.22
8245.89
9167.88
9942.14
10522.3
10861
10903.6
10634.1
10110.2
9380
8489.47
7487.16
6439.08
5492.11
4587.59
3716.99
2920.02
2279.2
1917.44
)
;
        value           nonuniform List<scalar> 
51
(
842.421
852.061
868.938
891.372
917.566
945.799
974.519
1002.26
1027.49
1048.92
1065.45
1076.15
1080.35
1077.68
1068.4
1053.13
1032.72
1008.25
980.964
952.321
923.837
897.005
873.511
855.14
843.623
840.368
845.948
859.461
879.383
903.946
931.381
960.043
988.505
1015.19
1038.71
1057.87
1071.66
1079.28
1080.17
1074.24
1061.97
1044.09
1021.57
995.565
967.393
938.665
910.786
885.362
864.144
848.921
841.304
)
;
    }
    bottom
    {
        type            fixedFluxPressure;
        gradient        uniform 0;
        value           nonuniform List<scalar> 
51
(
-71.5688
-85.5094
-111.023
-146.904
-191.48
-242.273
-295.434
-345.849
-389.732
-425.002
-447.028
-455.957
-458.283
-456.871
-449.901
-431.456
-398.385
-356.387
-307.141
-254.134
-202.375
-156.082
-117.984
-89.8922
-73.0996
-68.4952
-76.3953
-96.2917
-127.178
-167.647
-215.697
-268.264
-320.721
-368.408
-408.166
-438.131
-452.821
-457.865
-458.318
-454.79
-443.257
-417.077
-379.543
-333.645
-282.08
-229.061
-179.542
-136.968
-103.564
-80.866
-69.9824
)
;
    }
    frontAndBack
    {
        type            empty;
    }
    left_cyc
    {
        type            cyclic;
    }
    right_cyc
    {
        type            cyclic;
    }
}


// ************************************************************************* //
