/*--------------------------------*- C++ -*----------------------------------*\
| =========                 |                                                 |
| \\      /  F ield         | OpenFOAM: The Open Source CFD Toolbox           |
|  \\    /   O peration     | Version:  2.3.0                                 |
|   \\  /    A nd           | Web:      www.OpenFOAM.org                      |
|    \\/     M anipulation  |                                                 |
\*---------------------------------------------------------------------------*/
FoamFile
{
    version     2.0;
    format      ascii;
    class       surfaceScalarField;
    location    "14000";
    object      phi;
}
// * * * * * * * * * * * * * * * * * * * * * * * * * * * * * * * * * * * * * //

dimensions      [0 3 -1 0 0 0 0];

internalField   nonuniform List<scalar> 
1464
(
0.308005
0.00243994
0.312952
-0.00494707
0.327002
-0.01405
0.350053
-0.0230514
0.378147
-0.028094
0.401184
-0.0230375
0.401949
-0.000764692
0.358379
0.0435706
0.249613
0.108765
0.0710013
0.178612
-0.136686
0.207687
-0.294222
0.157537
-0.37996
0.0857373
-0.406394
0.0264347
-0.395999
-0.0103954
-0.369538
-0.0264613
-0.342172
-0.0273662
-0.321788
-0.0203832
-0.310804
-0.0109844
-0.308512
-0.00229209
-0.312927
0.00441533
-0.321954
0.00902667
-0.334208
0.0122541
-0.349058
0.0148498
-0.366517
0.0174592
-0.387194
0.0206766
-0.412276
0.0250824
-0.443119
0.0308435
-0.479525
0.0364053
-0.515033
0.0355088
-0.52777
0.0127362
-0.487643
-0.0401267
-0.396788
-0.0908548
-0.2721
-0.124688
-0.124612
-0.147488
0.027317
-0.151929
0.17859
-0.151273
0.32035
-0.14176
0.433904
-0.113554
0.509701
-0.0757967
0.527126
-0.017425
0.502425
0.0247007
0.465335
0.0370902
0.430927
0.0344082
0.402452
0.0284751
0.379212
0.0232393
0.359838
0.0193742
0.343361
0.016477
0.329392
0.0139689
0.318128
0.0112643
0.00768337
0.54704
-0.0057212
0.561953
-0.0198597
0.583959
-0.0360557
0.610983
-0.0500756
0.636732
-0.0538436
0.648705
-0.0350098
0.626868
0.0210721
0.543703
0.126735
0.371771
0.280698
0.104313
0.44607
-0.20153
0.51353
-0.440284
0.396291
-0.580775
0.226228
-0.640492
0.0861517
-0.648267
-0.00262065
-0.629738
-0.0449902
-0.602406
-0.0546986
-0.576495
-0.0462941
-0.556672
-0.030807
-0.544029
-0.0149352
-0.537729
-0.00188483
-0.536034
0.00733193
-0.536819
0.0130388
-0.537981
0.0160122
-0.537442
0.0169206
-0.532956
0.0161905
-0.52192
0.0140464
-0.501217
0.0101399
-0.467262
0.00245063
-0.416314
-0.0154394
-0.345542
-0.0580353
-0.260853
-0.124816
-0.178843
-0.172865
-0.109845
-0.193686
-0.0504796
-0.206854
0.0103437
-0.212752
0.0706477
-0.211577
0.131986
-0.203098
0.206511
-0.188079
0.291933
-0.161219
0.373443
-0.0989344
0.437156
-0.0390122
0.481602
-0.00735659
0.510303
0.00570777
0.527055
0.0117227
0.535321
0.0149738
0.538022
0.0166725
0.537612
0.0168879
0.53624
0.0153401
0.535959
0.0115457
0.00476354
0.578237
-0.0202932
0.595808
-0.0374311
0.615509
-0.0557567
0.634549
-0.0691156
0.64715
-0.0664447
0.643236
-0.0310955
0.606996
0.0573118
0.51669
0.217042
0.348946
0.448442
0.0971273
0.697889
-0.187755
0.798412
-0.41436
0.622896
-0.554563
0.366431
-0.624331
0.15592
-0.647613
0.0206611
-0.64463
-0.0479733
-0.629007
-0.0703216
-0.609237
-0.066064
-0.58998
-0.0500637
-0.573296
-0.0316195
-0.559592
-0.0155889
-0.548272
-0.0039874
-0.537877
0.00264384
-0.526304
0.0044387
-0.510893
0.00150973
-0.488462
-0.00624069
-0.455474
-0.0189409
-0.40889
-0.036445
-0.348071
-0.0583683
-0.278406
-0.0851041
-0.215576
-0.120866
-0.170345
-0.170048
-0.129784
-0.213425
-0.0850044
-0.238466
-0.0388984
-0.25296
0.00787832
-0.259529
0.0544914
-0.25819
0.100359
-0.248966
0.143769
-0.231489
0.183498
-0.200948
0.236304
-0.151741
0.304391
-0.107098
0.372168
-0.0751339
0.427929
-0.0500534
0.469178
-0.0295261
0.497782
-0.0136298
0.517134
-0.00267963
0.530681
0.00334094
0.541411
0.00460986
0.55178
0.00117692
-0.00712173
0.51719
-0.03343
0.529981
-0.0502217
0.540917
-0.066693
0.547284
-0.0754825
0.544659
-0.06382
0.526219
-0.0126552
0.48199
0.101541
0.399025
0.300006
0.263391
0.584075
0.0723594
0.88892
-0.139463
1.01023
-0.314255
0.797688
-0.431506
0.483682
-0.500222
0.224636
-0.534736
0.0551752
-0.547117
-0.0355923
-0.5462
-0.0712385
-0.537933
-0.0743317
-0.526121
-0.0618759
-0.513048
-0.0446919
-0.499899
-0.0287382
-0.486988
-0.016898
-0.473856
-0.0104884
-0.459191
-0.0102263
-0.440844
-0.0168371
-0.415918
-0.0311673
-0.381098
-0.0537605
-0.333758
-0.0837854
-0.274266
-0.11786
-0.209659
-0.149711
-0.156172
-0.174353
-0.122186
-0.204033
-0.0935782
-0.242033
-0.0628912
-0.269153
-0.0292706
-0.28658
0.00588554
-0.294685
0.0406733
-0.292978
0.0733035
-0.281596
0.102734
-0.26092
0.131655
-0.229869
0.17328
-0.193366
0.233055
-0.166873
0.297249
-0.139328
0.352617
-0.105421
0.395114
-0.0720238
0.425852
-0.0443672
0.447909
-0.0247366
0.464516
-0.0132662
0.478314
-0.009188
0.491158
-0.0116673
-0.0200168
0.40922
-0.0402006
0.413207
-0.0542092
0.412866
-0.0663515
0.40612
-0.0687372
0.390236
-0.047936
0.361623
0.0159585
0.31599
0.147173
0.248751
0.367245
0.156371
0.676456
0.0417753
1.00352
-0.0796433
1.13165
-0.188558
0.906602
-0.27295
0.568075
-0.332897
0.284583
-0.37268
0.0949586
-0.396836
-0.0114369
-0.409453
-0.058621
-0.413856
-0.0699292
-0.412569
-0.0631629
-0.407501
-0.0497597
-0.400037
-0.0362021
-0.39104
-0.0258951
-0.380788
-0.0207406
-0.368833
-0.0221812
-0.353886
-0.0317843
-0.333793
-0.0512603
-0.305804
-0.0817492
-0.267467
-0.122122
-0.218598
-0.16673
-0.163954
-0.204355
-0.115741
-0.222566
-0.0851511
-0.234623
-0.0634296
-0.263754
-0.0424102
-0.290172
-0.0198019
-0.309189
0.00391056
-0.318397
0.0273493
-0.316416
0.0493465
-0.303593
0.0701431
-0.281716
0.0933313
-0.253057
0.130433
-0.230468
0.18326
-0.2197
0.236914
-0.192983
0.282249
-0.150756
0.316644
-0.106418
0.341428
-0.0691519
0.359335
-0.0426435
0.372963
-0.0268941
0.384169
-0.0203933
0.393936
-0.0214343
-0.0285305
0.266878
-0.0390265
0.261558
-0.0488898
0.250995
-0.0557884
0.234094
-0.051836
0.209857
-0.0236986
0.177655
0.0481603
0.137888
0.186941
0.0928062
0.412327
0.0480015
0.721261
0.0113373
1.04018
-0.0200309
1.16302
-0.0606108
0.947182
-0.107
0.614464
-0.151234
0.328816
-0.188986
0.132711
-0.218789
0.0183661
-0.240633
-0.0367767
-0.255385
-0.0551776
-0.264125
-0.0544223
-0.267977
-0.0459085
-0.268027
-0.0361518
-0.265246
-0.0286759
-0.260356
-0.0256312
-0.253629
-0.0289076
-0.244678
-0.040735
-0.232302
-0.0636368
-0.214558
-0.0994929
-0.189314
-0.147366
-0.155639
-0.200405
-0.115718
-0.244275
-0.0765972
-0.261687
-0.0515795
-0.25964
-0.0370884
-0.278246
-0.0246631
-0.302598
-0.011594
-0.322258
0.00221965
-0.332211
0.0158388
-0.330036
0.0285458
-0.3163
0.0414562
-0.294627
0.0591885
-0.27079
0.0896179
-0.260897
0.130038
-0.26012
0.168017
-0.230962
0.198642
-0.18138
0.220994
-0.128771
0.236606
-0.0847633
0.247618
-0.0536559
0.255729
-0.0350047
0.261843
-0.0265077
0.266099
-0.0256906
-0.0304828
0.100943
-0.0308353
0.0883703
-0.0363174
0.0709565
-0.0383747
0.04857
-0.0294494
0.0216974
0.00317396
-0.00775526
0.077613
-0.0357095
0.214895
-0.0542998
0.430917
-0.051007
0.717968
-0.0158665
1.00504
0.0331231
1.11403
0.0571703
0.923135
0.0510083
0.620626
0.0276256
0.352199
-0.00184472
0.162181
-0.0309959
0.0475172
-0.0566265
-0.0111461
-0.0774639
-0.0343402
-0.0933056
-0.0385806
-0.104423
-0.0347913
-0.111365
-0.0292094
-0.114885
-0.0251565
-0.115824
-0.0246914
-0.114904
-0.0298279
-0.112443
-0.0431963
-0.108135
-0.0679441
-0.101017
-0.106611
-0.0897529
-0.15863
-0.0734679
-0.21669
-0.0528494
-0.264894
-0.0311607
-0.283376
-0.0186257
-0.272175
-0.0131949
-0.283676
-0.00905901
-0.306734
-0.00442424
-0.326893
0.000783074
-0.337418
0.00583645
-0.335089
0.0101684
-0.320632
0.0146091
-0.299067
0.023079
-0.279259
0.0394736
-0.277292
0.0604459
-0.281093
0.079093
-0.249609
0.0933366
-0.195624
0.102985
-0.13842
0.10907
-0.0908482
0.112778
-0.0573635
0.114822
-0.0370487
0.115268
-0.0269537
0.113633
-0.024056
-0.0259834
-0.0719624
-0.0182092
-0.0886002
-0.0196797
-0.109204
-0.0177711
-0.133103
-0.00555011
-0.158391
0.0284614
-0.180915
0.100138
-0.193182
0.227161
-0.182902
0.420638
-0.134029
0.669095
-0.0382161
0.909227
0.0762552
0.99956
0.156866
0.842524
0.19071
0.586783
0.191416
0.351493
0.174326
0.179271
0.150088
0.0717553
0.124824
0.014118
0.101791
-0.0113075
0.0823789
-0.0191683
0.0670001
-0.0194125
0.0555485
-0.0177579
0.0475298
-0.0171378
0.0421305
-0.0192921
0.0384051
-0.0261025
0.0355584
-0.0403496
0.0331178
-0.0655035
0.0308994
-0.104393
0.0288325
-0.156564
0.0266887
-0.214546
0.0242245
-0.26243
0.0213651
-0.280516
0.0159799
-0.26679
0.00999842
-0.277695
0.00557061
-0.302306
0.0022458
-0.323568
-0.000538784
-0.334634
-0.00346034
-0.332167
-0.00716872
-0.316924
-0.0121767
-0.294059
-0.0186964
-0.27274
-0.0233923
-0.272596
-0.0265275
-0.277957
-0.0290681
-0.247069
-0.0310757
-0.193616
-0.0329826
-0.136513
-0.0350313
-0.0887994
-0.0373602
-0.0550347
-0.0402555
-0.0341535
-0.0442995
-0.0229096
-0.050353
-0.0180025
-0.0170001
-0.233294
-0.004127
-0.251127
-0.00184607
-0.27228
0.00338158
-0.295223
0.0173934
-0.316492
0.0497296
-0.329698
0.113344
-0.324331
0.221795
-0.285533
0.381839
-0.197211
0.580772
-0.0550003
0.767016
0.107722
0.836838
0.233388
0.716857
0.303624
0.516547
0.329283
0.325834
0.326867
0.181687
0.309938
0.0886844
0.287474
0.0365826
0.264765
0.0114014
0.244512
0.00108433
0.227809
-0.00270914
0.214839
-0.00478781
0.205192
-0.00749165
0.197964
-0.0120632
0.191932
-0.0200706
0.185866
-0.0342845
0.178577
-0.0582135
0.168675
-0.0944909
0.154455
-0.142344
0.134115
-0.194206
0.107268
-0.235582
0.0767647
-0.250013
0.0512206
-0.241246
0.0336553
-0.26013
0.0205808
-0.289231
0.00910572
-0.312093
-0.00196313
-0.323565
-0.0131254
-0.321005
-0.0249952
-0.305054
-0.0395909
-0.279464
-0.0627632
-0.249567
-0.0914385
-0.243921
-0.12054
-0.248856
-0.144588
-0.22302
-0.162052
-0.176153
-0.174106
-0.124458
-0.182566
-0.0803403
-0.189017
-0.0485835
-0.194733
-0.0284368
-0.200871
-0.0167717
-0.208652
-0.0102214
-0.00644098
-0.365289
0.00910941
-0.382175
0.0150394
-0.401878
0.023085
-0.422023
0.0375379
-0.437772
0.0654795
-0.440791
0.116362
-0.41859
0.199594
-0.355624
0.318873
-0.237992
0.46314
-0.0657889
0.594814
0.126709
0.644341
0.283043
0.560523
0.381796
0.417794
0.429601
0.278029
0.441848
0.16944
0.433409
0.0971235
0.415404
0.0545875
0.39492
0.0318847
0.375875
0.0201301
0.360052
0.0131132
0.347925
0.00733967
0.339103
0.00133053
0.332435
-0.00539597
0.326221
-0.0138563
0.318667
-0.0267304
0.307864
-0.0474102
0.291392
-0.0780196
0.26639
-0.117342
0.230007
-0.157823
0.181639
-0.187215
0.127267
-0.195641
0.0847116
-0.19869
0.0588405
-0.234259
0.0374453
-0.267836
0.0168775
-0.291525
-0.00375722
-0.30293
-0.0244045
-0.300358
-0.0451701
-0.284288
-0.0683651
-0.256269
-0.100564
-0.217368
-0.148427
-0.196058
-0.201956
-0.195328
-0.246127
-0.178849
-0.277904
-0.144376
-0.299281
-0.10308
-0.313205
-0.0664168
-0.322435
-0.039353
-0.329179
-0.0216929
-0.335226
-0.0107246
-0.342332
-0.00311541
0.00327959
-0.449473
0.0200978
-0.463572
0.0291385
-0.479723
0.0392354
-0.49513
0.0529452
-0.504264
0.0746138
-0.497922
0.110021
-0.463124
0.164796
-0.385113
0.240861
-0.252853
0.33088
-0.0697846
0.411745
0.132003
0.442553
0.30114
0.391386
0.415609
0.303326
0.478235
0.215402
0.502238
0.145437
0.50227
0.0970911
0.490213
0.0666445
0.474029
0.0480684
0.458258
0.0359013
0.445034
0.0263371
0.435023
0.017351
0.427934
0.00841995
0.4225
3.77818e-05
0.416573
-0.00792897
0.407875
-0.0180324
0.393919
-0.0334543
0.371599
-0.0557
0.33773
-0.083473
0.289527
-0.109619
0.226898
-0.124586
0.163766
-0.132509
0.119905
-0.15483
0.0880392
-0.202392
0.0576732
-0.23747
0.0262351
-0.260087
-0.00595789
-0.270737
-0.0380157
-0.2683
-0.0691786
-0.253126
-0.0997261
-0.225721
-0.131737
-0.185357
-0.1826
-0.145195
-0.250233
-0.127694
-0.308793
-0.120289
-0.351801
-0.101368
-0.381289
-0.0735928
-0.400253
-0.0474525
-0.411998
-0.0276077
-0.419437
-0.014254
-0.424893
-0.0052695
-0.430602
0.00259447
0.0111619
-0.466546
0.0278613
-0.475667
0.0382589
-0.485312
0.0488812
-0.49314
0.0607728
-0.494296
0.0757694
-0.480573
0.0962982
-0.44049
0.124713
-0.361416
0.161787
-0.234818
0.204282
-0.0651054
0.242033
0.120684
0.256764
0.279237
0.232834
0.390919
0.191644
0.456554
0.149768
0.486898
0.115093
0.494731
0.0892586
0.490661
0.0707139
0.481803
0.056927
0.472109
0.0455948
0.463337
0.0351088
0.456008
0.024681
0.44998
0.0144479
0.444367
0.00565066
0.43742
-0.000982315
0.426972
-0.00758398
0.410181
-0.0166635
0.383575
-0.0290939
0.344877
-0.0447751
0.295117
-0.0598593
0.239796
-0.0692649
0.192783
-0.085496
0.159694
-0.121742
0.122334
-0.165032
0.0810422
-0.196178
0.0369967
-0.216041
-0.00839314
-0.225347
-0.0534786
-0.223215
-0.0966618
-0.209942
-0.136257
-0.186127
-0.171186
-0.150428
-0.209439
-0.106942
-0.2605
-0.076634
-0.314402
-0.0663865
-0.360359
-0.0554106
-0.394643
-0.039309
-0.41743
-0.0246652
-0.43164
-0.013398
-0.440613
-0.00528124
-0.446871
0.000989064
-0.452427
0.00814994
0.0175178
-0.410453
0.0305
-0.411114
0.0389199
-0.409604
0.0473708
-0.40492
0.0560897
-0.394471
0.0653195
-0.373426
0.0752539
-0.334661
0.0859476
-0.270028
0.097154
-0.173796
0.108051
-0.0486074
0.116843
0.0879859
0.12017
0.205998
0.114821
0.292612
0.10503
0.348535
0.0938442
0.38092
0.0827075
0.397956
0.0722227
0.406161
0.0625086
0.409638
0.0534507
0.410401
0.0448311
0.409109
0.0364017
0.405849
0.0279402
0.400844
0.0194536
0.394759
0.011735
0.388226
0.0055509
0.380589
5.25524e-05
0.369594
-0.0056677
0.352317
-0.011817
0.326234
-0.0186924
0.29372
-0.0273456
0.263735
-0.0392792
0.236519
-0.0582805
0.202258
-0.0874809
0.156651
-0.119424
0.104125
-0.143653
0.047602
-0.159518
-0.0107893
-0.166956
-0.0687557
-0.165248
-0.124061
-0.154637
-0.174421
-0.135766
-0.216413
-0.108436
-0.247664
-0.0756908
-0.273974
-0.0503237
-0.305633
-0.0347273
-0.336832
-0.0242121
-0.359764
-0.0163774
-0.374597
-0.00983141
-0.384156
-0.00383973
-0.391197
0.00176003
-0.397537
0.00732942
-0.40333
0.0139428
0.0220019
-0.355554
0.0187452
-0.339459
0.0228243
-0.319054
0.0269661
-0.294207
0.0312424
-0.264582
0.0356948
-0.22962
0.0402922
-0.188561
0.0448881
-0.140586
0.049179
-0.0852391
0.052704
-0.0233488
0.0549532
0.0412473
0.0555742
0.101594
0.0544744
0.154814
0.0518107
0.200659
0.047999
0.239803
0.0435638
0.273092
0.0389327
0.30124
0.0343616
0.324733
0.0299569
0.343842
0.0257225
0.358642
0.0216015
0.369057
0.0175256
0.374964
0.0135468
0.376682
0.0100163
0.375134
0.00709897
0.370856
0.0043312
0.363692
0.00149621
0.353293
-0.0014179
0.33931
-0.00470959
0.321411
-0.00944719
0.29954
-0.017408
0.27196
-0.0307006
0.233434
-0.0489549
0.182196
-0.0681858
0.121902
-0.0833591
0.0559374
-0.0935536
-0.0126552
-0.0983633
-0.0806462
-0.0972572
-0.144878
-0.0904056
-0.202283
-0.0783611
-0.249243
-0.0614759
-0.283121
-0.0418126
-0.308082
-0.0253626
-0.328586
-0.0142231
-0.345166
-0.00763279
-0.357943
-0.00360026
-0.367262
-0.000512297
-0.373468
0.00236629
-0.37689
0.00518199
-0.377514
0.00795389
-0.374588
0.0110167
0.0147229
-0.343338
-0.326015
-0.304292
-0.277975
-0.246821
-0.210609
-0.169259
-0.123007
-0.0726105
-0.019462
0.034473
0.0870227
0.136343
0.18122
0.221066
0.255762
0.285451
0.310373
0.330761
0.346787
0.358565
0.366264
0.370378
0.371564
0.370105
0.366136
0.359849
0.351269
0.339639
0.322752
0.296473
0.256596
0.202126
0.136223
0.06278
-0.014188
-0.0903443
-0.161461
-0.223611
-0.272966
-0.307447
-0.329857
-0.344614
-0.355104
-0.36296
-0.36857
-0.371796
-0.372459
-0.370424
-0.36529
)
;

boundaryField
{
    top
    {
        type            calculated;
        value           nonuniform List<scalar> 
51
(
0.00569692
0.00550182
0.00524323
0.00492494
0.00454079
0.00408027
0.0035377
0.00292729
0.00230767
0.00180465
0.00163917
0.00192475
0.00249085
0.00312187
0.00371784
0.00423628
0.00467245
0.00503521
0.00533476
0.00557469
0.00574799
0.00584764
0.00590199
0.00591336
0.00578975
0.00546574
0.00486893
0.00387091
0.00218254
-0.000521089
-0.00442146
-0.00907815
-0.0137154
-0.0174561
-0.0201109
-0.0213953
-0.0211009
-0.0192886
-0.0162111
-0.0121213
-0.00733133
-0.00295331
0.000534555
0.00285735
0.0042558
0.00509754
0.00559205
0.00584538
0.00591802
0.0058829
0.00581926
)
;
    }
    bottom
    {
        type            calculated;
        value           uniform 0;
    }
    frontAndBack
    {
        type            empty;
        value           nonuniform 0();
    }
    left_cyc
    {
        type            cyclic;
        value           nonuniform List<scalar> 
15
(
-0.310445
-0.538879
-0.563665
-0.504053
-0.402449
-0.268052
-0.109134
0.0593363
0.219212
0.352053
0.438485
0.458783
0.407814
0.367309
0.356386
)
;
    }
    right_cyc
    {
        type            cyclic;
        value           nonuniform List<scalar> 
15
(
0.310445
0.538879
0.563665
0.504053
0.402449
0.268052
0.109134
-0.0593363
-0.219212
-0.352053
-0.438485
-0.458783
-0.407814
-0.367309
-0.356386
)
;
    }
}


// ************************************************************************* //
