/*--------------------------------*- C++ -*----------------------------------*\
| =========                 |                                                 |
| \\      /  F ield         | OpenFOAM: The Open Source CFD Toolbox           |
|  \\    /   O peration     | Version:  2.3.0                                 |
|   \\  /    A nd           | Web:      www.OpenFOAM.org                      |
|    \\/     M anipulation  |                                                 |
\*---------------------------------------------------------------------------*/
FoamFile
{
    version     2.0;
    format      ascii;
    class       volScalarField;
    location    "14000";
    object      T;
}
// * * * * * * * * * * * * * * * * * * * * * * * * * * * * * * * * * * * * * //

dimensions      [0 0 0 1 0 0 0];

internalField   nonuniform List<scalar> 
3060
(
34.1804
34.1915
34.2121
34.2415
34.2794
34.3252
34.3786
34.4393
34.5071
34.582
34.6641
34.7534
34.8498
34.9511
35.0551
35.1617
35.2709
35.3818
35.4926
35.6006
35.7028
35.7956
35.8747
35.936
35.9749
35.9879
35.9733
35.9328
35.8703
35.7901
35.6966
35.5937
35.4851
35.374
35.2629
35.1534
35.0465
34.9422
34.8406
34.7444
34.6554
34.5739
34.4997
34.4327
34.373
34.3209
34.2765
34.2404
34.2129
34.1946
34.1859
34.1873
34.1986
34.2193
34.2491
34.2875
34.3339
34.3881
34.4497
34.5186
34.5948
34.6783
34.7692
34.8671
34.9695
35.0744
35.1821
35.2921
35.4035
35.5142
35.6216
35.7224
35.8128
35.8888
35.9458
35.9798
35.9871
35.967
35.9217
35.8553
35.7721
35.6765
35.5724
35.4634
35.3524
35.2418
35.1332
35.0274
34.924
34.8236
34.729
34.6416
34.5614
34.4884
34.4225
34.3637
34.3123
34.2685
34.2328
34.2057
34.1876
34.179
29.6766
29.7078
29.7651
29.8472
29.953
30.0813
30.2314
30.4026
30.5947
30.808
31.0428
31.2994
31.5781
31.878
32.1906
32.5105
32.8381
33.1708
33.5028
33.8263
34.1324
34.4104
34.6485
34.8335
34.9518
34.9917
34.9469
34.8241
34.6353
34.3941
34.1136
33.8056
33.4805
33.1475
32.814
32.4857
32.165
31.8512
31.5517
31.2741
31.0187
30.7857
30.5745
30.3849
30.2168
30.0704
29.9463
29.8453
29.7687
29.7175
29.6932
29.697
29.7285
29.7866
29.8698
29.9769
30.107
30.2592
30.4331
30.6284
30.8453
31.0842
31.3454
31.6288
31.9335
32.2486
32.5715
32.9017
33.2358
33.5676
33.8892
34.191
34.4624
34.691
34.8635
34.9667
34.9894
34.9277
34.7904
34.59
34.3401
34.0535
33.7418
33.4152
33.0824
32.7507
32.425
32.1075
31.7965
31.502
31.2291
30.9783
30.7493
30.5416
30.355
30.1894
30.0451
29.9227
29.8231
29.7474
29.6969
29.6728
25.4829
25.5317
25.6214
25.75
25.9158
26.1172
26.353
26.6225
26.9254
27.2619
27.6323
28.0372
28.4766
28.9498
29.4542
29.9756
30.5125
31.0588
31.6044
32.1359
32.639
33.0968
33.49
33.797
33.9947
34.0618
33.9864
33.7814
33.4683
33.0701
32.6083
32.102
31.568
31.0207
30.4732
29.9355
29.4135
28.9086
28.4362
27.9984
27.5958
27.2281
26.8951
26.5963
26.3316
26.1015
25.9068
25.7487
25.6286
25.5486
25.5104
25.5164
25.5658
25.6566
25.7869
25.9549
26.1591
26.3984
26.6721
26.98
27.3221
27.699
28.1108
28.5577
29.0382
29.5487
30.0757
30.6171
31.1659
31.7112
32.2394
32.7356
33.1826
33.5604
33.8471
34.0197
34.0578
33.9542
33.7253
33.3932
32.9808
32.5093
31.9971
31.4605
30.9136
30.3689
29.8358
29.3194
28.8214
28.3567
27.9263
27.5306
27.1692
26.8417
26.5476
26.287
26.0602
25.8682
25.7122
25.5937
25.5147
25.477
21.7488
21.8129
21.9305
22.0992
22.3166
22.5807
22.8901
23.2436
23.6407
24.0815
24.5663
25.0957
25.67
26.2888
26.9503
27.6444
28.3665
29.1064
29.8486
30.5735
31.2599
31.885
32.4231
32.8448
33.1177
33.211
33.1063
32.8235
32.3936
31.8488
31.2183
30.5275
29.7994
29.055
28.3139
27.5913
26.8972
26.2362
25.6189
25.0468
24.5204
24.0393
23.603
23.2112
22.8641
22.5622
22.3068
22.0993
21.9419
21.8368
21.7868
21.7946
21.8595
21.9786
22.1495
22.3699
22.6378
22.9517
23.3107
23.7143
24.1624
24.6555
25.1939
25.7778
26.4063
27.077
27.7797
28.5086
29.2525
29.9946
30.715
31.3922
32.0025
32.5199
32.9141
33.1525
33.2054
33.0618
32.7462
32.2905
31.7266
31.0829
30.384
29.6526
28.9092
28.1726
27.4568
26.7702
26.1203
25.5132
24.9508
24.4333
23.9602
23.531
23.1454
22.8036
22.5061
22.2542
22.0495
21.8942
21.7905
21.7411
18.5667
18.6437
18.785
18.9875
19.2483
19.5649
19.935
20.3573
20.8309
21.3556
21.9317
22.5602
23.2416
23.976
24.7619
25.5954
26.469
27.3698
28.2789
29.1722
30.021
30.7946
31.4609
31.984
32.3236
32.44
32.3095
31.9578
31.4246
30.7501
29.9699
29.116
28.2192
27.3078
26.406
25.5325
24.6998
23.9152
23.1828
22.5042
21.8794
21.3075
20.7881
20.3208
19.906
19.5447
19.2385
18.9895
18.8004
18.6742
18.614
18.6234
18.7014
18.8446
19.0498
19.3141
19.6352
20.0108
20.4396
20.9207
21.454
22.0398
22.6789
23.3718
24.1181
24.9159
25.7603
26.6429
27.5493
28.4594
29.3477
30.1851
30.9405
31.5812
32.0703
32.367
32.433
32.2539
31.8615
31.2966
30.5985
29.8019
28.9384
28.0383
27.1292
26.234
25.3701
24.5488
23.776
23.0555
22.3881
21.7736
21.2112
20.7001
20.2401
19.8315
19.4754
19.1735
18.9279
18.7414
18.6168
18.5574
15.9632
16.0513
16.2129
16.4442
16.7415
17.1015
17.5212
17.9985
18.5321
19.1215
19.7672
20.4702
21.2319
22.0532
22.9334
23.8731
24.8632
25.889
26.9295
27.9573
28.9389
29.8363
30.6095
31.2159
31.6097
31.7447
31.5935
31.1858
30.5678
29.7852
28.8803
27.8933
26.8618
25.8193
24.7928
23.8032
22.8649
21.9869
21.1683
20.4098
19.7106
19.0696
18.4858
17.959
17.4899
17.0799
16.7315
16.4476
16.2315
16.0871
16.0183
16.029
16.1183
16.282
16.5164
16.8177
17.1827
17.6085
18.093
18.635
19.234
19.8904
20.6052
21.3798
22.2147
23.1088
24.0615
25.0624
26.0953
27.1377
28.1608
29.1298
30.0062
30.7494
31.3162
31.6601
31.7366
31.5288
31.0739
30.4189
29.6088
28.6851
27.6877
26.6535
25.6145
24.5964
23.6188
22.6949
21.8294
21.0238
20.2778
19.5901
18.9595
18.3849
17.8661
17.4039
16.9998
16.6563
16.3762
16.163
16.0205
15.9526
13.9075
14.0058
14.1858
14.4428
14.7722
15.1694
15.6306
16.1526
16.7334
17.372
18.0689
18.8256
19.644
20.5264
21.4738
22.4891
23.5624
24.6783
25.8145
26.9412
28.0216
29.0128
29.8677
30.537
30.9701
31.1183
30.9525
30.504
29.822
28.9568
27.9578
26.8717
25.7414
24.6035
23.4873
22.4149
21.4015
20.4569
19.5775
18.7623
18.0094
17.3171
16.684
16.1102
15.5967
15.1459
14.761
14.4462
14.206
14.0452
13.9684
13.9804
14.0799
14.2622
14.5226
14.8564
15.2591
15.7268
16.2565
16.8461
17.4949
18.2032
18.9725
19.8049
20.7021
21.6651
22.6948
23.7803
24.9045
26.0434
27.1657
28.233
29.2012
30.0226
30.6476
31.0256
31.1094
30.8812
30.3805
29.6571
28.7612
27.7419
26.6452
25.5126
24.3792
23.2726
22.2135
21.2155
20.2855
19.4203
18.6185
17.878
17.1966
16.5734
16.0081
15.502
15.0575
14.6778
14.3672
14.1302
13.9715
13.8957
12.3301
12.4384
12.6365
12.9186
13.2787
13.7107
14.2093
14.77
15.3896
16.0668
16.8015
17.5957
18.4522
19.3745
20.3659
21.4298
22.5565
23.7305
24.9288
26.1204
27.2661
28.3194
29.2285
29.9389
30.3964
30.5519
30.3779
29.9042
29.1803
28.2603
27.1989
26.0476
24.8526
23.6528
22.4788
21.3533
20.2915
19.3032
18.3837
17.5302
16.7393
16.0086
15.3366
14.7236
14.1714
13.6834
13.2644
12.92
12.6562
12.4792
12.3947
12.4078
12.5174
12.718
13.0037
13.3684
13.8062
14.3116
14.8803
15.5091
16.1967
16.9432
17.7505
18.6215
19.5596
20.5676
21.647
22.7869
23.97
25.1717
26.3591
27.4912
28.5202
29.3935
30.0562
30.4549
30.5426
30.3027
29.773
29.0045
28.0518
26.9691
25.8069
24.61
23.4153
22.2518
21.1403
20.0944
19.1223
18.2181
17.3786
16.6005
15.8812
15.2193
14.6151
14.0705
13.5892
13.1757
12.8357
12.5753
12.4006
12.3171
11.1425
11.2614
11.4789
11.7876
12.1799
12.6476
13.1835
13.7812
14.4363
15.1463
15.9107
16.7316
17.6126
18.5588
19.5753
20.6652
21.8197
23.0236
24.2541
25.4795
26.6593
27.7448
28.6812
29.4111
29.8788
30.0367
29.86
29.3757
28.6318
27.6842
26.5906
25.4052
24.1766
22.9447
21.7409
20.5877
19.4999
18.4862
17.5424
16.6636
15.8452
15.0839
14.3782
13.7291
13.1394
12.6142
12.16
11.7846
11.4958
11.3014
11.2086
11.223
11.3434
11.5634
11.876
12.273
12.7468
13.2897
13.8955
14.5599
15.2803
16.0566
16.8908
17.7866
18.7489
19.7825
20.8885
22.0566
23.2702
24.5045
25.7258
26.8917
27.9521
28.8512
29.5315
29.9384
30.0272
29.7833
29.241
28.4506
27.469
26.3533
25.1569
23.9264
22.7001
21.5072
20.3684
19.2969
18.3001
17.3721
16.5076
15.7021
14.9522
14.2568
13.6166
13.0348
12.5163
12.0679
11.6971
11.4118
11.2199
11.1282
10.2539
10.385
10.6242
10.9628
11.3908
11.8979
12.4741
13.1109
13.802
14.5434
15.334
16.1756
17.0726
18.0312
19.0583
20.1562
21.3172
22.5273
23.7643
24.9965
26.1829
27.2738
28.2134
28.9435
29.4087
29.5647
29.3901
28.9081
28.1639
27.2132
26.114
24.9221
23.6867
22.4485
21.2384
20.0784
18.9822
17.9573
17.0002
16.1043
15.2638
14.475
13.7367
13.0506
12.4213
11.8556
11.3627
10.9526
10.6358
10.422
10.3198
10.3356
10.4681
10.7101
11.0526
11.4857
11.9989
12.5822
13.2272
13.9275
14.6792
15.4816
16.3364
17.2481
18.2227
19.2669
20.3809
21.5557
22.7756
24.0164
25.2445
26.4168
27.4821
28.3837
29.0635
29.4677
29.5554
29.314
28.7735
27.9823
26.9968
25.8752
24.672
23.4348
22.2021
21.003
19.8575
18.7776
17.7696
16.8283
15.9466
15.1189
14.3414
13.6133
12.9361
12.3147
11.7559
11.2689
10.8636
10.5505
10.3392
10.2382
9.5828
9.72754
9.99158
10.3642
10.833
11.3846
12.0062
12.6866
13.417
14.1917
15.0086
15.869
16.7775
17.7411
18.7683
19.8603
21.0112
22.2083
23.4304
24.6467
25.8165
26.8903
27.8128
28.5268
28.9796
29.1303
28.9615
28.4922
27.7642
26.8306
25.7486
24.5733
23.3538
22.1302
20.9329
19.7825
18.6913
17.6653
16.7018
15.7928
14.932
14.1153
13.3421
12.6155
11.9419
11.3308
10.7939
10.3444
9.99562
9.75971
9.64687
9.66436
9.81063
10.0775
10.4543
10.9282
11.486
12.1148
12.8033
13.5428
14.3276
15.1559
16.0291
16.9518
17.9311
18.9749
20.0826
21.2469
22.4535
23.6793
24.8913
26.0468
27.095
27.9796
28.6438
29.0367
29.1214
28.8876
28.3609
27.5861
26.6178
25.5132
24.3265
23.105
21.8867
20.7001
19.5638
18.4886
17.479
16.5308
15.6357
14.7872
13.9816
13.2183
12.5005
11.8348
11.2306
10.6997
10.2552
9.91029
9.677
9.56543
9.06145
9.22159
9.51356
9.9246
10.4393
11.0413
11.7142
12.4438
13.2185
14.0304
14.8761
15.756
16.6746
17.6394
18.6594
19.7356
20.8638
22.033
23.2234
24.4056
25.54
26.5787
27.4681
28.1536
28.5861
28.7294
28.5687
28.1202
27.421
26.5206
25.4738
24.3338
23.1483
21.956
20.786
19.6574
18.581
17.5606
16.5943
15.6734
14.7911
13.9438
13.1317
12.3595
11.6359
10.9733
10.3869
9.89296
9.50814
9.24735
9.1226
9.14191
9.30364
9.59859
10.0139
10.5339
11.1422
11.8223
12.5599
13.3434
14.1651
15.0217
15.9137
16.8459
17.8257
18.8613
19.9522
21.0931
22.2713
23.4649
24.6425
25.7626
26.7759
27.6281
28.2653
28.6404
28.7209
28.4984
27.9946
27.2498
26.3154
25.2462
24.0946
22.9067
21.7193
20.5593
19.4441
18.3827
17.3779
16.4261
15.5184
14.6479
13.8112
13.0086
12.245
11.5292
10.8737
10.2933
9.80453
9.42373
9.16567
9.04227
8.63734
8.81435
9.13703
9.59035
10.1559
10.8135
11.5434
12.3278
13.1521
14.0061
14.8843
15.7861
16.7157
17.6804
18.6885
19.7421
20.8388
21.9693
23.1156
24.2497
25.3344
26.3242
27.1685
27.8166
28.2236
28.3577
28.207
27.7847
27.1233
26.2682
25.2703
24.1799
23.0421
21.8935
20.7613
19.6632
18.6078
17.5972
16.6293
15.6955
14.7892
13.9072
13.0513
12.228
11.4489
10.7293
10.088
9.54507
9.12061
8.83249
8.69472
8.71601
8.89468
9.22046
9.67815
10.2491
10.9131
11.6502
12.4425
13.2753
14.1386
15.0271
15.9403
16.8825
17.8611
18.8835
19.9507
21.059
22.1976
23.3464
24.4756
25.546
26.511
27.3196
27.9215
28.2743
28.3498
28.1412
27.6665
26.9616
26.0736
25.0538
23.9517
22.811
21.6665
20.5435
19.4576
18.416
17.4196
16.4653
15.5438
14.6485
13.7765
12.9297
12.1148
11.3434
10.6308
9.99569
9.45808
9.0378
8.75254
8.61617
8.27152
8.46651
8.82199
9.32053
9.94042
10.6579
11.4493
12.2932
13.1718
14.0723
14.9872
15.9143
16.8566
17.8213
18.8155
19.8427
20.9025
21.9873
23.0806
24.1567
25.1813
26.1124
26.9034
27.5081
27.8862
28.0104
27.8705
27.4778
26.8603
26.0587
25.1196
24.0891
23.0087
21.9123
20.8249
19.7625
18.7317
17.7331
16.763
15.8141
14.8802
13.9595
13.0552
12.1762
11.3368
10.5558
9.85564
9.26028
8.79346
8.47618
8.32453
8.34793
8.54465
8.90333
9.4064
10.0319
10.7558
11.5544
12.406
13.2929
14.2022
15.1266
16.0641
17.0179
17.9951
19.002
20.0414
21.1115
22.2033
23.2982
24.3689
25.3794
26.2866
27.0438
27.6052
27.933
28.0031
27.8098
27.3683
26.7098
25.877
24.9167
23.8745
22.7907
21.6974
20.6179
19.5663
18.5479
17.5617
16.604
15.6664
14.7427
13.8312
12.9356
12.0648
11.2329
10.459
9.76512
9.17521
8.71271
8.39842
8.24825
7.93611
8.14973
8.53918
9.08454
9.76078
10.5404
11.3958
12.3021
13.2383
14.1889
15.1442
16.0998
17.0574
18.0232
19.0032
20.0026
21.0226
22.0583
23.0934
24.1048
25.0621
25.9277
26.6602
27.2184
27.5669
27.6813
27.5521
27.1897
26.6192
25.8765
25.0027
24.0392
23.0229
21.9839
20.9444
19.9202
18.9155
17.9289
16.9553
15.9887
15.0241
14.0608
13.1046
12.1668
11.2643
10.4194
9.65819
9.00852
8.49783
8.15034
7.98433
8.00991
8.22532
8.6181
9.16813
9.8501
10.6362
11.4988
12.4127
13.3568
14.3158
15.2797
16.2447
17.2124
18.189
19.1801
20.19
21.2189
22.2606
23.2959
24.3013
25.2449
26.088
26.7889
27.3073
27.6097
27.6746
27.4965
27.0894
26.4811
25.7092
24.8153
23.8401
22.8197
21.7822
20.7497
19.7348
18.7408
17.7651
16.8022
15.8456
14.89
13.9354
12.9875
12.0575
11.1625
10.3246
9.56979
8.92571
8.4195
8.07512
7.91066
7.61152
7.84395
8.26752
8.85972
9.5922
10.4338
11.3534
12.3226
13.3174
14.3199
15.3184
16.3051
17.2805
18.249
19.216
20.188
21.1672
22.1497
23.1231
24.0674
24.9556
25.7545
26.4278
26.9395
27.2586
27.3632
27.2446
26.9123
26.3889
25.7056
24.8984
24.0035
23.0537
22.0753
21.0877
20.1026
19.1235
18.1477
17.1688
16.1822
15.1842
14.1757
13.1661
12.1685
11.2026
10.2938
9.47157
8.76766
8.21307
7.83518
7.65465
7.68244
7.91673
8.34374
8.94075
9.67909
10.5273
11.454
12.4307
13.4332
14.4436
15.4499
16.4448
17.4288
18.4064
19.3827
20.3633
21.3497
22.3364
23.3094
24.2475
25.1225
25.9004
26.5446
27.0201
27.2974
27.3571
27.1941
26.8214
26.2634
25.5532
24.7271
23.8209
22.8664
21.8888
20.9063
19.9289
18.9587
17.992
17.0221
16.0439
15.0538
14.0533
13.0515
12.0615
11.103
10.2012
9.38555
8.68738
8.13742
7.76277
7.58385
7.28406
7.53512
7.9919
8.62919
9.41544
10.3162
11.2971
12.3267
13.3783
14.431
15.4705
16.4886
17.483
18.4558
19.4123
20.3594
21.3001
22.2321
23.1458
24.0245
24.845
25.5786
26.1942
26.6607
26.9511
27.0463
26.9378
26.6348
26.157
25.5316
24.7895
23.9619
23.0769
22.157
21.2185
20.2702
19.3141
18.3467
17.361
16.3532
15.3219
14.2706
13.2094
12.1541
11.1274
10.1575
9.27722
8.5214
7.92443
7.51684
7.32183
7.35186
7.60486
8.0652
8.70741
9.49963
10.407
11.3951
12.4319
13.4908
14.5508
15.5975
16.6227
17.6244
18.6046
19.5685
20.5224
21.4686
22.4034
23.3159
24.1881
24.9959
25.7101
26.2993
26.7331
26.986
27.0407
26.8924
26.553
26.0441
25.3941
24.6343
23.7958
22.9057
21.9857
21.0507
20.1083
19.1593
18.1993
17.2208
16.2201
15.1959
14.1518
13.0978
12.0498
11.0303
10.0675
9.19384
8.44389
7.85169
7.44747
7.25415
6.94333
7.21183
7.69896
8.3768
9.21097
10.1642
11.1997
12.2835
13.3867
14.4862
15.5656
16.6147
17.629
18.6083
19.5575
20.4836
21.3905
22.2768
23.1354
23.9528
24.7095
25.3816
25.9427
26.3665
26.63
26.7161
26.6173
26.3418
25.907
25.3361
24.6553
23.8908
23.0662
22.2002
21.3058
20.3898
19.4527
18.4906
17.4964
16.4667
15.4027
14.3103
13.2012
12.0936
11.0125
9.98838
9.05645
8.25429
7.61908
7.18422
6.97557
7.00777
7.27824
7.76901
8.45187
9.29209
10.2521
11.2946
12.3856
13.4958
14.6021
15.688
16.7433
17.7636
18.7485
19.7034
20.6347
21.5453
22.4331
23.2896
24.1003
24.845
25.4993
26.0365
26.4311
26.6611
26.7112
26.5768
26.2688
25.8061
25.2129
24.5157
23.7407
22.9107
22.0436
21.1513
20.2394
19.3077
18.3513
17.3627
16.3389
15.2811
14.1952
13.0928
11.9924
10.9184
9.90133
8.97609
8.1799
7.54958
7.11817
6.91126
6.58115
6.8644
7.37682
8.08805
8.96139
9.95757
11.0379
12.1669
13.314
14.4544
15.5698
16.6479
17.6821
18.6695
19.615
20.5251
21.4038
22.2509
23.061
23.8235
24.5226
25.1389
25.6503
26.0351
26.2738
26.3517
26.2616
26.0113
25.6157
25.0943
24.469
23.7614
22.9906
22.1719
21.3153
20.4258
19.503
18.5428
17.5387
16.4876
15.3933
14.264
13.1134
11.9617
10.8354
9.76671
8.79261
7.95254
7.2858
6.82816
6.6079
6.64196
6.92721
7.44331
8.15961
9.03905
10.042
11.1294
12.2654
13.4193
14.5661
15.6874
16.7709
17.8099
18.8016
19.7512
20.6649
21.5458
22.393
23.2002
23.9559
24.6437
25.2436
25.7336
26.0925
26.3015
26.3473
26.2256
25.9465
25.526
24.9845
24.3442
23.6264
22.8499
22.0291
21.1733
20.2863
19.3672
18.4113
17.4113
16.365
15.2762
14.1528
13.0087
11.8638
10.7446
9.68302
8.71566
7.88162
7.21983
6.76568
6.54721
6.19168
6.48578
7.01637
7.7512
8.65199
9.67828
10.7905
11.9522
13.1321
14.3042
15.4486
16.5514
17.6035
18.5998
19.5445
20.4434
21.3003
22.1153
22.8847
23.6003
24.2496
24.817
25.2848
25.6352
25.8519
25.9224
25.8401
25.6119
25.2508
24.7729
24.1959
23.5374
22.8125
22.0332
21.2073
20.3381
19.4249
18.4641
17.4498
16.3798
15.2601
14.1013
12.9188
11.7344
10.5755
9.47542
8.47181
7.60516
6.91608
6.44198
6.21315
6.24861
6.5447
7.07898
7.81888
8.72579
9.75882
10.878
12.0468
13.2333
14.4115
15.5614
16.669
17.725
18.7242
19.6717
20.5728
21.4306
22.2446
23.0104
23.719
24.3575
24.91
25.3586
25.6859
25.8764
25.9184
25.8082
25.5546
25.1714
24.6753
24.0845
23.4161
22.6852
21.903
21.0766
20.2086
19.2978
18.3398
17.3285
16.2624
15.1476
13.9943
12.8181
11.6404
10.4886
9.39553
8.39868
7.53808
6.85396
6.38337
6.15634
5.7708
6.0707
6.61044
7.35653
8.27003
9.31022
10.4376
11.6159
12.8135
14.0042
15.1671
16.2867
17.3519
18.3553
19.3006
20.1921
21.0327
21.8227
22.5595
23.2366
23.8445
24.3709
24.8018
25.1228
25.3208
25.3848
25.309
25.0998
24.7679
24.3266
23.7901
23.1721
22.4846
21.7369
20.9347
20.0805
19.1737
18.2113
17.189
16.1054
14.9688
13.7917
12.591
11.3891
10.2142
9.09927
8.08211
7.20314
6.5033
6.02082
5.78733
5.82358
6.12545
6.66884
7.41996
8.33952
9.38642
10.5208
11.7059
12.9101
14.1067
15.2748
16.3986
17.467
18.4725
19.4196
20.3121
21.1525
21.9406
22.6731
23.3431
23.9407
24.4534
24.867
25.1676
25.3424
25.3813
25.2809
25.0491
24.6975
24.2398
23.6904
23.063
22.3692
21.6178
20.8141
19.96
19.0544
18.0939
17.0737
15.9933
14.8612
13.6893
12.4946
11.2995
10.1315
9.02369
8.01324
7.14028
6.44536
5.96636
5.73465
5.31565
5.61529
6.15336
6.89599
7.80454
8.83909
9.96118
11.1356
12.3316
13.5232
14.6892
15.8133
16.8828
17.8883
18.8323
19.7174
20.5452
21.3157
22.0267
22.6731
23.2477
23.7408
24.1415
24.4384
24.6207
24.6794
24.609
24.4152
24.1072
23.6958
23.192
22.6066
21.9488
21.2259
20.4422
19.5999
18.6988
17.7373
16.7128
15.6251
14.4846
13.305
12.1042
10.9047
9.73411
8.6248
7.6133
6.73905
6.0423
5.56112
5.3277
5.364
5.66556
6.20718
6.95473
7.86922
8.91036
10.0393
11.2206
12.423
13.6204
14.7914
15.9193
16.9915
17.9986
18.9437
19.829
20.6557
21.4236
22.1298
22.7691
23.3338
23.8142
24.1993
24.478
24.6399
24.6763
24.584
24.3703
24.0447
23.6184
23.1026
22.5081
21.8439
21.1167
20.3307
19.4876
18.5868
17.6263
16.6034
15.5187
14.3823
13.2078
12.013
10.8201
9.65645
8.55409
7.54919
6.68083
5.98889
5.51112
5.27944
4.82437
5.11678
5.64079
6.36313
7.24645
8.25267
9.34539
10.4914
11.6617
12.8314
13.9799
15.0906
16.15
17.1473
18.0835
18.9589
19.7736
20.5267
21.2159
21.8372
22.3846
22.8507
23.2269
23.5042
23.6739
23.7282
23.662
23.4808
23.1921
22.8047
22.3274
21.7685
21.1352
20.4333
19.6664
18.8369
17.9454
16.9918
15.9761
14.8995
13.7735
12.6127
11.4349
10.2621
9.12045
8.0406
7.05701
6.20705
5.52922
5.06043
4.83253
4.86803
5.16226
5.68968
6.41673
7.30577
8.31837
9.41778
10.5705
11.7471
12.9224
14.0757
15.19
16.2518
17.2508
18.1877
19.0628
19.8758
20.6257
21.3099
21.9241
22.4621
22.9164
23.2785
23.5395
23.6909
23.7254
23.6398
23.4407
23.1363
22.7353
22.2468
21.6791
21.0392
20.3327
19.563
18.7321
17.8403
16.8874
15.873
14.7992
13.6773
12.5215
11.3496
10.1833
9.0485
7.97542
6.99822
6.15393
5.48072
5.0152
4.78896
4.29599
4.57346
5.06984
5.75337
6.58904
7.54159
8.57764
9.6669
10.7828
11.9026
13.007
14.0801
15.1085
16.0811
16.9964
17.8525
18.6476
19.3799
20.0466
20.6439
21.1669
21.6094
21.9646
22.2253
22.3843
22.4349
22.3723
22.2016
21.9293
21.5626
21.1085
20.5737
19.964
19.2842
18.5381
17.7282
16.8564
15.9247
14.9353
13.8913
12.8046
11.6896
10.5631
9.44569
8.36135
7.33798
6.40708
5.60301
4.9615
4.51729
4.3009
4.33467
4.61384
5.1134
5.80134
6.64239
7.60099
8.64341
9.73907
10.8611
11.9864
13.0954
14.1721
15.2026
16.1772
17.0932
17.9488
18.742
19.4709
20.1325
20.7229
21.2369
21.6685
22.0109
22.2569
22.3995
22.4323
22.3524
22.1657
21.8792
21.5001
21.0356
20.4923
19.8761
19.1916
18.4424
17.6307
16.7585
15.8274
14.8394
13.7982
12.7156
11.6056
10.4849
9.3738
8.29599
7.27906
6.35421
5.55547
4.91829
4.47713
4.26231
3.73029
3.98471
4.43913
5.0643
5.82853
6.70027
7.64994
8.65093
9.67995
10.717
11.7452
12.7501
13.7195
14.6429
15.5163
16.3355
17.097
17.7977
18.4342
19.0025
19.4982
19.9159
20.25
20.4944
20.6431
20.6901
20.6311
20.4707
20.2148
19.8692
19.4398
18.9322
18.3516
17.7023
16.9882
16.2127
15.3791
14.4909
13.5529
12.5702
11.5539
10.517
9.47482
8.44526
7.44943
6.5118
5.66008
4.92479
4.33796
3.93118
3.73268
3.7637
4.01965
4.47695
5.10614
5.87528
6.75257
7.70814
8.71511
9.74991
10.7923
11.825
12.8335
13.8052
14.7309
15.6052
16.4238
17.1834
17.8807
18.5122
19.074
19.5613
19.9691
20.2914
20.5226
20.6567
20.6878
20.6132
20.4386
20.1698
19.813
19.374
18.8585
18.2716
17.6177
16.9005
16.1233
15.2892
14.4018
13.4655
12.4858
11.4736
10.4416
9.40499
8.38138
7.39164
6.45995
5.61378
4.88335
4.30045
3.89643
3.69934
3.12779
3.35095
3.74897
4.29609
4.96476
5.72793
6.56051
7.44011
8.34731
9.26554
10.1808
11.0813
11.9569
12.7991
13.6011
14.3569
15.0616
15.7109
16.3009
16.8274
17.2858
17.6714
17.9792
18.204
18.3405
18.3835
18.3289
18.1811
17.9452
17.6263
17.2295
16.7597
16.2216
15.6197
14.958
14.2408
13.4725
12.658
11.8042
10.9179
10.0085
9.08656
8.16468
7.2577
6.38315
5.56144
4.81595
4.17261
3.65899
3.30259
3.1284
3.15565
3.38014
3.78066
4.33126
5.00423
5.77228
6.61009
7.49505
8.40751
9.33068
10.2503
11.1545
12.0328
12.8774
13.6804
14.4358
15.1388
15.785
16.3705
16.8909
17.3419
17.7185
18.0159
18.2289
18.3525
18.3815
18.3131
18.1527
17.9054
17.5765
17.171
16.6941
16.1503
15.5442
14.8797
14.161
13.3924
12.579
11.7273
10.8442
9.93875
9.02146
8.10469
7.20309
6.33396
5.51751
4.77687
4.13777
3.62756
3.27356
3.1006
2.48969
2.67372
3.00152
3.45171
4.00168
4.62952
5.31507
6.04062
6.79094
7.55328
8.31703
9.07351
9.81564
10.5382
11.2318
11.8893
12.5051
13.0743
13.5926
14.0557
14.4591
14.7983
15.069
15.2666
15.3866
15.4242
15.376
15.2458
15.0381
14.7573
14.408
13.9944
13.5212
12.9925
12.4128
11.7866
11.1189
10.4158
9.68495
8.93499
8.17198
7.40349
6.63877
5.8891
5.16804
4.49161
3.87839
3.34923
2.92655
2.63295
2.48925
2.51175
2.69687
3.0267
3.47973
4.03323
4.66508
5.35499
6.08503
6.83985
7.60651
8.3743
9.13441
9.8797
10.6045
11.2992
11.9565
12.5709
13.1376
13.652
14.1099
14.5069
14.8385
15.1003
15.2879
15.3968
15.4225
15.3625
15.2216
15.0041
14.7148
14.3581
13.9384
13.4603
12.928
12.346
11.7187
11.0511
10.3493
9.62101
8.87421
8.11489
7.35049
6.59017
5.84504
5.1285
4.45641
3.84718
3.32149
2.90158
2.60994
2.46723
1.81774
1.95557
2.20075
2.53709
2.94768
3.4162
3.92786
4.4698
5.03115
5.60304
6.17844
6.75202
7.32019
7.88116
8.4245
8.94298
9.43111
9.88426
10.2982
10.669
10.9925
11.265
11.4826
11.6414
11.7379
11.7681
11.7292
11.6243
11.4571
11.2313
10.9507
10.619
10.2402
9.81813
9.35697
8.86101
8.33513
7.78523
7.21925
6.64622
6.06846
5.49002
4.9167
4.35606
3.8176
3.31279
2.85515
2.46006
2.14419
1.92454
1.81689
1.83376
1.97238
2.21906
2.55752
2.97071
3.44222
3.95714
4.50247
5.06727
5.64256
6.22127
6.79805
7.36932
7.93234
8.47675
8.99534
9.48258
9.93382
10.3448
10.7116
11.0301
11.2966
11.5072
11.6582
11.746
11.7667
11.7186
11.6052
11.4304
11.1979
10.9115
10.575
10.1924
9.76767
9.30483
8.80822
8.28269
7.73422
7.17094
6.60077
6.02606
5.45087
4.88091
4.32371
3.78863
3.28705
2.83237
2.43984
2.12603
1.90782
1.8009
1.11407
1.19982
1.35216
1.56086
1.81527
2.10521
2.42152
2.75633
3.10313
3.45678
3.81348
4.17094
4.52862
4.88805
5.2396
5.57737
5.8971
6.19529
6.46875
6.71444
6.92942
7.11083
7.25588
7.36189
7.42629
7.44645
7.42039
7.35028
7.23869
7.08815
6.90134
6.68101
6.43005
6.15141
5.84817
5.52362
5.18143
4.82622
4.46459
4.10463
3.745
3.38662
3.03219
2.68585
2.35315
2.04102
1.75775
1.51287
1.31683
1.18031
1.11332
1.12383
1.21006
1.36332
1.57331
1.82931
2.12108
2.43938
2.77628
3.12523
3.48103
3.83993
4.19968
4.55988
4.92091
5.27335
5.61134
5.93063
6.22768
6.4993
6.74244
6.95416
7.13163
7.2721
7.37295
7.43163
7.44556
7.4134
7.33771
7.22109
7.06613
6.87554
6.65212
6.39878
6.11846
5.81426
5.48943
5.14768
4.79372
4.43444
4.07659
3.719
3.36269
3.01035
2.66612
2.33549
2.02533
1.74386
1.50055
1.30576
1.17012
1.10358
0.38075
0.410148
0.46229
0.533565
0.620219
0.718677
0.825741
0.938692
1.05532
1.17395
1.29347
1.41351
1.53496
1.66102
1.78576
1.90648
2.02143
2.12919
2.22847
2.31802
2.39665
2.46317
2.51647
2.55549
2.5792
2.58663
2.57703
2.55121
2.51015
2.45484
2.38636
2.30582
2.2144
2.11331
2.00381
1.88724
1.76508
1.63927
1.51303
1.39115
1.27047
1.15038
1.03143
0.914887
0.802577
0.696858
0.600605
0.517151
0.450166
0.403424
0.380452
0.384057
0.413617
0.466065
0.537768
0.624947
0.724005
0.83172
0.945353
1.06268
1.18203
1.3023
1.42321
1.54591
1.67267
1.79781
1.91868
2.03353
2.14094
2.23959
2.32825
2.40571
2.4708
2.52243
2.55955
2.58117
2.5863
2.57446
2.54659
2.50369
2.44677
2.37692
2.29528
2.20303
2.10138
1.99159
1.87499
1.75307
1.62786
1.50287
1.38182
1.26184
1.14243
1.02416
0.9083
0.79666
0.691585
0.595924
0.512987
0.44642
0.399972
0.377151
)
;

boundaryField
{
    top
    {
        type            fixedValue;
        value           uniform 0;
    }
    bottom
    {
        type            fixedValue;
        value           uniform 36.5;
    }
    frontAndBack
    {
        type            empty;
    }
    left_cyc
    {
        type            cyclic;
    }
    right_cyc
    {
        type            cyclic;
    }
}


// ************************************************************************* //
