/*--------------------------------*- C++ -*----------------------------------*\
| =========                 |                                                 |
| \\      /  F ield         | OpenFOAM: The Open Source CFD Toolbox           |
|  \\    /   O peration     | Version:  2.3.0                                 |
|   \\  /    A nd           | Web:      www.OpenFOAM.org                      |
|    \\/     M anipulation  |                                                 |
\*---------------------------------------------------------------------------*/
FoamFile
{
    version     2.0;
    format      ascii;
    class       volScalarField;
    location    "14000";
    object      T;
}
// * * * * * * * * * * * * * * * * * * * * * * * * * * * * * * * * * * * * * //

dimensions      [0 0 0 1 0 0 0];

internalField   nonuniform List<scalar> 
765
(
31.4904
31.6146
31.8321
32.1311
32.5022
32.9357
33.4108
33.8464
34.2709
34.6794
35.0451
35.3213
35.4458
35.3644
35.1167
34.7669
34.3655
33.9438
33.5103
33.0402
32.5952
32.209
31.8926
31.655
31.5075
31.4642
31.5369
31.7095
31.9689
32.3044
32.707
33.1628
33.6221
34.0537
34.4724
34.8646
35.1936
35.4047
35.4327
35.2627
34.958
34.5775
34.1628
33.734
33.2861
32.82
32.4017
32.0482
31.7688
31.5736
31.4751
23.158
23.4531
23.9672
24.6722
25.5471
26.5749
27.7331
28.973
30.2061
31.3804
32.4159
33.1991
33.562
33.323
32.6176
31.6294
30.4796
29.2598
28.0272
26.8292
25.7662
24.8544
24.1084
23.5474
23.1973
23.094
23.2673
23.6763
24.2884
25.0794
26.0313
27.1279
28.345
29.5806
30.7884
31.907
32.8352
33.4401
33.523
33.0316
32.1709
31.0899
29.8963
28.6592
27.4287
26.3005
25.3101
24.4767
23.8178
23.356
23.1216
17.2526
17.6502
18.3394
19.2779
20.4363
21.7979
23.352
25.081
26.9049
28.7041
30.3013
31.4998
32.0537
31.6882
30.6099
29.0859
27.3155
25.4858
23.7277
22.1305
20.7238
19.518
18.5267
17.7759
17.3045
17.1653
17.399
17.949
18.7668
19.8164
21.0755
22.5329
24.1788
25.9624
27.7904
29.5156
30.9438
31.867
31.9941
31.2444
29.9239
28.2561
26.4372
24.6302
22.9407
21.434
20.1231
19.0185
18.1398
17.5196
17.2036
13.5333
14.0025
14.8094
15.8917
17.2061
18.7342
20.4801
22.4598
24.6106
26.7784
28.7364
30.207
30.8731
30.4351
29.1155
27.241
25.0978
22.9266
20.8974
19.1031
17.5283
16.1653
15.0269
14.1507
13.5949
13.4309
13.7068
14.3543
15.3049
16.5052
17.9241
19.5555
21.4099
23.4878
25.6699
27.7677
29.5267
30.6511
30.8029
29.8957
28.271
26.2346
24.0534
21.9354
20.0165
18.3272
16.8532
15.5949
14.5773
13.849
13.4758
11.3372
11.8808
12.8066
14.0222
15.4584
17.085
18.9139
20.9895
23.2571
25.5618
27.6605
29.2349
29.9322
29.4762
28.0665
26.0547
23.7709
21.4766
19.3447
17.4718
15.8049
14.3258
13.0552
12.0539
11.4106
11.2215
11.5408
12.2889
13.3695
14.6996
16.2288
17.9484
19.8882
22.0706
24.3799
26.6198
28.5081
29.7036
29.8606
28.9033
27.1607
24.982
22.6685
20.4401
18.431
16.6564
15.0777
13.6929
12.5427
11.7037
11.2712
10.0285
10.6645
11.7397
13.121
14.7011
16.4253
18.2996
20.3797
22.6212
24.8903
26.9527
28.4885
29.1538
28.7212
27.3501
25.3746
23.127
20.8637
18.7398
16.8288
15.0762
13.4626
12.0285
10.8701
10.1176
9.89764
10.2705
11.1446
12.3882
13.8772
15.529
17.3203
19.2861
21.4523
23.7277
25.9312
27.7826
28.9395
29.0875
28.1676
26.463
24.3206
22.0421
19.8354
17.8116
15.9785
14.2892
12.7519
11.4358
10.4581
9.95217
9.16351
9.91019
11.1663
12.7524
14.515
16.3649
18.2868
20.3229
22.4516
24.5734
26.4824
27.8866
28.4828
28.097
26.8478
25.0236
22.9275
20.7887
18.7306
16.7895
14.9275
13.1423
11.5049
10.1554
9.27162
9.01499
9.4517
10.4775
11.9204
13.6083
15.4173
17.2971
19.2668
21.3494
23.4909
25.5406
27.2451
28.2941
28.4253
27.5961
26.032
24.044
21.9069
19.7992
17.796
15.8944
14.0629
12.3335
10.8138
9.66829
9.07481
8.47962
9.34694
10.7989
12.609
14.5782
16.58
18.5676
20.5384
22.5106
24.4223
26.1113
27.339
27.8577
27.5224
26.4322
24.8235
22.9444
20.978
19.0084
17.031
15.0344
13.0528
11.1917
9.6353
8.60882
8.31151
8.81848
10.0089
11.6682
13.5766
15.5681
17.5609
19.5313
21.5006
23.4546
25.2831
26.7813
27.6952
27.8091
27.0873
25.7164
23.9506
22.0136
20.0419
18.0722
16.0791
14.0797
12.1352
10.3936
9.06649
8.37711
7.8332
8.82086
10.4561
12.4717
14.6321
16.7729
18.8079
20.7148
22.5332
24.2344
25.7035
26.7589
27.2048
26.9164
25.9807
24.5869
22.9255
21.1292
19.2457
17.2465
15.1296
12.9655
10.8991
9.15054
7.98465
7.64324
8.22417
9.57264
11.4316
13.5431
15.7053
17.7948
19.7565
21.615
23.3826
24.9889
26.2824
27.0664
27.1644
26.5446
25.3639
23.8209
22.0839
20.2457
18.3142
16.2481
14.0911
11.9477
10.0021
8.50298
7.71531
7.12503
8.20201
9.96259
12.1152
14.407
16.6512
18.7284
20.5946
22.2954
23.8235
25.1051
26.0115
26.3946
26.1467
25.3448
24.1352
22.6548
20.9917
19.1673
17.1448
14.9352
12.6436
10.4398
8.56135
7.29447
6.91733
7.5566
9.01697
11.0098
13.2583
15.5422
17.7103
19.672
21.4504
23.0689
24.4884
25.6057
26.2769
26.3613
25.8298
24.8132
23.4589
21.8842
20.1461
18.2374
16.1079
13.8363
11.5577
9.47605
7.85738
6.99443
6.28728
7.39194
9.17943
11.3571
13.6777
15.9513
18.04
19.8812
21.5059
22.9125
24.0554
24.8482
25.1824
24.9663
24.2672
23.1951
21.8438
20.2688
18.4808
16.4538
14.2161
11.8944
9.66466
7.76003
6.46456
6.07313
6.73423
8.22338
10.2419
12.5174
14.8326
17.026
18.9821
20.7105
22.2281
23.5126
24.4971
25.0812
25.1547
24.6918
23.7996
22.5833
21.1203
19.445
17.551
15.4022
13.1
10.7936
8.68681
7.04016
6.15136
5.27601
6.32009
7.99655
10.0385
12.2282
14.3972
16.4133
18.2023
19.7623
21.0817
22.1268
22.8384
23.1372
22.9443
22.3189
21.3442
20.0847
18.5798
16.8452
14.8832
12.7419
10.5456
8.45262
6.66746
5.4461
5.07244
5.70156
7.10238
8.99365
11.1328
13.3291
15.4351
17.3332
19.0058
20.4473
21.6364
22.5267
23.048
23.1137
22.7002
21.8964
20.7772
19.3957
17.7791
15.936
13.8692
11.6803
9.509
7.53506
5.98884
5.14594
4.06185
4.93739
6.3339
8.0355
9.87585
11.7309
13.5048
15.1282
16.557
17.7598
18.7019
19.3365
19.6024
19.4309
18.8746
17.9988
16.8535
15.4757
13.8963
12.155
10.3129
8.46086
6.71437
5.2281
4.20609
3.89012
4.4207
5.5905
7.16466
8.95282
10.8124
12.636
14.3377
15.8659
17.1848
18.2631
19.0606
19.5238
19.5821
19.2144
18.4958
17.4837
16.2211
14.7405
13.0743
11.2724
9.41144
7.59277
5.94961
4.66042
3.95161
2.62699
3.22078
4.15998
5.30051
6.5402
7.81344
9.08329
10.3098
11.4171
12.3603
13.1017
13.6011
13.8107
13.6757
13.2381
12.549
11.6498
10.5782
9.37659
8.11136
6.83774
5.58646
4.41548
3.41723
2.72569
2.50976
2.87148
3.66108
4.7169
5.9164
7.17718
8.44897
9.70756
10.8797
11.9093
12.7569
13.3845
13.7488
13.7946
13.5051
12.9396
12.1431
11.1547
10.0118
8.76246
7.49223
6.22448
5.003
3.90183
3.03347
2.55152
0.96094
1.17704
1.5128
1.91292
2.34262
2.78844
3.26341
3.7699
4.24595
4.66157
4.99342
5.21891
5.31387
5.25272
5.05499
4.74577
4.34783
3.88417
3.38263
2.89548
2.44585
2.01237
1.60316
1.24791
0.997194
0.91784
1.05041
1.33532
1.70901
2.12632
2.56288
3.01634
3.51773
4.013
4.4617
4.83851
5.12084
5.28566
5.30641
5.17526
4.92031
4.56493
4.13154
3.64375
3.13369
2.67283
2.23263
1.80894
1.42108
1.10921
0.933156
)
;

boundaryField
{
    top
    {
        type            fixedValue;
        value           uniform 0;
    }
    bottom
    {
        type            fixedValue;
        value           uniform 36.5;
    }
    frontAndBack
    {
        type            empty;
    }
    left_cyc
    {
        type            cyclic;
    }
    right_cyc
    {
        type            cyclic;
    }
}


// ************************************************************************* //
