/*--------------------------------*- C++ -*----------------------------------*\
| =========                 |                                                 |
| \\      /  F ield         | OpenFOAM: The Open Source CFD Toolbox           |
|  \\    /   O peration     | Version:  2.3.0                                 |
|   \\  /    A nd           | Web:      www.OpenFOAM.org                      |
|    \\/     M anipulation  |                                                 |
\*---------------------------------------------------------------------------*/
FoamFile
{
    version     2.0;
    format      ascii;
    class       volVectorField;
    location    "14000";
    object      U;
}
// * * * * * * * * * * * * * * * * * * * * * * * * * * * * * * * * * * * * * //

dimensions      [0 1 -1 0 0 0 0];

internalField   nonuniform List<vector> 
3060
(
(6.05287e-06 0 -4.09549e-06)
(1.55403e-05 0 -3.95691e-06)
(2.47941e-05 0 -3.70065e-06)
(3.36809e-05 0 -3.33328e-06)
(4.20785e-05 0 -2.86539e-06)
(4.98783e-05 0 -2.31485e-06)
(5.69876e-05 0 -1.70979e-06)
(6.33303e-05 0 -1.08862e-06)
(6.88439e-05 0 -4.94641e-07)
(7.34715e-05 0 3.41522e-08)
(7.71466e-05 0 4.74461e-07)
(7.97735e-05 0 8.20476e-07)
(8.12132e-05 0 1.07958e-06)
(8.12754e-05 0 1.2646e-06)
(7.97458e-05 0 1.40109e-06)
(7.64297e-05 0 1.54957e-06)
(7.12563e-05 0 1.76993e-06)
(6.4353e-05 0 2.02751e-06)
(5.60577e-05 0 2.19623e-06)
(4.69298e-05 0 2.18812e-06)
(3.75993e-05 0 2.02386e-06)
(2.86218e-05 0 1.75679e-06)
(2.03773e-05 0 1.46277e-06)
(1.29643e-05 0 1.21256e-06)
(6.22955e-06 0 1.05096e-06)
(-1.36541e-07 0 9.97132e-07)
(-6.50922e-06 0 1.05566e-06)
(-1.32624e-05 0 1.22151e-06)
(-2.07008e-05 0 1.47462e-06)
(-2.89684e-05 0 1.76888e-06)
(-3.79538e-05 0 2.03268e-06)
(-4.7265e-05 0 2.19033e-06)
(-5.63385e-05 0 2.18959e-06)
(-6.45417e-05 0 2.01368e-06)
(-7.13211e-05 0 1.75545e-06)
(-7.63464e-05 0 1.53802e-06)
(-7.94967e-05 0 1.38877e-06)
(-8.08529e-05 0 1.24442e-06)
(-8.06127e-05 0 1.04715e-06)
(-7.89933e-05 0 7.73027e-07)
(-7.61832e-05 0 4.09697e-07)
(-7.23203e-05 0 -4.84152e-08)
(-6.75002e-05 0 -5.92693e-07)
(-6.1792e-05 0 -1.1968e-06)
(-5.52571e-05 0 -1.82066e-06)
(-4.79634e-05 0 -2.42051e-06)
(-3.99934e-05 0 -2.95878e-06)
(-3.14457e-05 0 -3.4087e-06)
(-2.24342e-05 0 -3.75356e-06)
(-1.30859e-05 0 -3.9835e-06)
(-3.53817e-06 0 -4.09224e-06)
(6.0639e-06 0 -4.07558e-06)
(1.55729e-05 0 -3.93444e-06)
(2.48455e-05 0 -3.67353e-06)
(3.37467e-05 0 -3.29983e-06)
(4.21528e-05 0 -2.82465e-06)
(4.99536e-05 0 -2.2671e-06)
(5.70548e-05 0 -1.6569e-06)
(6.33782e-05 0 -1.03394e-06)
(6.88584e-05 0 -4.42133e-07)
(7.34339e-05 0 8.12575e-08)
(7.70303e-05 0 5.1453e-07)
(7.95419e-05 0 8.53412e-07)
(8.08183e-05 0 1.1062e-06)
(8.06581e-05 0 1.28621e-06)
(7.88471e-05 0 1.4241e-06)
(7.52022e-05 0 1.58751e-06)
(6.96946e-05 0 1.82369e-06)
(6.24977e-05 0 2.07358e-06)
(5.40044e-05 0 2.2078e-06)
(4.48068e-05 0 2.16249e-06)
(3.5532e-05 0 1.97036e-06)
(2.67088e-05 0 1.69104e-06)
(1.86607e-05 0 1.4015e-06)
(1.14252e-05 0 1.16817e-06)
(4.80584e-06 0 1.02952e-06)
(-1.52797e-06 0 1.00048e-06)
(-7.95628e-06 0 1.08353e-06)
(-1.48444e-05 0 1.27123e-06)
(-2.24706e-05 0 1.53859e-06)
(-3.09297e-05 0 1.83301e-06)
(-4.00474e-05 0 2.08013e-06)
(-4.93839e-05 0 2.20732e-06)
(-5.83535e-05 0 2.16734e-06)
(-6.63284e-05 0 1.9625e-06)
(-7.27987e-05 0 1.70439e-06)
(-7.74864e-05 0 1.50491e-06)
(-8.03164e-05 0 1.36752e-06)
(-8.14062e-05 0 1.22203e-06)
(-8.09591e-05 0 1.01885e-06)
(-7.91897e-05 0 7.3804e-07)
(-7.62744e-05 0 3.67408e-07)
(-7.23401e-05 0 -9.75524e-08)
(-6.74726e-05 0 -6.46579e-07)
(-6.17345e-05 0 -1.25187e-06)
(-5.51828e-05 0 -1.87296e-06)
(-4.7883e-05 0 -2.46699e-06)
(-3.99155e-05 0 -2.99797e-06)
(-3.13776e-05 0 -3.44069e-06)
(-2.23814e-05 0 -3.77952e-06)
(-1.30525e-05 0 -4.00523e-06)
(-3.52663e-06 0 -4.11188e-06)
(9.12442e-06 0 -1.66162e-05)
(2.34991e-05 0 -1.64058e-05)
(3.77093e-05 0 -1.60194e-05)
(5.16616e-05 0 -1.54728e-05)
(6.52719e-05 0 -1.47844e-05)
(7.8462e-05 0 -1.39694e-05)
(9.11497e-05 0 -1.3034e-05)
(0.000103233 0 -1.19697e-05)
(0.000114574 0 -1.07507e-05)
(0.000124986 0 -9.3326e-06)
(0.000134227 0 -7.65144e-06)
(0.000142004 0 -5.62255e-06)
(0.000147967 0 -3.14398e-06)
(0.000151705 0 -1.18928e-07)
(0.000152732 0 3.45102e-06)
(0.000150507 0 7.29655e-06)
(0.00014458 0 1.08953e-05)
(0.000134792 0 1.38138e-05)
(0.00012132 0 1.58228e-05)
(0.000104905 0 1.68476e-05)
(8.67171e-05 0 1.68902e-05)
(6.79576e-05 0 1.60587e-05)
(4.96157e-05 0 1.47523e-05)
(3.21938e-05 0 1.34564e-05)
(1.56776e-05 0 1.25471e-05)
(-3.06398e-07 0 1.22306e-05)
(-1.62966e-05 0 1.25678e-05)
(-3.28276e-05 0 1.3492e-05)
(-5.02617e-05 0 1.47897e-05)
(-6.85925e-05 0 1.60775e-05)
(-8.72931e-05 0 1.68678e-05)
(-0.000105355 0 1.67693e-05)
(-0.00012157 0 1.56837e-05)
(-0.000134774 0 1.36093e-05)
(-0.000144253 0 1.06256e-05)
(-0.000149855 0 6.97084e-06)
(-0.000151753 0 3.09645e-06)
(-0.000150414 0 -4.7384e-07)
(-0.000146382 0 -3.48714e-06)
(-0.000140141 0 -5.95348e-06)
(-0.000132103 0 -7.97179e-06)
(-0.000122619 0 -9.6434e-06)
(-0.000111983 0 -1.10518e-05)
(-0.000100435 0 -1.22597e-05)
(-8.81597e-05 0 -1.33101e-05)
(-7.52951e-05 0 -1.42277e-05)
(-6.19426e-05 0 -1.50192e-05)
(-4.8186e-05 0 -1.56778e-05)
(-3.41067e-05 0 -1.61877e-05)
(-1.97922e-05 0 -1.65315e-05)
(-5.33873e-06 0 -1.66947e-05)
(9.1524e-06 0 -1.66698e-05)
(2.35791e-05 0 -1.6458e-05)
(3.78407e-05 0 -1.60689e-05)
(5.18432e-05 0 -1.55181e-05)
(6.55013e-05 0 -1.48233e-05)
(7.8734e-05 0 -1.39984e-05)
(9.14544e-05 0 -1.30472e-05)
(0.000103553 0 -1.19583e-05)
(0.000114882 0 -1.07025e-05)
(0.00012524 0 -9.23161e-06)
(0.000134374 0 -7.47745e-06)
(0.000141974 0 -5.35132e-06)
(0.000147674 0 -2.74952e-06)
(0.000151048 0 4.16774e-07)
(0.000151588 0 4.10611e-06)
(0.000148748 0 7.97854e-06)
(0.00014213 0 1.14912e-05)
(0.000131635 0 1.42508e-05)
(0.000117542 0 1.6067e-05)
(0.000100719 0 1.68921e-05)
(8.23747e-05 0 1.67329e-05)
(6.36908e-05 0 1.57659e-05)
(4.55677e-05 0 1.44301e-05)
(2.83896e-05 0 1.32007e-05)
(1.20461e-05 0 1.24174e-05)
(-3.88809e-06 0 1.22511e-05)
(-1.99639e-05 0 1.27349e-05)
(-3.66937e-05 0 1.3773e-05)
(-5.43763e-05 0 1.51148e-05)
(-7.28991e-05 0 1.63438e-05)
(-9.1619e-05 0 1.69754e-05)
(-0.000109461 0 1.66729e-05)
(-0.000125202 0 1.53877e-05)
(-0.00013775 0 1.3126e-05)
(-0.000146518 0 9.99834e-06)
(-0.000151441 0 6.28292e-06)
(-0.000152755 0 2.46509e-06)
(-0.000150961 0 -9.7369e-07)
(-0.000146592 0 -3.84794e-06)
(-0.000140113 0 -6.19763e-06)
(-0.000131917 0 -8.12542e-06)
(-0.000122341 0 -9.72976e-06)
(-0.000111662 0 -1.10899e-05)
(-0.000100109 0 -1.22645e-05)
(-8.78544e-05 0 -1.3293e-05)
(-7.50253e-05 0 -1.41965e-05)
(-6.17166e-05 0 -1.49791e-05)
(-4.80083e-05 0 -1.56317e-05)
(-3.39793e-05 0 -1.61378e-05)
(-1.97162e-05 0 -1.6479e-05)
(-5.31469e-06 0 -1.6641e-05)
(1.0229e-05 0 -3.16045e-05)
(2.63329e-05 0 -3.12695e-05)
(4.22218e-05 0 -3.06498e-05)
(5.77651e-05 0 -2.97637e-05)
(7.28324e-05 0 -2.86304e-05)
(8.72909e-05 0 -2.72625e-05)
(0.000101003 0 -2.56574e-05)
(0.000113822 0 -2.37916e-05)
(0.000125593 0 -2.16197e-05)
(0.000136157 0 -1.90768e-05)
(0.000145353 0 -1.60833e-05)
(0.000153028 0 -1.25486e-05)
(0.000159054 0 -8.37862e-06)
(0.000163332 0 -3.48676e-06)
(0.000165783 0 2.2028e-06)
(0.000166239 0 8.77268e-06)
(0.00016416 0 1.62393e-05)
(0.000158572 0 2.41714e-05)
(0.000148507 0 3.12829e-05)
(0.000133427 0 3.60533e-05)
(0.000113964 0 3.81738e-05)
(9.16747e-05 0 3.80696e-05)
(6.82914e-05 0 3.64853e-05)
(4.49626e-05 0 3.44589e-05)
(2.21072e-05 0 3.28963e-05)
(-3.88868e-07 0 3.23292e-05)
(-2.28832e-05 0 3.29213e-05)
(-4.57285e-05 0 3.44937e-05)
(-6.90222e-05 0 3.64974e-05)
(-9.23168e-05 0 3.80119e-05)
(-0.000114432 0 3.8002e-05)
(-0.000133623 0 3.57338e-05)
(-0.00014836 0 3.07986e-05)
(-0.00015807 0 2.35695e-05)
(-0.000163333 0 1.56015e-05)
(-0.00016513 0 8.1412e-06)
(-0.000164427 0 1.58404e-06)
(-0.000161735 0 -4.09449e-06)
(-0.000157209 0 -8.97428e-06)
(-0.000150928 0 -1.31304e-05)
(-0.000142993 0 -1.66491e-05)
(-0.00013354 0 -1.96243e-05)
(-0.000122725 0 -2.21462e-05)
(-0.000110712 0 -2.42939e-05)
(-9.76664e-05 0 -2.61314e-05)
(-8.37442e-05 0 -2.77026e-05)
(-6.90946e-05 0 -2.90292e-05)
(-5.38588e-05 0 -3.01122e-05)
(-3.81724e-05 0 -3.09386e-05)
(-2.2169e-05 0 -3.14899e-05)
(-5.98203e-06 0 -3.175e-05)
(1.02544e-05 0 -3.17104e-05)
(2.64061e-05 0 -3.13725e-05)
(4.23389e-05 0 -3.0747e-05)
(5.79197e-05 0 -2.98513e-05)
(7.30145e-05 0 -2.87034e-05)
(8.74865e-05 0 -2.73132e-05)
(0.000101193 0 -2.56749e-05)
(0.000113982 0 -2.37607e-05)
(0.000125695 0 -2.15212e-05)
(0.000136167 0 -1.88879e-05)
(0.000145234 0 -1.57783e-05)
(0.000152745 0 -1.21004e-05)
(0.000158572 0 -7.76105e-06)
(0.000162622 0 -2.67767e-06)
(0.000164811 0 3.22368e-06)
(0.000164927 0 1.00242e-05)
(0.000162319 0 1.76874e-05)
(0.000155973 0 2.56177e-05)
(0.000144958 0 3.23648e-05)
(0.00012894 0 3.6581e-05)
(0.000108805 0 3.81977e-05)
(8.62256e-05 0 3.77208e-05)
(6.2847e-05 0 3.59738e-05)
(3.96554e-05 0 3.40084e-05)
(1.69271e-05 0 3.26577e-05)
(-5.52968e-06 0 3.23675e-05)
(-2.80911e-05 0 3.32265e-05)
(-5.10768e-05 0 3.49795e-05)
(-7.44892e-05 0 3.69896e-05)
(-9.7725e-05 0 3.8278e-05)
(-0.000119449 0 3.7856e-05)
(-0.000137881 0 3.50621e-05)
(-0.000151646 0 2.95859e-05)
(-0.000160446 0 2.20905e-05)
(-0.000165008 0 1.41928e-05)
(-0.000166334 0 6.94907e-06)
(-0.00016532 0 6.19394e-07)
(-0.000162378 0 -4.85273e-06)
(-0.000157631 0 -9.54654e-06)
(-0.000151158 0 -1.354e-05)
(-0.000143068 0 -1.69226e-05)
(-0.000133495 0 -1.97887e-05)
(-0.000122597 0 -2.22265e-05)
(-0.000110533 0 -2.43119e-05)
(-9.74638e-05 0 -2.61053e-05)
(-8.3541e-05 0 -2.76464e-05)
(-6.89086e-05 0 -2.89529e-05)
(-5.37028e-05 0 -3.00225e-05)
(-3.80556e-05 0 -3.08402e-05)
(-2.20972e-05 0 -3.13862e-05)
(-5.95841e-06 0 -3.16439e-05)
(1.07067e-05 0 -4.8313e-05)
(2.75436e-05 0 -4.77957e-05)
(4.41046e-05 0 -4.68339e-05)
(6.02223e-05 0 -4.54463e-05)
(7.57304e-05 0 -4.36521e-05)
(9.0464e-05 0 -4.14638e-05)
(0.000104261 0 -3.88803e-05)
(0.000116963 0 -3.58833e-05)
(0.000128421 0 -3.24377e-05)
(0.000138496 0 -2.84945e-05)
(0.000147063 0 -2.3995e-05)
(0.000154015 0 -1.88736e-05)
(0.000159264 0 -1.30582e-05)
(0.000162738 0 -6.46365e-06)
(0.00016437 0 1.0332e-06)
(0.000164082 0 9.61388e-06)
(0.000161786 0 1.93956e-05)
(0.000157372 0 3.0147e-05)
(0.00015046 0 4.12303e-05)
(0.000139892 0 5.15342e-05)
(0.000124098 0 5.89367e-05)
(0.000103073 0 6.19304e-05)
(7.85282e-05 0 6.15887e-05)
(5.24657e-05 0 5.9746e-05)
(2.60325e-05 0 5.8001e-05)
(-4.10569e-07 0 5.73224e-05)
(-2.68409e-05 0 5.80097e-05)
(-5.32302e-05 0 5.97365e-05)
(-7.91953e-05 0 6.15037e-05)
(-0.000103551 0 6.16912e-05)
(-0.000124282 0 5.8466e-05)
(-0.000139725 0 5.08344e-05)
(-0.000149985 0 4.04098e-05)
(-0.000156655 0 2.92759e-05)
(-0.00016085 0 1.85143e-05)
(-0.000162921 0 8.74726e-06)
(-0.000162975 0 1.83129e-07)
(-0.0001611 0 -7.30566e-06)
(-0.000157372 0 -1.38963e-05)
(-0.000151862 0 -1.97064e-05)
(-0.000144643 0 -2.48178e-05)
(-0.000135806 0 -2.93006e-05)
(-0.000125463 0 -3.32194e-05)
(-0.000113743 0 -3.66322e-05)
(-0.00010079 0 -3.9587e-05)
(-8.67598e-05 0 -4.21176e-05)
(-7.18146e-05 0 -4.42409e-05)
(-5.61217e-05 0 -4.59568e-05)
(-3.98505e-05 0 -4.72528e-05)
(-2.31715e-05 0 -4.81105e-05)
(-6.25611e-06 0 -4.85133e-05)
(1.07229e-05 0 -4.84521e-05)
(2.75928e-05 0 -4.79282e-05)
(4.4181e-05 0 -4.69534e-05)
(6.03165e-05 0 -4.55452e-05)
(7.58289e-05 0 -4.37211e-05)
(9.05492e-05 0 -4.14912e-05)
(0.000104311 0 -3.88511e-05)
(0.000116954 0 -3.57795e-05)
(0.000128325 0 -3.22384e-05)
(0.000138283 0 -2.81766e-05)
(0.000146703 0 -2.35343e-05)
(0.00015348 0 -1.82454e-05)
(0.000158527 0 -1.2238e-05)
(0.000161772 0 -5.42406e-06)
(0.000163146 0 2.32881e-06)
(0.000162569 0 1.12058e-05)
(0.000159951 0 2.1274e-05)
(0.000155161 0 3.2208e-05)
(0.00014769 0 4.32911e-05)
(0.000136199 0 5.32259e-05)
(0.000119276 0 5.97357e-05)
(9.73888e-05 0 6.18989e-05)
(7.24347e-05 0 6.11172e-05)
(4.62833e-05 0 5.92245e-05)
(1.98682e-05 0 5.77046e-05)
(-6.56311e-06 0 5.73708e-05)
(-3.30125e-05 0 5.83847e-05)
(-5.94073e-05 0 6.02789e-05)
(-8.5223e-05 0 6.18994e-05)
(-0.000109049 0 6.15359e-05)
(-0.000128816 0 5.74066e-05)
(-0.000143134 0 4.8992e-05)
(-0.000152576 0 3.83229e-05)
(-0.000158754 0 2.72464e-05)
(-0.000162593 0 1.67027e-05)
(-0.00016435 0 7.23376e-06)
(-0.000164124 0 -1.0426e-06)
(-0.000161998 0 -8.28619e-06)
(-0.000158049 0 -1.46655e-05)
(-0.000152343 0 -2.02903e-05)
(-0.000144955 0 -2.52409e-05)
(-0.000135979 0 -2.95874e-05)
(-0.000125526 0 -3.33939e-05)
(-0.000113725 0 -3.67168e-05)
(-0.000100719 0 -3.96018e-05)
(-8.66593e-05 0 -4.20799e-05)
(-7.17053e-05 0 -4.41647e-05)
(-5.60201e-05 0 -4.58531e-05)
(-3.97691e-05 0 -4.71302e-05)
(-2.31189e-05 0 -4.79762e-05)
(-6.23728e-06 0 -4.83737e-05)
(1.08067e-05 0 -6.55474e-05)
(2.77845e-05 0 -6.4825e-05)
(4.44414e-05 0 -6.34781e-05)
(6.05841e-05 0 -6.15275e-05)
(7.60237e-05 0 -5.89949e-05)
(9.05778e-05 0 -5.58966e-05)
(0.000104073 0 -5.22373e-05)
(0.000116348 0 -4.80069e-05)
(0.000127256 0 -4.31805e-05)
(0.000136667 0 -3.77216e-05)
(0.00014447 0 -3.15857e-05)
(0.000150568 0 -2.47232e-05)
(0.00015488 0 -1.70799e-05)
(0.000157337 0 -8.59168e-06)
(0.000157885 0 8.2806e-07)
(0.000156511 0 1.12899e-05)
(0.000153274 0 2.28641e-05)
(0.000148257 0 3.54849e-05)
(0.00014142 0 4.89375e-05)
(0.000132516 0 6.26079e-05)
(0.000120662 0 7.50026e-05)
(0.00010402 0 8.37577e-05)
(8.17078e-05 0 8.71818e-05)
(5.56552e-05 0 8.69791e-05)
(2.79169e-05 0 8.57754e-05)
(-3.95642e-07 0 8.51997e-05)
(-2.86828e-05 0 8.57442e-05)
(-5.63373e-05 0 8.68744e-05)
(-8.22175e-05 0 8.69115e-05)
(-0.000104244 0 8.32123e-05)
(-0.00012056 0 7.41869e-05)
(-0.000132169 0 6.16363e-05)
(-0.000140879 0 4.78956e-05)
(-0.00014753 0 3.4417e-05)
(-0.000152352 0 2.17838e-05)
(-0.000155377 0 1.0204e-05)
(-0.000156519 0 -2.62779e-07)
(-0.000155723 0 -9.6902e-06)
(-0.000153007 0 -1.81856e-05)
(-0.000148427 0 -2.58314e-05)
(-0.000142053 0 -3.26881e-05)
(-0.000133972 0 -3.88077e-05)
(-0.000124282 0 -4.4238e-05)
(-0.000113102 0 -4.90222e-05)
(-0.000100566 0 -5.31958e-05)
(-8.68271e-05 0 -5.6782e-05)
(-7.20529e-05 0 -5.97898e-05)
(-5.64229e-05 0 -6.22135e-05)
(-4.01254e-05 0 -6.40369e-05)
(-2.33545e-05 0 -6.52396e-05)
(-6.30859e-06 0 -6.58032e-05)
(1.08116e-05 0 -6.57175e-05)
(2.78045e-05 0 -6.49843e-05)
(4.44698e-05 0 -6.36162e-05)
(6.06102e-05 0 -6.16328e-05)
(7.60328e-05 0 -5.90541e-05)
(9.05513e-05 0 -5.58939e-05)
(0.000103989 0 -5.21544e-05)
(0.000116182 0 -4.78226e-05)
(0.000126982 0 -4.28717e-05)
(0.000136259 0 -3.72638e-05)
(0.000143899 0 -3.09543e-05)
(0.000149807 0 -2.38944e-05)
(0.000153902 0 -1.60307e-05)
(0.000156117 0 -7.29843e-06)
(0.000156401 0 2.39187e-06)
(0.000154754 0 1.31486e-05)
(0.000151248 0 2.5018e-05)
(0.000145954 0 3.79012e-05)
(0.000138795 0 5.15356e-05)
(0.000129444 0 6.51406e-05)
(0.000116801 0 7.7022e-05)
(9.89415e-05 0 8.46942e-05)
(7.56643e-05 0 8.71491e-05)
(4.91502e-05 0 8.65921e-05)
(2.12527e-05 0 8.5505e-05)
(-7.09236e-06 0 8.52456e-05)
(-3.53211e-05 0 8.60767e-05)
(-6.27603e-05 0 8.7226e-05)
(-8.80578e-05 0 8.67442e-05)
(-0.000108989 0 8.1955e-05)
(-0.000124166 0 7.19758e-05)
(-0.000135097 0 5.90491e-05)
(-0.00014341 0 4.53288e-05)
(-0.000149753 0 3.20626e-05)
(-0.000154304 0 1.97032e-05)
(-0.000157059 0 8.42214e-06)
(-0.000157929 0 -1.75459e-06)
(-0.000156873 0 -1.09189e-05)
(-0.00015392 0 -1.91771e-05)
(-0.00014913 0 -2.66088e-05)
(-0.000142573 0 -3.32745e-05)
(-0.000134335 0 -3.92271e-05)
(-0.000124517 0 -4.45149e-05)
(-0.000113235 0 -4.91808e-05)
(-0.000100623 0 -5.32586e-05)
(-8.68322e-05 0 -5.67694e-05)
(-7.2027e-05 0 -5.97193e-05)
(-5.63837e-05 0 -6.21001e-05)
(-4.00866e-05 0 -6.38935e-05)
(-2.33261e-05 0 -6.50772e-05)
(-6.29604e-06 0 -6.5632e-05)
(1.06097e-05 0 -8.25035e-05)
(2.7264e-05 0 -8.15439e-05)
(4.35663e-05 0 -7.97533e-05)
(5.93064e-05 0 -7.71575e-05)
(7.4282e-05 0 -7.37859e-05)
(8.8301e-05 0 -6.96652e-05)
(0.000101186 0 -6.48141e-05)
(0.000112774 0 -5.92394e-05)
(0.000122926 0 -5.29355e-05)
(0.000131518 0 -4.58852e-05)
(0.000138448 0 -3.8062e-05)
(0.000143632 0 -2.94318e-05)
(0.000147002 0 -1.99529e-05)
(0.000148504 0 -9.57465e-06)
(0.000148107 0 1.7642e-06)
(0.000145822 0 1.41226e-05)
(0.00014172 0 2.75055e-05)
(0.000135908 0 4.18053e-05)
(0.000128488 0 5.68179e-05)
(0.000119515 0 7.22509e-05)
(0.00010882 0 8.74771e-05)
(9.55044e-05 0 0.000100899)
(7.76762e-05 0 0.000109971)
(5.44237e-05 0 0.00011359)
(2.77379e-05 0 0.000114102)
(-3.54108e-07 0 0.000113969)
(-2.84051e-05 0 0.000114002)
(-5.49598e-05 0 0.000113324)
(-7.79658e-05 0 0.000109425)
(-9.551e-05 0 0.000100051)
(-0.000108615 0 8.64334e-05)
(-0.00011915 0 7.11075e-05)
(-0.000127969 0 5.56141e-05)
(-0.00013522 0 4.05566e-05)
(-0.000140844 0 2.62222e-05)
(-0.000144738 0 1.28131e-05)
(-0.000146794 0 4.32441e-07)
(-0.000146946 0 -1.09271e-05)
(-0.000145186 0 -2.13228e-05)
(-0.000141548 0 -3.08121e-05)
(-0.000136088 0 -3.94421e-05)
(-0.000128878 0 -4.7251e-05)
(-0.000120006 0 -5.42703e-05)
(-0.00010958 0 -6.0524e-05)
(-9.77277e-05 0 -6.60275e-05)
(-8.45978e-05 0 -7.07845e-05)
(-7.03583e-05 0 -7.47868e-05)
(-5.51942e-05 0 -7.80153e-05)
(-3.93041e-05 0 -8.04435e-05)
(-2.28966e-05 0 -8.20438e-05)
(-6.18757e-06 0 -8.27932e-05)
(1.0603e-05 0 -8.26793e-05)
(2.72538e-05 0 -8.17042e-05)
(4.35458e-05 0 -7.98834e-05)
(5.92645e-05 0 -7.72417e-05)
(7.42039e-05 0 -7.38071e-05)
(8.81685e-05 0 -6.96045e-05)
(0.000100977 0 -6.46504e-05)
(0.000112468 0 -5.895e-05)
(0.000122496 0 -5.24961e-05)
(0.000130939 0 -4.5271e-05)
(0.000137696 0 -3.72485e-05)
(0.000142682 0 -2.83956e-05)
(0.00014583 0 -1.86718e-05)
(0.000147088 0 -8.02752e-06)
(0.000146431 0 3.59638e-06)
(0.000143882 0 1.62509e-05)
(0.000139521 0 2.99187e-05)
(0.000133458 0 4.4466e-05)
(0.000125793 0 5.96723e-05)
(0.00011655 0 7.52029e-05)
(0.00010547 0 9.02851e-05)
(9.1396e-05 0 0.000103041)
(7.23849e-05 0 0.000110937)
(4.81964e-05 0 0.00011369)
(2.10856e-05 0 0.000113997)
(-7.10761e-06 0 0.000113992)
(-3.49808e-05 0 0.000114103)
(-6.09968e-05 0 0.000113065)
(-8.29279e-05 0 0.000108135)
(-9.93713e-05 0 9.76737e-05)
(-0.000111837 0 8.35451e-05)
(-0.000122036 0 6.81645e-05)
(-0.000130597 0 5.28022e-05)
(-0.000137602 0 3.79539e-05)
(-0.000142973 0 2.38789e-05)
(-0.000146606 0 1.07605e-05)
(-0.000148397 0 -1.32537e-06)
(-0.000148291 0 -1.24049e-05)
(-0.000146293 0 -2.25406e-05)
(-0.000142438 0 -3.17911e-05)
(-0.000136786 0 -4.02047e-05)
(-0.000129408 0 -4.78209e-05)
(-0.000120393 0 -5.46719e-05)
(-0.00010985 0 -6.0782e-05)
(-9.79044e-05 0 -6.61656e-05)
(-8.47039e-05 0 -7.0825e-05)
(-7.04144e-05 0 -7.47501e-05)
(-5.52178e-05 0 -7.79197e-05)
(-3.93092e-05 0 -8.03057e-05)
(-2.28933e-05 0 -8.1879e-05)
(-6.18175e-06 0 -8.26159e-05)
(1.01691e-05 0 -9.897e-05)
(2.61193e-05 0 -9.77576e-05)
(4.16993e-05 0 -9.54952e-05)
(5.66899e-05 0 -9.22159e-05)
(7.08823e-05 0 -8.79599e-05)
(8.40817e-05 0 -8.2768e-05)
(9.61107e-05 0 -7.66761e-05)
(0.000106812 0 -6.97109e-05)
(0.00011605 0 -6.18876e-05)
(0.000123713 0 -5.32096e-05)
(0.000129708 0 -4.367e-05)
(0.000133963 0 -3.32527e-05)
(0.000136425 0 -2.19339e-05)
(0.000137059 0 -9.68485e-06)
(0.000135857 0 3.52289e-06)
(0.000132847 0 1.77022e-05)
(0.000128104 0 3.28165e-05)
(0.000121732 0 4.8748e-05)
(0.000113847 0 6.52969e-05)
(0.000104561 0 8.21735e-05)
(9.39451e-05 0 9.89504e-05)
(8.18507e-05 0 0.000114873)
(6.72734e-05 0 0.000128268)
(4.84755e-05 0 0.000136885)
(2.52313e-05 0 0.000140582)
(-2.84881e-07 0 0.000141404)
(-2.57458e-05 0 0.000140376)
(-4.88189e-05 0 0.000136402)
(-6.73829e-05 0 0.000127466)
(-8.1776e-05 0 0.000113831)
(-9.3739e-05 0 9.77649e-05)
(-0.000104228 0 8.08898e-05)
(-0.000113373 0 6.39359e-05)
(-0.000121099 0 4.73235e-05)
(-0.00012729 0 3.1338e-05)
(-0.000131833 0 1.61774e-05)
(-0.000134622 0 1.95714e-06)
(-0.000135587 0 -1.12867e-05)
(-0.000134702 0 -2.35653e-05)
(-0.000131978 0 -3.49038e-05)
(-0.000127453 0 -4.5327e-05)
(-0.000121183 0 -5.48545e-05)
(-0.000113245 0 -6.3499e-05)
(-0.000103737 0 -7.1264e-05)
(-9.27769e-05 0 -7.81432e-05)
(-8.05076e-05 0 -8.4119e-05)
(-6.70936e-05 0 -8.91634e-05)
(-5.27199e-05 0 -9.32399e-05)
(-3.75886e-05 0 -9.63086e-05)
(-2.19151e-05 0 -9.83315e-05)
(-5.92472e-06 0 -9.92788e-05)
(1.01514e-05 0 -9.91349e-05)
(2.60805e-05 0 -9.79022e-05)
(4.16328e-05 0 -9.56006e-05)
(5.6585e-05 0 -9.22627e-05)
(7.07249e-05 0 -8.79274e-05)
(8.38545e-05 0 -8.26343e-05)
(9.57941e-05 0 -7.64181e-05)
(0.000106385 0 -6.93041e-05)
(0.00011549 0 -6.13068e-05)
(0.000122997 0 -5.243e-05)
(0.000128813 0 -4.26675e-05)
(0.000132869 0 -3.20046e-05)
(0.000135111 0 -2.04202e-05)
(0.000135509 0 -7.88886e-06)
(0.000134058 0 5.61259e-06)
(0.000130798 0 2.00868e-05)
(0.000125809 0 3.54794e-05)
(0.000119202 0 5.16523e-05)
(0.000111092 0 6.8387e-05)
(0.000101588 0 8.53668e-05)
(9.07411e-05 0 0.000102124)
(7.82819e-05 0 0.000117759)
(6.29537e-05 0 0.000130349)
(4.31048e-05 0 0.000137862)
(1.916e-05 0 0.000140853)
(-6.53164e-06 0 0.000141372)
(-3.16863e-05 0 0.000139973)
(-5.39165e-05 0 0.000135148)
(-7.1461e-05 0 0.00012512)
(-8.52185e-05 0 0.000110827)
(-9.68755e-05 0 9.45662e-05)
(-0.000107142 0 7.77116e-05)
(-0.000116068 0 6.08857e-05)
(-0.000123566 0 4.44755e-05)
(-0.000129518 0 2.87429e-05)
(-0.000133814 0 1.3867e-05)
(-0.000136352 0 -5.73648e-08)
(-0.00013707 0 -1.30103e-05)
(-0.000135952 0 -2.50112e-05)
(-0.000133012 0 -3.60896e-05)
(-0.000128292 0 -4.62733e-05)
(-0.000121849 0 -5.55843e-05)
(-0.000113761 0 -6.40364e-05)
(-0.000104125 0 -7.1634e-05)
(-9.30587e-05 0 -7.83706e-05)
(-8.07046e-05 0 -8.42279e-05)
(-6.7225e-05 0 -8.91764e-05)
(-5.28023e-05 0 -9.31786e-05)
(-3.76353e-05 0 -9.61931e-05)
(-2.19359e-05 0 -9.8181e-05)
(-5.92545e-06 0 -9.9112e-05)
(9.53099e-06 0 -0.000114555)
(2.44688e-05 0 -0.000113081)
(3.90295e-05 0 -0.000110331)
(5.29915e-05 0 -0.000106348)
(6.61454e-05 0 -0.000101186)
(7.82987e-05 0 -9.49019e-05)
(8.92787e-05 0 -8.7553e-05)
(9.89355e-05 0 -7.9188e-05)
(0.000107143 0 -6.98453e-05)
(0.000113799 0 -5.95512e-05)
(0.000118825 0 -4.832e-05)
(0.000122162 0 -3.61558e-05)
(0.000123775 0 -2.3055e-05)
(0.000123647 0 -9.01209e-06)
(0.000121788 0 5.97168e-06)
(0.00011824 0 2.1872e-05)
(0.000113079 0 3.86167e-05)
(0.000106408 0 5.60668e-05)
(9.83467e-05 0 7.40145e-05)
(8.90194e-05 0 9.2183e-05)
(7.85414e-05 0 0.000110208)
(6.69932e-05 0 0.000127563)
(5.4177e-05 0 0.00014328)
(3.9069e-05 0 0.000155586)
(2.06439e-05 0 0.000162805)
(-1.91049e-07 0 0.000164946)
(-2.09672e-05 0 0.000162476)
(-3.9242e-05 0 0.000154915)
(-5.42014e-05 0 0.000142317)
(-6.69103e-05 0 0.000126402)
(-7.83617e-05 0 0.000108907)
(-8.87283e-05 0 9.07714e-05)
(-9.7926e-05 0 7.2508e-05)
(-0.000105839 0 5.44769e-05)
(-0.00011234 0 3.69526e-05)
(-0.000117312 0 2.01418e-05)
(-0.000120653 0 4.18251e-06)
(-0.000122288 0 -1.08528e-05)
(-0.000122177 0 -2.49381e-05)
(-0.000120314 0 -3.80685e-05)
(-0.000116718 0 -5.02452e-05)
(-0.000111428 0 -6.1467e-05)
(-0.000104507 0 -7.17254e-05)
(-9.604e-05 0 -8.10016e-05)
(-8.61346e-05 0 -8.92656e-05)
(-7.49244e-05 0 -9.64762e-05)
(-6.2567e-05 0 -0.000102582)
(-4.92428e-05 0 -0.000107528)
(-3.5152e-05 0 -0.000111256)
(-2.05109e-05 0 -0.000113714)
(-5.54734e-06 0 -0.000114866)
(9.50351e-06 0 -0.000114691)
(2.44047e-05 0 -0.000113193)
(3.89227e-05 0 -0.000110395)
(5.2832e-05 0 -0.000106342)
(6.59202e-05 0 -0.000101085)
(7.79921e-05 0 -9.46822e-05)
(8.88729e-05 0 -8.71894e-05)
(9.84115e-05 0 -7.86549e-05)
(0.000106481 0 -6.91171e-05)
(0.000112979 0 -5.86031e-05)
(0.000117828 0 -4.71286e-05)
(0.000120971 0 -3.47e-05)
(0.000122373 0 -2.13173e-05)
(0.000122022 0 -6.98e-06)
(0.000119932 0 8.30312e-06)
(0.000116153 0 2.44962e-05)
(0.000110766 0 4.15112e-05)
(0.000103881 0 5.91915e-05)
(9.56174e-05 0 7.73135e-05)
(8.6101e-05 0 9.5582e-05)
(7.5442e-05 0 0.00011361)
(6.37022e-05 0 0.000130807)
(5.05299e-05 0 0.000146049)
(3.47553e-05 0 0.000157432)
(1.56396e-05 0 0.00016359)
(-5.40695e-06 0 0.000164832)
(-2.58215e-05 0 0.000161425)
(-4.3355e-05 0 0.000152792)
(-5.77242e-05 0 0.000139379)
(-7.0143e-05 0 0.000123093)
(-8.14125e-05 0 0.000105492)
(-9.15967e-05 0 8.73881e-05)
(-0.000100602 0 6.92459e-05)
(-0.000108309 0 5.14052e-05)
(-0.000114592 0 3.41232e-05)
(-0.000119336 0 1.75901e-05)
(-0.000122445 0 1.92634e-06)
(-0.00012385 0 -1.28106e-05)
(-0.000123518 0 -2.66048e-05)
(-0.000121448 0 -3.9458e-05)
(-0.00011766 0 -5.13759e-05)
(-0.000112198 0 -6.23606e-05)
(-0.000105124 0 -7.24055e-05)
(-9.65229e-05 0 -8.14932e-05)
(-8.65035e-05 0 -8.95941e-05)
(-7.51982e-05 0 -9.66669e-05)
(-6.27631e-05 0 -0.00010266)
(-4.93764e-05 0 -0.000107517)
(-3.52355e-05 0 -0.000111179)
(-2.05532e-05 0 -0.000113595)
(-5.55401e-06 0 -0.000114727)
(8.73285e-06 0 -0.000128992)
(2.24088e-05 0 -0.000127256)
(3.57109e-05 0 -0.000124017)
(4.84205e-05 0 -0.000119331)
(6.03331e-05 0 -0.000113266)
(7.12628e-05 0 -0.0001059)
(8.10454e-05 0 -9.73113e-05)
(8.95413e-05 0 -8.75734e-05)
(9.6636e-05 0 -7.67492e-05)
(0.000102241 0 -6.48895e-05)
(0.00010629 0 -5.20316e-05)
(0.000108743 0 -3.82014e-05)
(0.00010958 0 -2.34174e-05)
(0.000108803 0 -7.69719e-06)
(0.00010644 0 8.93084e-06)
(0.000102543 0 2.64124e-05)
(9.7196e-05 0 4.46474e-05)
(9.05034e-05 0 6.34772e-05)
(8.25866e-05 0 8.26804e-05)
(7.35807e-05 0 0.000101972)
(6.3628e-05 0 0.000120999)
(5.28753e-05 0 0.000139309)
(4.14441e-05 0 0.000156185)
(2.90977e-05 0 0.000170305)
(1.52137e-05 0 0.000179721)
(-9.11498e-08 0 0.000182879)
(-1.53568e-05 0 0.000179305)
(-2.91586e-05 0 0.000169525)
(-4.14317e-05 0 0.000155134)
(-5.27992e-05 0 0.000138064)
(-6.3475e-05 0 0.000119603)
(-7.33318e-05 0 0.000100447)
(-8.22226e-05 0 8.10409e-05)
(-9.0005e-05 0 6.17348e-05)
(-9.65439e-05 0 4.28114e-05)
(-0.000101718 0 2.44914e-05)
(-0.000105424 0 6.93328e-06)
(-0.000107581 0 -9.7619e-06)
(-0.000108136 0 -2.55376e-05)
(-0.000107065 0 -4.03617e-05)
(-0.000104369 0 -5.42116e-05)
(-0.000100071 0 -6.70632e-05)
(-9.42173e-05 0 -7.88852e-05)
(-8.68776e-05 0 -8.96349e-05)
(-7.81477e-05 0 -9.92571e-05)
(-6.8149e-05 0 -0.000107685)
(-5.70291e-05 0 -0.000114844)
(-4.49599e-05 0 -0.000120654)
(-3.2135e-05 0 -0.00012504)
(-1.87659e-05 0 -0.000127935)
(-5.07753e-06 0 -0.000129293)
(8.69742e-06 0 -0.000129086)
(2.23241e-05 0 -0.000127321)
(3.55712e-05 0 -0.000124027)
(4.8217e-05 0 -0.000119259)
(6.00541e-05 0 -0.000113086)
(7.08944e-05 0 -0.000105586)
(8.05722e-05 0 -9.68358e-05)
(8.89467e-05 0 -8.69102e-05)
(9.59033e-05 0 -7.58728e-05)
(0.000101353 0 -6.37754e-05)
(0.000105233 0 -5.06575e-05)
(0.000107502 0 -3.65481e-05)
(0.000108143 0 -2.14701e-05)
(0.000107163 0 -5.44757e-06)
(0.000104592 0 1.14824e-05)
(0.00010049 0 2.92533e-05)
(9.4945e-05 0 4.77502e-05)
(8.80658e-05 0 6.67982e-05)
(7.99776e-05 0 8.61607e-05)
(7.0818e-05 0 0.000105538)
(6.07304e-05 0 0.000124559)
(4.98648e-05 0 0.000142739)
(3.83046e-05 0 0.000159259)
(2.56869e-05 0 0.000172633)
(1.14327e-05 0 0.000180889)
(-4.01767e-06 0 0.000182698)
(-1.90462e-05 0 0.000177801)
(-3.248e-05 0 0.000166954)
(-4.45277e-05 0 0.000151935)
(-5.57808e-05 0 0.000134582)
(-6.63379e-05 0 0.000116029)
(-7.60548e-05 0 9.68937e-05)
(-8.47871e-05 0 7.75933e-05)
(-9.23936e-05 0 5.84632e-05)
(-9.87424e-05 0 3.97707e-05)
(-0.000103716 0 2.1721e-05)
(-0.000107215 0 4.45641e-06)
(-0.000109164 0 -1.19363e-05)
(-0.000109517 0 -2.74117e-05)
(-0.000108253 0 -4.19459e-05)
(-0.000105375 0 -5.55215e-05)
(-0.00010091 0 -6.8119e-05)
(-9.49051e-05 0 -7.97096e-05)
(-8.74309e-05 0 -9.02525e-05)
(-7.85832e-05 0 -9.96936e-05)
(-6.84832e-05 0 -0.000107967)
(-5.72772e-05 0 -0.000114997)
(-4.51353e-05 0 -0.000120705)
(-3.22487e-05 0 -0.000125016)
(-1.88262e-05 0 -0.000127862)
(-5.08927e-06 0 -0.000129196)
(7.80548e-06 0 -0.000142054)
(2.00186e-05 0 -0.00014006)
(3.18699e-05 0 -0.000136344)
(4.31491e-05 0 -0.000130971)
(5.3661e-05 0 -0.000124029)
(6.32303e-05 0 -0.000115615)
(7.17047e-05 0 -0.000105833)
(7.89574e-05 0 -9.47797e-05)
(8.4888e-05 0 -8.25456e-05)
(8.94223e-05 0 -6.92064e-05)
(9.25111e-05 0 -5.48237e-05)
(9.41296e-05 0 -3.94466e-05)
(9.42755e-05 0 -2.31159e-05)
(9.29691e-05 0 -5.87249e-06)
(9.02535e-05 0 1.22311e-05)
(8.61963e-05 0 3.1115e-05)
(8.08886e-05 0 5.06555e-05)
(7.44427e-05 0 7.06746e-05)
(6.69884e-05 0 9.09344e-05)
(5.86739e-05 0 0.000111134)
(4.9667e-05 0 0.000130906)
(4.0161e-05 0 0.000149788)
(3.03879e-05 0 0.000167125)
(2.05076e-05 0 0.000181774)
(1.04052e-05 0 0.000191874)
(-1.15455e-08 0 0.000195389)
(-1.04162e-05 0 0.000191425)
(-2.04951e-05 0 0.000180952)
(-3.03507e-05 0 0.000166027)
(-4.00876e-05 0 0.000148483)
(-4.95365e-05 0 0.000129432)
(-5.84658e-05 0 0.000109512)
(-6.66832e-05 0 8.91784e-05)
(-7.40213e-05 0 6.87966e-05)
(-8.03325e-05 0 4.86652e-05)
(-8.54873e-05 0 2.90215e-05)
(-8.93743e-05 0 1.00441e-05)
(-9.19034e-05 0 -8.14211e-06)
(-9.30089e-05 0 -2.54544e-05)
(-9.26499e-05 0 -4.18359e-05)
(-9.08088e-05 0 -5.72402e-05)
(-8.74915e-05 0 -7.16201e-05)
(-8.27272e-05 0 -8.49202e-05)
(-7.65705e-05 0 -9.70724e-05)
(-6.91018e-05 0 -0.000107995)
(-6.04287e-05 0 -0.000117596)
(-5.06856e-05 0 -0.000125773)
(-4.00325e-05 0 -0.000132423)
(-2.86523e-05 0 -0.000137451)
(-1.67472e-05 0 -0.000140773)
(-4.53342e-06 0 -0.000142331)
(7.76411e-06 0 -0.000142094)
(1.99182e-05 0 -0.000140068)
(3.17056e-05 0 -0.000136289)
(4.29132e-05 0 -0.000130826)
(5.33435e-05 0 -0.000123763)
(6.28193e-05 0 -0.000115201)
(7.11872e-05 0 -0.000105243)
(7.83197e-05 0 -9.39871e-05)
(8.41163e-05 0 -8.15247e-05)
(8.85037e-05 0 -6.79336e-05)
(9.14341e-05 0 -5.32782e-05)
(9.28843e-05 0 -3.76113e-05)
(9.28549e-05 0 -2.09791e-05)
(9.13694e-05 0 -3.42956e-06)
(8.84753e-05 0 1.49751e-05)
(8.42446e-05 0 3.41425e-05)
(7.87736e-05 0 5.39343e-05)
(7.21784e-05 0 7.41571e-05)
(6.45933e-05 0 9.45578e-05)
(5.61711e-05 0 0.000114821)
(4.70847e-05 0 0.00013456)
(3.75363e-05 0 0.000153289)
(2.77608e-05 0 0.000170279)
(1.78667e-05 0 0.000184234)
(7.69729e-06 0 0.00019317)
(-2.75523e-06 0 0.000195184)
(-1.3104e-05 0 0.000189776)
(-2.31266e-05 0 0.000178265)
(-3.2979e-05 0 0.000162754)
(-4.27048e-05 0 0.000144925)
(-5.21003e-05 0 0.000125756)
(-6.09421e-05 0 0.000105832)
(-6.90452e-05 0 8.55824e-05)
(-7.62471e-05 0 6.5359e-05)
(-8.24046e-05 0 4.54449e-05)
(-8.73925e-05 0 2.6062e-05)
(-9.11036e-05 0 7.37343e-06)
(-9.34529e-05 0 -1.05099e-05)
(-9.43794e-05 0 -2.75171e-05)
(-9.38459e-05 0 -4.36002e-05)
(-9.18383e-05 0 -5.87192e-05)
(-8.83645e-05 0 -7.28317e-05)
(-8.3456e-05 0 -8.58859e-05)