/*--------------------------------*- C++ -*----------------------------------*\
| =========                 |                                                 |
| \\      /  F ield         | OpenFOAM: The Open Source CFD Toolbox           |
|  \\    /   O peration     | Version:  2.3.0                                 |
|   \\  /    A nd           | Web:      www.OpenFOAM.org                      |
|    \\/     M anipulation  |                                                 |
\*---------------------------------------------------------------------------*/
FoamFile
{
    version     2.0;
    format      ascii;
    class       volVectorField;
    location    "14000";
    object      U;
}
// * * * * * * * * * * * * * * * * * * * * * * * * * * * * * * * * * * * * * //

dimensions      [0 1 -1 0 0 0 0];

internalField   nonuniform List<vector> 
765
(
(2.04525 0 -2.29237)
(5.23241 0 -2.20045)
(8.19105 0 -2.0142)
(10.7797 0 -1.71978)
(12.8562 0 -1.2982)
(14.2642 0 -0.707791)
(14.8113 0 0.114337)
(14.2532 0 1.10566)
(12.3964 0 1.73098)
(9.52423 0 1.66009)
(6.16177 0 1.34547)
(2.986 0 1.02055)
(0.284349 0 0.84547)
(-2.34909 0 0.959188)
(-5.41034 0 1.27167)
(-8.80026 0 1.59864)
(-11.8332 0 1.75674)
(-13.9624 0 1.31111)
(-14.8102 0 0.334572)
(-14.4934 0 -0.540329)
(-13.2662 0 -1.17801)
(-11.3316 0 -1.63274)
(-8.85186 0 -1.95377)
(-5.97003 0 -2.16376)
(-2.82643 0 -2.27659)
(0.437784 0 -2.30569)
(3.68357 0 -2.25524)
(6.77129 0 -2.11782)
(9.5597 0 -1.87971)
(11.9089 0 -1.52641)
(13.6732 0 -1.03003)
(14.6819 0 -0.334204)
(14.721 0 0.594087)
(13.5313 0 1.50936)
(11.1183 0 1.74962)
(7.93368 0 1.5174)
(4.56258 0 1.18551)
(1.63589 0 0.900548)
(-0.948717 0 0.861806)
(-3.75127 0 1.09968)
(-7.04405 0 1.4308)
(-10.3376 0 1.7143)
(-12.9968 0 1.65008)
(-14.525 0 0.852753)
(-14.7745 0 -0.117988)
(-13.9886 0 -0.876414)
(-12.3953 0 -1.41822)
(-10.1759 0 -1.80486)
(-7.48096 0 -2.07067)
(-4.45145 0 -2.23191)
(-1.22912 0 -2.30241)
(2.27394 0 -4.93646)
(5.80151 0 -4.68518)
(9.04017 0 -4.21779)
(11.8373 0 -3.54272)
(14.0657 0 -2.66321)
(15.6294 0 -1.57077)
(16.4782 0 -0.254394)
(16.6011 0 1.26826)
(15.9757 0 2.99083)
(14.0544 0 4.80082)
(10.3454 0 5.54396)
(5.58513 0 5.06087)
(0.551569 0 4.66314)
(-4.46328 0 4.92729)
(-9.35855 0 5.48475)
(-13.3738 0 5.13724)
(-15.7232 0 3.40846)
(-16.5545 0 1.64092)
(-16.5976 0 0.0773921)
(-15.9155 0 -1.28699)
(-14.5152 0 -2.42798)
(-12.4355 0 -3.35351)
(-9.76229 0 -4.07471)
(-6.61598 0 -4.59082)
(-3.14282 0 -4.89381)
(0.488337 0 -4.97608)
(4.09501 0 -4.83447)
(7.49699 0 -4.47392)
(10.531 0 -3.90279)
(13.0574 0 -3.12824)
(14.964 0 -2.14805)
(16.1763 0 -0.949576)
(16.667 0 0.468449)
(16.4321 0 2.08106)
(15.3111 0 3.89129)
(12.4646 0 5.41605)
(8.14885 0 5.36922)
(3.15303 0 4.79183)
(-1.84034 0 4.70036)
(-6.8761 0 5.21948)
(-11.4378 0 5.54253)
(-14.7438 0 4.36078)
(-16.2272 0 2.52894)
(-16.651 0 0.861833)
(-16.3437 0 -0.61009)
(-15.3117 0 -1.86833)
(-13.573 0 -2.90479)
(-11.1906 0 -3.73199)
(-8.26908 0 -4.35526)
(-4.94231 0 -4.76907)
(-1.3687 0 -4.96481)
(2.15792 0 -8.52487)
(5.49565 0 -8.06178)
(8.53231 0 -7.21506)
(11.1156 0 -6.02233)
(13.127 0 -4.5202)
(14.4844 0 -2.73449)
(15.1419 0 -0.679683)
(15.0642 0 1.64308)
(14.2283 0 4.27762)
(12.6546 0 7.09166)
(10.1826 0 9.50751)
(6.09043 0 10.5703)
(0.618445 0 10.5604)
(-4.93344 0 10.599)
(-9.47713 0 9.91399)
(-12.2089 0 7.70007)
(-13.9607 0 4.91513)
(-14.9669 0 2.21259)
(-15.2185 0 -0.171721)
(-14.727 0 -2.28331)
(-13.5294 0 -4.12841)
(-11.665 0 -5.69512)
(-9.20688 0 -6.961)
(-6.26483 0 -7.89156)
(-2.98296 0 -8.44839)
(0.464796 0 -8.6011)
(3.88682 0 -8.33886)
(7.09445 0 -7.67923)
(9.92093 0 -6.65606)
(12.2311 0 -5.30807)
(13.9248 0 -3.66714)
(14.9387 0 -1.75262)
(15.2379 0 0.426141)
(14.7857 0 2.8872)
(13.5867 0 5.6531)
(11.6131 0 8.36211)
(8.51286 0 10.2661)
(3.5264 0 10.5905)
(-2.06677 0 10.5692)
(-7.3632 0 10.4733)
(-10.9283 0 8.96629)
(-13.1404 0 6.37892)
(-14.5246 0 3.57201)
(-15.1693 0 1.02446)
(-15.0566 0 -1.22637)
(-14.2189 0 -3.21239)
(-12.6903 0 -4.92712)
(-10.5252 0 -6.35354)
(-7.81494 0 -7.46251)
(-4.68674 0 -8.2159)
(-1.30068 0 -8.57754)
(1.90057 0 -11.8592)
(4.83116 0 -11.1804)
(7.46927 0 -9.94802)
(9.66855 0 -8.23188)
(11.318 0 -6.10505)
(12.3418 0 -3.63019)
(12.6959 0 -0.855228)
(12.3571 0 2.18372)
(11.3445 0 5.4643)
(9.73726 0 8.91003)
(7.62928 0 12.2461)
(4.75232 0 14.7703)
(0.529102 0 15.7396)
(-3.96701 0 15.1333)
(-7.09032 0 12.9223)
(-9.32503 0 9.68629)
(-11.0524 0 6.23801)
(-12.2087 0 2.911)
(-12.7068 0 -0.180346)
(-12.511 0 -3.01383)
(-11.6397 0 -5.55711)
(-10.1308 0 -7.76604)
(-8.05171 0 -9.58194)
(-5.5047 0 -10.9336)
(-2.62759 0 -11.749)
(0.410831 0 -11.9734)
(3.42425 0 -11.5884)
(6.2292 0 -10.6242)
(8.66427 0 -9.14247)
(10.601 0 -7.21662)
(11.9467 0 -4.91544)
(12.6424 0 -2.29358)
(12.656 0 0.607903)
(11.9778 0 3.76047)
(10.6617 0 7.13587)
(8.80317 0 10.5692)
(6.39067 0 13.6338)
(2.9325 0 15.4455)
(-1.7562 0 15.6456)
(-5.60078 0 14.254)
(-8.22914 0 11.4259)
(-10.2105 0 8.02426)
(-11.6756 0 4.60509)
(-12.5231 0 1.38656)
(-12.6849 0 -1.58578)
(-12.1583 0 -4.2868)
(-10.9709 0 -6.67747)
(-9.17404 0 -8.70632)
(-6.85209 0 -10.3072)
(-4.12511 0 -11.406)
(-1.14754 0 -11.9366)
(1.54164 0 -14.5697)
(3.90905 0 -13.6933)
(6.01047 0 -12.1093)
(7.71534 0 -9.9198)
(8.92878 0 -7.23301)
(9.59159 0 -4.14383)
(9.67644 0 -0.726654)
(9.18213 0 2.95608)
(8.14565 0 6.8293)
(6.64845 0 10.7534)
(4.83224 0 14.4835)
(2.78734 0 17.5705)
(0.295568 0 19.0206)
(-2.29251 0 18.0809)
(-4.41293 0 15.2574)
(-6.27867 0 11.6237)
(-7.86424 0 7.72312)
(-9.01369 0 3.82613)
(-9.6376 0 0.0972074)
(-9.68703 0 -3.38058)
(-9.15684 0 -6.54604)
(-8.06755 0 -9.32975)
(-6.47026 0 -11.6422)
(-4.45092 0 -13.3772)
(-2.13161 0 -14.4294)
(0.334739 0 -14.7196)
(2.77827 0 -14.222)
(5.03187 0 -12.9793)
(6.94986 0 -11.0809)
(8.41961 0 -8.63465)
(9.36479 0 -5.74361)
(9.7429 0 -2.49162)
(9.54036 0 1.05569)
(8.7711 0 4.83499)
(7.49711 0 8.75073)
(5.82032 0 12.6104)
(3.90011 0 16.1049)
(1.66919 0 18.5514)
(-0.988979 0 18.8702)
(-3.35053 0 16.8847)
(-5.32726 0 13.5645)
(-7.08 0 9.75678)
(-8.46914 0 5.82809)
(-9.37436 0 1.9972)
(-9.72308 0 -1.62145)
(-9.4908 0 -4.95958)
(-8.68499 0 -7.95332)
(-7.3405 0 -10.5233)
(-5.52519 0 -12.57)
(-3.3431 0 -13.9843)
(-0.932897 0 -14.6698)
(1.11647 0 -16.6812)
(2.82047 0 -15.63)
(4.30162 0 -13.7367)
(5.45417 0 -11.1351)
(6.20663 0 -7.96947)
(6.52245 0 -4.36899)
(6.39754 0 -0.439339)
(5.85729 0 3.72585)
(4.96059 0 8.01227)
(3.80002 0 12.2436)
(2.50965 0 16.1516)
(1.27325 0 19.2739)
(0.122269 0 20.727)
(-1.02085 0 19.7843)
(-2.2334 0 16.9461)
(-3.52789 0 13.1664)
(-4.73251 0 8.98592)
(-5.69852 0 4.69808)
(-6.32744 0 0.499385)
(-6.55153 0 -3.48629)
(-6.33857 0 -7.16554)
(-5.68555 0 -10.4383)
(-4.62102 0 -13.1815)
(-3.20789 0 -15.2533)
(-1.54388 0 -16.5148)
(0.243911 0 -16.8632)
(2.01244 0 -16.2658)
(3.62125 0 -14.7772)
(4.9501 0 -12.5138)
(5.9103 0 -9.61805)
(6.44833 0 -6.2285)
(6.54431 0 -2.46157)
(6.20912 0 1.58682)
(5.48313 0 5.81926)
(4.4435 0 10.0986)
(3.19707 0 14.2052)
(1.91035 0 17.8073)
(0.722233 0 20.2566)
(-0.417475 0 20.5765)
(-1.58417 0 18.5895)
(-2.84893 0 15.2007)
(-4.12372 0 11.1799)
(-5.22753 0 6.91504)
(-6.04167 0 2.64932)
(-6.48076 0 -1.4624)
(-6.49554 0 -5.31537)
(-6.06786 0 -8.81509)
(-5.20972 0 -11.8503)
(-3.96622 0 -14.2864)
(-2.41773 0 -15.9788)
(-0.677745 0 -16.8013)
(0.647107 0 -18.0736)
(1.62249 0 -16.8837)
(2.4344 0 -14.7476)
(3.01009 0 -11.8287)
(3.30687 0 -8.30454)
(3.31314 0 -4.3375)
(3.04735 0 -0.06442)
(2.55657 0 4.39065)
(1.91488 0 8.88261)
(1.21935 0 13.2053)
(0.588687 0 17.0609)
(0.170952 0 19.9985)
(0.00801696 0 21.3054)
(-0.120383 0 20.4628)
(-0.476752 0 17.8238)
(-1.0738 0 14.1308)
(-1.76694 0 9.88855)
(-2.4307 0 5.41897)
(-2.9642 0 0.94715)
(-3.28732 0 -3.37215)
(-3.34685 0 -7.41514)
(-3.11759 0 -11.051)
(-2.60394 0 -14.1242)
(-1.84112 0 -16.4594)
(-0.894923 0 -17.8869)
(0.142987 0 -18.2817)
(1.16656 0 -17.6048)
(2.07206 0 -15.9219)
(2.77392 0 -13.3741)
(3.21423 0 -10.1364)
(3.36609 0 -6.38062)
(3.23307 0 -2.2551)
(2.84806 0 2.11379)
(2.27108 0 6.59855)
(1.58846 0 11.031)
(0.905833 0 15.1634)
(0.357704 0 18.6412)
(0.0719729 0 20.8887)
(-0.0346942 0 21.1732)
(-0.25307 0 19.3703)
(-0.739577 0 16.1395)
(-1.4009 0 12.1313)
(-2.09351 0 7.74337)
(-2.70584 0 3.24758)
(-3.14587 0 -1.17034)
(-3.34656 0 -5.37535)
(-3.26778 0 -9.24253)
(-2.89854 0 -12.629)
(-2.25818 0 -15.3668)
(-1.3972 0 -17.2782)
(-0.395202 0 -18.2097)
(0.149073 0 -18.6992)
(0.355137 0 -17.4173)
(0.472232 0 -15.1242)
(0.467436 0 -12.0075)
(0.330017 0 -8.27246)
(0.0725008 0 -4.10945)
(-0.269097 0 0.317466)
(-0.635935 0 4.859)
(-0.95129 0 9.35052)
(-1.12837 0 13.5714)
(-1.07884 0 17.217)
(-0.721845 0 19.8729)
(-0.0799496 0 21.0081)
(0.598412 0 20.2804)
(1.02797 0 17.9204)
(1.13962 0 14.4601)
(1.00523 0 10.3435)
(0.71268 0 5.89634)
(0.349564 0 1.35624)
(-0.00425475 0 -3.10357)
(-0.285499 0 -7.33522)
(-0.452731 0 -11.1811)
(-0.487983 0 -14.4578)
(-0.396555 0 -16.9623)
(-0.206285 0 -18.4991)
(0.0353003 0 -18.925)
(0.268763 0 -18.195)
(0.436628 0 -16.3846)
(0.496116 0 -13.6558)
(0.425225 0 -10.2101)
(0.224793 0 -6.24733)
(-0.0810243 0 -1.94337)
(-0.444593 0 2.54905)
(-0.797933 0 7.08015)
(-1.05836 0 11.4643)
(-1.13783 0 15.4431)
(-0.949095 0 18.665)
(-0.439098 0 20.6512)
(0.262438 0 20.8956)
(0.84565 0 19.3177)
(1.11767 0 16.3604)
(1.10009 0 12.5344)
(0.878574 0 8.22128)
(0.541464 0 3.70206)
(0.173793 0 -0.821441)
(-0.151854 0 -5.19346)
(-0.381963 0 -9.26302)
(-0.486492 0 -12.8598)
(-0.458839 0 -15.7877)
(-0.315509 0 -17.8419)
(-0.0945845 0 -18.8459)
(-0.364823 0 -18.5238)
(-0.948786 0 -17.2071)
(-1.53422 0 -14.86)
(-2.10936 0 -11.6867)
(-2.65176 0 -7.90986)
(-3.12758 0 -3.73856)
(-3.49017 0 0.644289)
(-3.68013 0 5.07341)
(-3.63081 0 9.3764)
(-3.278 0 13.3348)
(-2.57353 0 16.6617)
(-1.50433 0 19.0019)
(-0.156033 0 19.972)
(1.2256 0 19.353)
(2.3701 0 17.291)
(3.15683 0 14.1562)
(3.58515 0 10.3168)
(3.6974 0 6.07543)
(3.55548 0 1.66438)
(3.22648 0 -2.73716)
(2.77199 0 -6.96693)
(2.24169 0 -10.8487)
(1.67213 0 -14.1806)
(1.08826 0 -16.7413)
(0.504226 0 -18.3191)
(-0.0763227 0 -18.7573)
(-0.657598 0 -18.0065)
(-1.24247 0 -16.1494)
(-1.82454 0 -13.3629)
(-2.38684 0 -9.86532)
(-2.90153 0 -5.87463)
(-3.32875 0 -1.58564)
(-3.61528 0 2.83098)
(-3.69745 0 7.21338)
(-3.50849 0 11.3722)
(-2.99014 0 15.0581)
(-2.10778 0 17.9507)
(-0.883078 0 19.6704)
(0.519779 0 19.8775)
(1.814 0 18.5213)
(2.79163 0 15.8907)
(3.40247 0 12.3719)
(3.67174 0 8.30324)
(3.65317 0 3.95272)
(3.41259 0 -0.476797)
(3.0155 0 -4.81985)
(2.51851 0 -8.90814)
(1.96481 0 -12.5523)
(1.38518 0 -15.5379)
(0.799326 0 -17.6427)
(0.216314 0 -18.6748)
(-0.880411 0 -17.5341)
(-2.2535 0 -16.2477)
(-3.53136 0 -13.9635)
(-4.65525 0 -10.89)
(-5.56997 0 -7.2544)
(-6.22386 0 -3.27105)
(-6.56644 0 0.870425)
(-6.54722 0 5.0003)
(-6.11936 0 8.94956)
(-5.24916 0 12.5154)
(-3.93189 0 15.4464)
(-2.21298 0 17.4554)
(-0.225107 0 18.2708)
(1.7931 0 17.7522)
(3.5879 0 15.9924)
(5.00169 0 13.2465)
(5.97366 0 9.80411)
(6.49941 0 5.92682)
(6.60772 0 1.82759)
(6.34355 0 -2.32)
(5.75704 0 -6.35059)
(4.89858 0 -10.0813)
(3.8191 0 -13.3043)
(2.57261 0 -15.7942)
(1.21693 0 -17.3345)
(-0.188699 0 -17.7634)
(-1.58675 0 -17.0288)
(-2.91933 0 -15.2175)
(-4.12718 0 -12.5114)
(-5.15341 0 -9.13326)
(-5.9451 0 -5.30556)
(-6.45181 0 -1.22939)
(-6.62306 0 2.9182)
(-6.40943 0 6.97434)
(-5.76898 0 10.7581)
(-4.67969 0 14.0442)
(-3.15781 0 16.561)
(-1.28467 0 18.0192)
(0.752834 0 18.1921)
(2.6912 0 17.0478)
(4.31542 0 14.7744)
(5.51993 0 11.6555)
(6.27491 0 7.9717)
(6.59436 0 3.96172)
(6.51656 0 -0.183419)
(6.0899 0 -4.29949)
(5.36499 0 -8.21249)
(4.39227 0 -11.7265)
(3.22404 0 -14.6221)
(1.91646 0 -16.6728)
(0.528779 0 -17.6819)
(-1.37902 0 -15.7412)
(-3.51247 0 -14.5556)
(-5.45076 0 -12.458)
(-7.08879 0 -9.64793)
(-8.34063 0 -6.34126)
(-9.14 0 -2.74201)
(-9.43739 0 0.967933)
(-9.1972 0 4.62685)
(-8.39814 0 8.07905)
(-7.04072 0 11.1477)
(-5.16266 0 13.6259)
(-2.85676 0 15.2937)
(-0.288348 0 15.9616)
(2.30851 0 15.5377)
(4.69079 0 14.0826)
(6.67583 0 11.7707)
(8.15609 0 8.81979)
(9.08314 0 5.44197)
(9.44968 0 1.82056)
(9.27314 0 -1.88635)
(8.5861 0 -5.52197)
(7.43452 0 -8.91071)
(5.88014 0 -11.8543)
(4.00379 0 -14.1387)
(1.90598 0 -15.5573)
(-0.297624 0 -15.9535)
(-2.48493 0 -15.2753)
(-4.53482 0 -13.6085)
(-6.33488 0 -11.1286)
(-7.7897 0 -8.04736)
(-8.82381 0 -4.57625)
(-9.38009 0 -0.907477)
(-9.4164 0 2.78896)
(-8.90376 0 6.35997)
(-7.82989 0 9.64306)
(-6.21101 0 12.4472)
(-4.10906 0 14.5557)
(-1.64965 0 15.7565)
(0.965278 0 15.8976)
(3.48709 0 14.9581)
(5.69618 0 13.0623)
(7.44736 0 10.4129)
(8.6639 0 7.22953)
(9.31942 0 3.7115)
(9.42035 0 0.0279187)
(8.9919 0 -3.66826)
(8.0728 0 -7.21051)
(6.71641 0 -10.4112)
(4.99369 0 -13.0617)
(2.99557 0 -14.9469)
(0.83129 0 -15.8777)
(-1.836 0 -13.1898)
(-4.66447 0 -12.1754)
(-7.20237 0 -10.3868)
(-9.30216 0 -7.99994)
(-10.8507 0 -5.20314)
(-11.77 0 -2.17422)
(-12.0135 0 0.92774)
(-11.5625 0 3.96145)
(-10.4224 0 6.79339)
(-8.62747 0 9.2797)
(-6.25356 0 11.2615)
(-3.43015 0 12.5791)
(-0.345189 0 13.1025)
(2.76746 0 12.7708)
(5.66842 0 11.6241)
(8.15752 0 9.7808)
(10.0924 0 7.39701)
(11.3861 0 4.63362)
(11.9963 0 1.63779)
(11.9119 0 -1.45635)
(11.1463 0 -4.51192)
(9.7389 0 -7.3752)
(7.75955 0 -9.87327)
(5.31259 0 -11.8195)
(2.53734 0 -13.0324)
(-0.397577 0 -13.372)
(-3.30775 0 -12.7909)
(-6.0113 0 -11.367)
(-8.34641 0 -9.25626)
(-10.1829 0 -6.64424)
(-11.426 0 -3.71513)
(-12.0142 0 -0.636721)
(-11.9158 0 2.44214)
(-11.1239 0 5.38821)
(-9.65647 0 8.06548)
(-7.56609 0 10.3228)
(-4.95307 0 11.9984)
(-1.97489 0 12.9422)
(1.15529 0 13.0525)
(4.19484 0 12.3154)
(6.91909 0 10.8134)
(9.15513 0 8.68769)
(10.7883 0 6.1)
(11.755 0 3.20562)
(12.0294 0 0.144157)
(11.6123 0 -2.95186)
(10.5286 0 -5.93694)
(8.83225 0 -8.64715)
(6.60993 0 -10.9008)
(3.98364 0 -12.5098)
(1.10869 0 -13.3068)
(-2.22132 0 -9.96662)
(-5.63463 0 -9.18809)
(-8.67511 0 -7.81952)
(-11.1601 0 -5.9991)
(-12.9547 0 -3.87315)
(-13.9718 0 -1.57906)
(-14.1681 0 0.760459)
(-13.5391 0 3.03586)
(-12.1133 0 5.14377)
(-9.95446 0 6.97798)
(-7.16933 0 8.427)
(-3.9143 0 9.38316)
(-0.393601 0 9.76131)
(3.15489 0 9.52179)
(6.48949 0 8.69089)
(9.39678 0 7.34577)
(11.7093 0 5.59091)
(13.3096 0 3.53813)
(14.1252 0 1.29474)
(14.1203 0 -1.03638)
(13.2915 0 -3.34867)
(11.6724 0 -5.52349)
(9.33901 0 -7.42733)
(6.41434 0 -8.91546)
(3.06952 0 -9.84582)
(-0.481885 0 -10.1069)
(-4.00116 0 -9.66027)
(-7.25368 0 -8.56895)
(-10.0361 0 -6.95638)
(-12.1901 0 -4.96745)
(-13.6054 0 -2.74473)
(-14.2179 0 -0.417702)
(-14.0047 0 1.89879)
(-12.9778 0 4.10064)
(-11.182 0 6.08481)
(-8.7003 0 7.74258)
(-5.66285 0 8.96266)
(-2.24966 0 9.64563)
(1.31639 0 9.72525)
(4.79148 0 9.19233)
(7.94436 0 8.10059)
(10.5826 0 6.54301)
(12.5629 0 4.62959)
(13.7906 0 2.4706)
(14.2121 0 0.170477)
(13.8066 0 -2.16718)
(12.5876 0 -4.43014)
(10.6089 0 -6.49201)
(7.96936 0 -8.21226)
(4.81601 0 -9.44446)
(1.34259 0 -10.0566)
(-2.5029 0 -6.21309)
(-6.34286 0 -5.72256)
(-9.74898 0 -4.86239)
(-12.5139 0 -3.72124)
(-14.4881 0 -2.39191)
(-15.5787 0 -0.960818)
(-15.7444 0 0.495436)
(-14.9892 0 1.90788)
(-13.3578 0 3.21031)
(-10.9351 0 4.33733)
(-7.84966 0 5.22289)
(-4.27603 0 5.80484)
(-0.430029 0 6.03452)
(3.44431 0 5.88908)
(7.0999 0 5.38375)
(10.3132 0 4.56261)
(12.8999 0 3.48576)
(14.7214 0 2.21899)
(15.6834 0 0.827747)
(15.7326 0 -0.622609)
(14.8551 0 -2.06436)
(13.0811 0 -3.42351)
(10.4904 0 -4.61627)
(7.21835 0 -5.55102)
(3.45833 0 -6.13693)
(-0.543484 0 -6.30167)
(-4.50758 0 -6.01993)
(-8.15998 0 -5.33308)
(-11.2675 0 -4.32086)
(-13.6524 0 -3.07564)
(-15.1945 0 -1.68747)
(-15.8278 0 -0.237424)
(-15.5347 0 1.20298)
(-14.3397 0 2.56691)
(-12.3064 0 3.78953)
(-9.54007 0 4.8053)
(-6.19126 0 5.54922)
(-2.45505 0 5.96428)
(1.43716 0 6.01262)
(5.23665 0 5.68888)
(8.70494 0 5.02387)
(11.6362 0 4.07076)
(13.8679 0 2.89339)
(15.2832 0 1.55759)
(15.8078 0 0.128365)
(15.4072 0 -1.32745)
(14.0878 0 -2.73985)
(11.9035 0 -4.02987)
(8.96076 0 -5.10894)
(5.42375 0 -5.88394)
(1.51348 0 -6.26989)
(-2.6521 0 -2.1119)
(-6.71766 0 -1.94406)
(-10.3166 0 -1.65028)
(-13.229 0 -1.26129)
(-15.2986 0 -0.808982)
(-16.43 0 -0.32281)
(-16.5827 0 0.171358)
(-15.7637 0 0.650069)
(-14.0252 0 1.0904)
(-11.4632 0 1.47028)
(-8.21767 0 1.76793)
(-4.47248 0 1.96313)
(-0.449903 0 2.0401)
(3.6015 0 1.99136)
(7.43027 0 1.82192)
(10.807 0 1.54608)
(13.5389 0 1.18337)
(15.4761 0 0.755393)
(16.5129 0 0.284106)
(16.5874 0 -0.207978)
(15.6818 0 -0.69763)
(13.8252 0 -1.1599)
(11.0988 0 -1.56631)
(7.64368 0 -1.88542)
(3.66427 0 -2.08582)
(-0.576115 0 -2.14224)
(-4.77572 0 -2.04577)
(-8.63922 0 -1.81095)
(-11.918 0 -1.46557)
(-14.4248 0 -1.0415)
(-16.035 0 -0.569573)
(-16.6822 0 -0.077275)
(-16.3502 0 0.411331)
(-15.0684 0 0.873084)
(-12.9105 0 1.28582)
(-9.99315 0 1.62769)
(-6.47753 0 1.87743)
(-2.56663 0 2.01656)
(1.50291 0 2.03276)
(5.4782 0 1.92426)
(9.11591 0 1.70111)
(12.2031 0 1.38055)
(14.5672 0 0.983401)
(16.0797 0 0.531451)
(16.6556 0 0.0467904)
(16.2543 0 -0.447319)
(14.8804 0 -0.927288)
(12.5873 0 -1.3664)
(9.48484 0 -1.73441)
(5.74543 0 -1.99924)
(1.604 0 -2.13135)
)
;

boundaryField
{
    top
    {
        type            directionMixed;
        refValue        uniform (0 0 0);
        refGradient     uniform (0 0 0);
        valueFraction   uniform (0 0 0 0 0 1);
        value           nonuniform List<vector> 
51
(
(-2.6521 0 0)
(-6.71766 0 0)
(-10.3166 0 0)
(-13.229 0 0)
(-15.2986 0 0)
(-16.43 0 0)
(-16.5827 0 0)
(-15.7637 0 0)
(-14.0252 0 0)
(-11.4632 0 0)
(-8.21767 0 0)
(-4.47248 0 0)
(-0.449903 0 0)
(3.6015 0 0)
(7.43027 0 0)
(10.807 0 0)
(13.5389 0 0)
(15.4761 0 0)
(16.5129 0 0)
(16.5874 0 0)
(15.6818 0 0)
(13.8252 0 0)
(11.0988 0 0)
(7.64368 0 0)
(3.66427 0 0)
(-0.576115 0 0)
(-4.77572 0 0)
(-8.63922 0 0)
(-11.918 0 0)
(-14.4248 0 0)
(-16.035 0 0)
(-16.6822 0 0)
(-16.3502 0 0)
(-15.0684 0 0)
(-12.9105 0 0)
(-9.99315 0 0)
(-6.47753 0 0)
(-2.56663 0 0)
(1.50291 0 0)
(5.4782 0 0)
(9.11591 0 0)
(12.2031 0 0)
(14.5672 0 0)
(16.0797 0 0)
(16.6556 0 0)
(16.2543 0 0)
(14.8804 0 0)
(12.5873 0 0)
(9.48484 0 0)
(5.74543 0 0)
(1.604 0 0)
)
;
    }
    bottom
    {
        type            fixedValue;
        value           uniform (0 0 0);
    }
    frontAndBack
    {
        type            empty;
    }
    left_cyc
    {
        type            cyclic;
    }
    right_cyc
    {
        type            cyclic;
    }
}


// ************************************************************************* //
