/*--------------------------------*- C++ -*----------------------------------*\
| =========                 |                                                 |
| \\      /  F ield         | OpenFOAM: The Open Source CFD Toolbox           |
|  \\    /   O peration     | Version:  2.3.0                                 |
|   \\  /    A nd           | Web:      www.OpenFOAM.org                      |
|    \\/     M anipulation  |                                                 |
\*---------------------------------------------------------------------------*/
FoamFile
{
    version     2.0;
    format      ascii;
    class       volVectorField;
    location    "14000";
    object      U;
}
// * * * * * * * * * * * * * * * * * * * * * * * * * * * * * * * * * * * * * //

dimensions      [0 1 -1 0 0 0 0];

internalField   nonuniform List<vector> 
765
(
(46.1676 0 0.561198)
(46.2881 0 -0.0210415)
(47.6822 0 -0.796368)
(50.5297 0 -1.65838)
(54.603 0 -2.31949)
(58.9046 0 -2.28283)
(61.3778 0 -0.943208)
(58.9459 0 2.02643)
(48.0738 0 6.47882)
(26.0425 0 11.2798)
(-5.3591 0 13.3115)
(-34.7194 0 9.82259)
(-52.9093 0 4.89882)
(-60.6528 0 0.862023)
(-61.0774 0 -1.54764)
(-57.6938 0 -2.42161)
(-53.2619 0 -2.16338)
(-49.5092 0 -1.38534)
(-47.1317 0 -0.52491)
(-46.1845 0 0.194545)
(-46.4146 0 0.715216)
(-47.4859 0 1.07058)
(-49.119 0 1.35254)
(-51.1666 0 1.64666)
(-53.5865 0 2.03326)
(-56.4262 0 2.60332)
(-59.8253 0 3.46901)
(-64.0079 0 4.71915)
(-69.1332 0 6.24363)
(-75.0186 0 7.28973)
(-79.7296 0 5.6498)
(-78.1666 0 -0.582989)
(-67.9438 0 -9.44388)
(-51.0363 0 -18.3433)
(-29.3062 0 -24.5829)
(-7.13132 0 -25.709)
(15.0994 0 -25.5444)
(37.2451 0 -23.0019)
(57.8836 0 -15.1917)
(72.5429 0 -6.16935)
(79.7825 0 2.28483)
(78.2747 0 6.73908)
(72.7526 0 7.02901)
(67.105 0 5.64882)
(62.3579 0 4.19676)
(58.5042 0 3.10052)
(55.3373 0 2.36211)
(52.6623 0 1.87393)
(50.3762 0 1.53282)
(48.4621 0 1.25543)
(46.9945 0 0.961245)
(81.2273 0 0.0983027)
(82.9166 0 -1.61806)
(85.705 0 -3.66843)
(89.5184 0 -5.594)
(93.8001 0 -6.47961)
(97.2089 0 -4.90755)
(97.346 0 0.756038)
(90.5321 0 11.772)
(72.2967 0 27.8745)
(38.8734 0 45.0832)
(-8.01203 0 52.1566)
(-51.8407 0 39.9064)
(-79.9706 0 22.1912)
(-93.9896 0 7.53043)
(-98.0223 0 -1.6756)
(-96.4241 0 -5.84912)
(-92.4989 0 -6.41789)
(-88.2526 0 -5.04234)
(-84.7326 0 -2.98925)
(-82.3035 0 -1.00935)
(-80.936 0 0.559641)
(-80.4082 0 1.64707)
(-80.4177 0 2.3628)
(-80.6402 0 2.85039)
(-80.7675 0 3.22788)
(-80.4822 0 3.58062)
(-79.4278 0 3.95842)
(-77.1795 0 4.28782)
(-73.193 0 4.14521)
(-67.0174 0 2.25202)
(-57.8769 0 -4.10257)
(-45.684 0 -14.9882)
(-32.3919 0 -22.2144)
(-21.1352 0 -24.2793)
(-12.0614 0 -25.9825)
(-3.05764 0 -26.8608)
(6.13827 0 -26.6788)
(15.1282 0 -25.4519)
(24.6518 0 -23.7521)
(37.0629 0 -20.7648)
(50.394 0 -10.6257)
(61.5746 0 -1.09149)
(69.5878 0 3.24781)
(74.9124 0 4.26816)
(78.1972 0 4.16509)
(79.9481 0 3.80762)
(80.6684 0 3.44954)
(80.7536 0 3.10196)
(80.5424 0 2.70203)
(80.3424 0 2.15699)
(80.464 0 1.3373)
(85.5317 0 -1.92469)
(87.947 0 -4.41287)
(90.8011 0 -7.17074)
(93.8537 0 -9.38957)
(96.5072 0 -9.58126)
(97.6197 0 -5.49896)
(95.2878 0 5.5741)
(86.6905 0 26.0107)
(68.194 0 55.7081)
(36.4359 0 87.6446)
(-7.49045 0 100.573)
(-48.5927 0 78.0412)
(-75.6901 0 45.1911)
(-90.5315 0 18.173)
(-96.6633 0 0.937984)
(-97.5815 0 -7.54147)
(-95.7933 0 -9.91298)
(-92.9074 0 -8.82747)
(-89.867 0 -6.29413)
(-87.1337 0 -3.55803)
(-84.8627 0 -1.24598)
(-83.0265 0 0.408997)
(-81.4642 0 1.39012)
(-79.904 0 1.77704)
(-77.9882 0 1.64238)
(-75.2785 0 1.0188)
(-71.2583 0 -0.088622)
(-65.3811 0 -1.71101)
(-57.2811 0 -4.00777)
(-47.3084 0 -7.51577)
(-36.095 0 -13.4999)
(-28.5567 0 -22.3606)
(-22.5787 0 -29.4363)
(-16.2204 0 -33.1989)
(-9.34158 0 -35.0969)
(-2.34454 0 -35.8879)
(4.7071 0 -35.7343)
(11.6871 0 -34.6058)
(18.4156 0 -32.2055)
(24.5997 0 -27.4498)
(30.5339 0 -18.9773)
(40.1967 0 -11.0368)
(51.1873 0 -6.10127)
(60.5527 0 -3.10404)
(67.8157 0 -1.06337)
(72.936 0 0.378648)
(76.3965 0 1.31818)
(78.7429 0 1.77237)
(80.4635 0 1.73196)
(81.9663 0 1.1536)
(83.578 0 -0.0447742)
(76.5872 0 -4.17579)
(78.5677 0 -6.81913)
(80.4218 0 -9.53594)
(81.8479 0 -11.2884)
(82.3319 0 -10.2497)
(81.0486 0 -3.681)
(76.7566 0 11.7977)
(67.7616 0 39.2538)
(51.9129 0 78.875)
(27.2101 0 121.579)
(-5.50374 0 138.686)
(-36.3606 0 108.756)
(-58.0038 0 64.8338)
(-71.3787 0 28.7739)
(-78.6122 0 5.44093)
(-81.7637 0 -6.71586)
(-82.3607 0 -11.0962)
(-81.4947 0 -10.948)
(-79.8797 0 -8.71337)
(-77.9526 0 -5.93491)
(-75.9607 0 -3.44368)
(-74.0096 0 -1.61737)
(-72.0903 0 -0.600099)
(-70.0706 0 -0.435661)
(-67.6904 0 -1.16583)
(-64.567 0 -2.85152)
(-60.2143 0 -5.53008)
(-54.1229 0 -9.11641)
(-46.0112 0 -13.3254)
(-36.5017 0 -17.7456)
(-26.2875 0 -22.3987)
(-20.4066 0 -28.2941)
(-16.2277 0 -34.3525)
(-11.879 0 -38.3173)
(-6.99088 0 -40.8053)
(-1.77675 0 -41.9581)
(3.53811 0 -41.7176)
(8.65279 0 -40.0984)
(13.3435 0 -37.1511)
(17.5351 0 -32.5241)
(21.8498 0 -26.1921)
(29.9397 0 -20.7439)
(40.0865 0 -16.2009)
(49.2108 0 -11.7639)
(56.5767 0 -7.70669)
(61.9655 0 -4.41428)
(65.795 0 -2.0886)
(68.5813 0 -0.751193)
(70.7771 0 -0.343654)
(72.7212 0 -0.807192)
(74.6287 0 -2.10496)
(60.9532 0 -5.78651)
(61.8079 0 -8.16592)
(62.1491 0 -10.3738)
(61.7077 0 -11.2439)
(60.1264 0 -8.77637)
(56.929 0 0.00575729)
(51.5115 0 18.7591)
(43.23 0 50.7776)
(31.3966 0 96.2462)
(15.6823 0 144.782)
(-3.01687 0 163.953)
(-21.0811 0 130.309)
(-35.5989 0 80.2238)
(-46.2537 0 38.6743)
(-53.5585 0 11.2187)
(-58.2089 0 -3.83973)
(-60.8333 0 -10.1569)
(-62.0012 0 -11.2429)
(-62.1517 0 -9.75625)
(-61.6137 0 -7.39584)
(-60.6324 0 -5.1145)
(-59.3768 0 -3.39764)
(-57.9366 0 -2.49669)
(-56.3046 0 -2.58019)
(-54.3541 0 -3.82157)
(-51.8233 0 -6.41011)
(-48.328 0 -10.4651)
(-43.427 0 -15.8223)
(-36.7993 0 -21.7667)
(-28.9259 0 -26.9011)
(-20.2912 0 -29.8718)
(-14.3149 0 -32.9575)
(-11.0623 0 -38.2014)
(-8.02682 0 -42.3118)
(-4.72199 0 -45.087)
(-1.20996 0 -46.3964)
(2.37981 0 -46.1175)
(5.82534 0 -44.282)
(9.01145 0 -41.0216)
(12.0788 0 -36.4174)
(15.6592 0 -31.8599)
(23.3963 0 -29.2052)
(31.7671 0 -25.3199)
(39.3416 0 -19.6257)
(45.3331 0 -13.732)
(49.6742 0 -8.78365)
(52.767 0 -5.25605)
(55.0445 0 -3.17136)
(56.8518 0 -2.36344)
(58.4023 0 -2.64307)
(59.7787 0 -3.84391)
(40.253 0 -6.23783)
(39.8068 0 -8.0568)
(38.6586 0 -9.49199)
(36.6399 0 -9.34352)
(33.5863 0 -5.57854)
(29.3575 0 4.80171)
(23.909 0 25.4118)
(17.4212 0 59.4043)
(10.4324 0 106.621)
(4.15989 0 156.044)
(-0.556671 0 175.236)
(-5.75232 0 141.497)
(-12.5415 0 90.1665)
(-19.5445 0 46.717)
(-25.7868 0 17.2864)
(-30.8858 0 0.430809)
(-34.7414 0 -7.40206)
(-37.4481 0 -9.70019)
(-39.1668 0 -9.15257)
(-40.0682 0 -7.49321)
(-40.3213 0 -5.71241)
(-40.0844 0 -4.34379)
(-39.4903 0 -3.70441)
(-38.6216 0 -4.05631)
(-37.4772 0 -5.69381)
(-35.9398 0 -8.94009)
(-33.7647 0 -14.0206)
(-30.6151 0 -20.7665)
(-26.1642 0 -28.2034)
(-20.5864 0 -34.3431)
(-14.2065 0 -36.853)
(-8.73463 0 -37.4363)
(-6.52595 0 -40.9505)
(-4.66307 0 -44.767)
(-2.75606 0 -47.6872)
(-0.715775 0 -49.1348)
(1.37804 0 -48.8208)
(3.37863 0 -46.8144)
(5.2117 0 -43.5227)
(7.25803 0 -39.536)
(10.2518 0 -37.2491)
(16.6098 0 -36.634)
(22.5731 0 -32.5181)
(27.82 0 -25.5504)
(31.7734 0 -18.1476)
(34.538 0 -11.927)
(36.4576 0 -7.51281)
(37.8404 0 -4.87872)
(38.8865 0 -3.73626)
(39.6699 0 -3.76443)
(40.1595 0 -4.68593)
(15.9085 0 -5.46493)
(14.3742 0 -6.60895)
(12.1382 0 -7.25206)
(9.14868 0 -6.22474)
(5.41523 0 -1.54954)
(1.08426 0 9.63333)
(-3.42964 0 30.6769)
(-7.30015 0 64.2999)
(-8.96489 0 109.706)
(-6.13157 0 155.858)
(1.58488 0 173.48)
(8.0305 0 142.538)
(9.00473 0 94.1477)
(6.29443 0 51.9395)
(2.01358 0 22.527)
(-2.55081 0 5.06099)
(-6.73819 0 -3.65029)
(-10.246 0 -6.8675)
(-12.9939 0 -7.17841)
(-14.9988 0 -6.27641)
(-16.3275 0 -5.12783)
(-17.0809 0 -4.255)
(-17.3848 0 -3.98409)
(-17.366 0 -4.61885)
(-17.1124 0 -6.53402)
(-16.6298 0 -10.1649)
(-15.8195 0 -15.8519)
(-14.4906 0 -23.4833)
(-12.42 0 -31.9766)
(-9.64306 0 -39.0087)
(-6.20673 0 -41.6903)
(-3.16654 0 -40.4746)
(-2.31657 0 -42.5372)
(-1.6777 0 -46.0194)
(-1.04136 0 -48.9909)
(-0.282871 0 -50.5284)
(0.515904 0 -50.1901)
(1.23676 0 -48.0779)
(1.81456 0 -44.8721)
(2.60462 0 -41.7183)
(4.21195 0 -41.0411)
(7.6041 0 -41.4368)
(10.6018 0 -36.8314)
(13.112 0 -28.9118)
(14.8855 0 -20.5159)
(16.017 0 -13.5215)
(16.7133 0 -8.5948)
(17.1289 0 -5.62808)
(17.3236 0 -4.21744)
(17.2591 0 -3.94061)
(16.8305 0 -4.45404)
(-9.69981 0 -3.79086)
(-11.8876 0 -4.2984)
(-14.6922 0 -4.27787)
(-18.0729 0 -2.62631)
(-21.8677 0 2.49134)
(-25.6594 0 13.653)
(-28.6248 0 33.7992)
(-29.3254 0 64.9675)
(-25.4936 0 105.644)
(-14.5158 0 145.574)
(3.24502 0 160.635)
(19.3335 0 134.335)
(27.6065 0 92.012)
(29.5738 0 53.7198)
(27.8535 0 26.1355)
(24.457 0 9.19137)
(20.5785 0 0.294211)
(16.8764 0 -3.45198)
(13.6632 0 -4.41194)
(11.0495 0 -4.17069)
(9.04933 0 -3.63831)
(7.6148 0 -3.29179)
(6.64341 0 -3.42327)
(5.99347 0 -4.33255)
(5.52477 0 -6.43321)
(5.14042 0 -10.2333)
(4.79491 0 -16.1529)
(4.48029 0 -24.1314)
(4.1876 0 -33.0545)
(3.78906 0 -40.4789)
(3.65528 0 -43.3083)
(2.74411 0 -41.1565)
(1.87481 0 -42.5782)
(1.13815 0 -46.014)
(0.557334 0 -49.0857)
(0.11873 0 -50.703)
(-0.278884 0 -50.3428)
(-0.769099 0 -48.1228)
(-1.42308 0 -44.8617)
(-2.14982 0 -42.0525)
(-3.32195 0 -42.1199)
(-3.82583 0 -42.8974)
(-4.18295 0 -38.0744)
(-4.53285 0 -29.8016)
(-4.80359 0 -21.035)
(-5.09394 0 -13.7524)
(-5.41476 0 -8.62685)
(-5.79051 0 -5.49277)
(-6.2831 0 -3.87024)
(-7.00507 0 -3.27564)
(-8.10043 0 -3.3415)
(-33.797 0 -1.68481)
(-36.193 0 -1.6177)
(-39.1493 0 -1.06031)
(-42.5424 0 0.962026)
(-46.0341 0 6.0513)
(-48.9236 0 16.3923)
(-49.9837 0 34.3413)
(-47.2881 0 61.2026)
(-38.2922 0 95.0546)
(-20.6955 0 127.162)
(4.36765 0 139.197)
(27.6853 0 118.39)
(42.2178 0 83.9948)
(48.8045 0 51.7106)
(49.9643 0 27.6426)
(48.1005 0 12.3418)
(44.8905 0 3.94481)
(41.3611 0 0.0577718)
(38.0746 0 -1.34775)
(35.2822 0 -1.66606)
(33.0618 0 -1.70147)
(31.3909 0 -1.85929)
(30.1673 0 -2.37175)
(29.2207 0 -3.50521)
(28.3588 0 -5.68157)
(27.4059 0 -9.43415)
(26.1754 0 -15.1894)
(24.4423 0 -22.8687)
(21.9128 0 -31.339)
(18.272 0 -38.2674)
(14.2948 0 -40.806)
(8.73104 0 -38.829)
(6.15076 0 -40.7332)
(4.01761 0 -44.6888)
(2.2044 0 -47.9935)
(0.52865 0 -49.6925)
(-1.11206 0 -49.314)
(-2.84695 0 -46.9698)
(-4.73735 0 -43.3817)
(-7.02389 0 -39.7805)
(-11.3884 0 -39.6285)
(-16.2732 0 -40.5075)
(-20.0909 0 -36.0833)
(-23.2532 0 -28.3208)
(-25.3868 0 -19.9504)
(-26.8571 0 -12.9099)
(-27.9205 0 -7.8976)
(-28.7876 0 -4.76174)
(-29.6316 0 -3.00938)
(-30.629 0 -2.13308)
(-31.9676 0 -1.76918)
(-53.6623 0 0.437122)
(-55.9317 0 1.0599)
(-58.7296 0 2.07572)
(-61.8444 0 4.25845)
(-64.7729 0 8.87017)
(-66.5637 0 17.6049)
(-65.6587 0 32.1762)
(-59.8693 0 53.3157)
(-46.7163 0 79.1458)
(-24.5312 0 102.931)
(4.9507 0 111.846)
(32.8292 0 96.6468)
(51.9774 0 70.934)
(62.4704 0 46.0089)
(66.3752 0 26.8473)
(66.1726 0 14.2613)
(63.8574 0 7.03293)
(60.7747 0 3.36533)
(57.7115 0 1.6727)
(55.0593 0 0.847441)
(52.9631 0 0.253897)
(51.4209 0 -0.403204)
(50.315 0 -1.26368)
(49.4165 0 -2.53218)
(48.4522 0 -4.61916)
(47.1577 0 -8.04398)
(45.2139 0 -13.1667)
(42.2272 0 -19.8286)
(37.7065 0 -26.8901)
(31.2716 0 -32.3541)
(23.7662 0 -34.1575)
(14.2516 0 -33.6632)
(10.5554 0 -37.366)
(7.22298 0 -42.101)
(4.07079 0 -45.6403)
(0.985845 0 -47.3797)
(-2.10543 0 -46.9904)
(-5.23928 0 -44.5556)
(-8.41485 0 -40.4646)
(-12.0036 0 -35.086)
(-17.6498 0 -33.6221)
(-26.9552 0 -34.0908)
(-34.0198 0 -30.7752)
(-39.7691 0 -24.5028)
(-43.634 0 -17.3871)
(-46.1671 0 -11.2034)
(-47.8072 0 -6.69201)
(-48.9308 0 -3.7848)
(-49.824 0 -2.03848)
(-50.7458 0 -0.949553)
(-51.96 0 -0.177056)
(-66.4784 0 2.30766)
(-68.3761 0 3.47063)
(-70.7091 0 4.87828)
(-73.2212 0 7.04326)
(-75.3277 0 10.8239)
(-75.95 0 17.3598)
(-73.3995 0 27.7614)
(-65.4706 0 42.4117)
(-49.9447 0 59.8822)
(-25.7761 0 75.638)
(4.9882 0 81.5929)
(34.402 0 71.6198)
(55.8318 0 54.4804)
(68.7407 0 37.4626)
(74.6781 0 24.0434)
(75.9758 0 14.931)
(74.7085 0 9.39136)
(72.3671 0 6.23699)
(69.8555 0 4.39175)
(67.6352 0 3.10307)
(65.8875 0 1.95878)
(64.6335 0 0.810764)
(63.7604 0 -0.345608)
(62.9922 0 -1.61041)
(61.9838 0 -3.3838)
(60.3941 0 -6.16608)
(57.7978 0 -10.2447)
(53.7122 0 -15.4487)
(47.6062 0 -20.7048)
(39.2675 0 -24.3359)
(29.0663 0 -24.9867)
(20.0023 0 -25.9515)
(15.4868 0 -32.9074)
(11.0413 0 -38.2566)
(6.3223 0 -41.8117)
(1.53389 0 -43.4933)
(-3.31627 0 -43.1106)
(-8.09012 0 -40.7201)
(-12.7597 0 -36.4281)
(-17.153 0 -30.2184)
(-21.873 0 -25.3467)
(-32.9367 0 -24.9825)
(-42.4586 0 -23.2692)
(-50.1201 0 -18.9701)
(-55.4478 0 -13.5717)
(-58.9577 0 -8.71468)
(-61.136 0 -5.09786)
(-62.4755 0 -2.7069)
(-63.3577 0 -1.16592)
(-64.1156 0 0.023578)
(-65.0801 0 1.16951)
(-69.3508 0 3.59687)
(-70.6295 0 5.12627)
(-72.0877 0 6.70619)
(-73.5222 0 8.59808)
(-74.4302 0 11.2562)
(-73.8533 0 15.2843)
(-70.2831 0 21.2713)
(-61.7834 0 29.4205)
(-46.5074 0 38.9663)
(-23.7975 0 47.5075)
(4.41661 0 50.8092)
(31.5827 0 45.4011)
(52.0624 0 36.0916)
(65.0881 0 26.7328)
(71.8133 0 19.1911)
(74.2318 0 13.8493)
(74.1886 0 10.3155)
(73.0228 0 7.95832)
(71.5349 0 6.20608)
(70.115 0 4.66109)
(68.9023 0 3.12179)
(67.9186 0 1.57862)
(67.0917 0 0.202454)
(66.2175 0 -0.915439)
(65.0093 0 -2.15583)
(63.0898 0 -4.03157)
(59.949 0 -6.71651)
(55.0966 0 -9.97076)
(48.2935 0 -12.5138)
(40.4665 0 -12.9778)
(31.4906 0 -14.6287)
(26.2819 0 -20.4873)
(21.3811 0 -27.7763)
(15.4139 0 -32.93)
(8.92258 0 -36.1768)
(2.16685 0 -37.6928)
(-4.68277 0 -37.3449)
(-11.35 0 -35.1796)
(-17.7197 0 -31.2501)
(-23.1595 0 -25.3283)
(-27.9102 0 -18.1263)
(-34.9432 0 -13.2342)
(-43.3656 0 -12.9509)
(-51.0021 0 -11.8531)
(-57.0702 0 -8.85144)
(-61.2901 0 -5.74057)
(-63.9364 0 -3.33003)
(-65.5629 0 -1.70007)
(-66.619 0 -0.566025)
(-67.4461 0 0.605638)
(-68.3012 0 2.04924)
(-61.4495 0 5.45447)
(-61.6968 0 7.19873)
(-61.6482 0 8.99393)
(-61.2431 0 10.8855)
(-60.2384 0 12.9543)
(-58.0942 0 15.3028)
(-53.8974 0 18.0241)
(-46.4224 0 21.1305)
(-34.4555 0 24.4208)
(-17.5363 0 27.2753)
(3.10746 0 28.428)
(23.0858 0 26.6044)
(38.5756 0 23.4823)
(49.0877 0 20.1808)
(55.4087 0 17.1715)
(58.841 0 14.5666)
(60.5429 0 12.3129)
(61.3132 0 10.3071)
(61.5888 0 8.45019)
(61.5424 0 6.67067)
(61.201 0 4.93647)
(60.5729 0 3.28288)
(59.6941 0 1.87352)
(58.7169 0 0.820708)
(57.7322 0 -0.083411)
(56.436 0 -1.02971)
(54.4186 0 -2.08021)
(51.2848 0 -3.36898)
(46.5835 0 -5.13121)
(41.6211 0 -7.44065)
(37.5756 0 -10.7511)
(33.2783 0 -15.9771)
(27.2839 0 -21.7434)
(19.7549 0 -26.0092)
(11.4879 0 -28.7613)
(2.7897 0 -30.0505)
(-6.02607 0 -29.7551)
(-14.5967 0 -27.9173)
(-22.6451 0 -24.6357)
(-29.6893 0 -19.7857)
(-35.083 0 -13.8428)
(-39.1661 0 -9.38694)
(-43.183 0 -6.59087)
(-48.4961 0 -4.49576)
(-52.5903 0 -2.91919)
(-55.3199 0 -1.73582)
(-57.0436 0 -0.726967)
(-58.1937 0 0.19656)
(-59.1437 0 1.11735)
(-60.1088 0 2.26754)
(-60.9102 0 3.76965)
(-54.3786 0 3.10715)
(-52.2877 0 3.9177)
(-49.5525 0 4.71134)
(-46.1675 0 5.50941)
(-42.0983 0 6.31747)
(-37.2774 0 7.11877)
(-31.6026 0 7.86988)
(-24.9472 0 8.50197)
(-17.1934 0 8.93807)
(-8.33553 0 9.13988)
(1.37404 0 9.1633)
(10.9435 0 9.10155)
(19.4945 0 8.83607)
(26.9179 0 8.3362)
(33.2657 0 7.65913)
(38.6718 0 6.88505)
(43.2583 0 6.077)
(47.1175 0 5.27027)
(50.306 0 4.47419)
(52.8485 0 3.67729)
(54.7432 0 2.85601)
(55.9721 0 2.01018)
(56.5146 0 1.23739)
(56.4885 0 0.615341)
(56.0499 0 0.0443386)
(55.2074 0 -0.545201)
(53.9052 0 -1.15713)
(52.1021 0 -1.82141)
(49.7063 0 -2.692)
(46.7304 0 -4.09662)
(43.1443 0 -6.51264)
(38.3846 0 -9.89663)
(31.6005 0 -13.5411)
(23.0771 0 -16.3904)
(13.4937 0 -18.2846)
(3.28517 0 -19.1751)
(-7.08107 0 -18.9701)
(-17.11 0 -17.6997)
(-26.3605 0 -15.4545)
(-34.335 0 -12.2668)
(-40.3589 0 -8.56007)
(-44.5586 0 -5.52758)
(-47.8839 0 -3.53277)
(-50.6965 0 -2.36702)
(-52.8776 0 -1.60142)
(-54.517 0 -0.965418)
(-55.6652 0 -0.361035)
(-56.3745 0 0.221053)
(-56.6906 0 0.79626)
(-56.5619 0 1.45701)
(-55.8124 0 2.26573)
(-52.6378 0 2.93017)
(-50.3636 0 3.11558)
(-47.441 0 3.28623)
(-43.8465 0 3.44649)
(-39.5456 0 3.59835)
(-34.5005 0 3.74041)
(-28.6828 0 3.86758)
(-22.097 0 3.97168)
(-14.8099 0 4.04434)
(-6.9818 0 4.08227)
(1.13862 0 4.09352)
(9.21006 0 4.07608)
(16.905 0 4.03)
(24.0016 0 3.94787)
(30.366 0 3.83588)
(35.954 0 3.70313)
(40.7744 0 3.55731)
(44.8606 0 3.40251)
(48.251 0 3.23904)
(50.9772 0 3.064)
(53.0589 0 2.87279)
(54.5087 0 2.66456)
(55.3704 0 2.44655)
(55.7495 0 2.21262)
(55.7228 0 1.93466)
(55.3106 0 1.60825)
(54.5346 0 1.21937)
(53.4307 0 0.702002)
(51.9619 0 -0.109918)
(49.9365 0 -1.42947)
(46.8725 0 -3.4364)
(42.0402 0 -6.03961)
(34.9057 0 -8.71364)
(25.725 0 -10.8751)
(15.1317 0 -12.3678)
(3.69561 0 -13.0793)
(-7.95014 0 -12.9162)
(-19.1446 0 -11.9063)
(-29.2847 0 -10.1581)
(-37.7871 0 -7.781)
(-44.0609 0 -5.04345)
(-48.1552 0 -2.6505)
(-50.7914 0 -0.911682)
(-52.6018 0 0.207441)
(-53.9431 0 0.888444)
(-54.9526 0 1.34921)
(-55.6219 0 1.71308)
(-55.9183 0 2.02402)
(-55.824 0 2.28676)
(-55.3084 0 2.51204)
(-54.2768 0 2.72729)
)
;

boundaryField
{
    top
    {
        type            directionMixed;
        refValue        uniform (0 0 0);
        refGradient     uniform (0 0 0);
        valueFraction   uniform (0 0 0 0 0 1);
        value           nonuniform List<vector> 
51
(
(-52.6378 0 0)
(-50.3636 0 0)
(-47.441 0 0)
(-43.8465 0 0)
(-39.5456 0 0)
(-34.5005 0 0)
(-28.6828 0 0)
(-22.097 0 0)
(-14.8099 0 0)
(-6.9818 0 0)
(1.13862 0 0)
(9.21006 0 0)
(16.905 0 0)
(24.0016 0 0)
(30.366 0 0)
(35.954 0 0)
(40.7744 0 0)
(44.8606 0 0)
(48.251 0 0)
(50.9772 0 0)
(53.0589 0 0)
(54.5087 0 0)
(55.3704 0 0)
(55.7495 0 0)
(55.7228 0 0)
(55.3106 0 0)
(54.5346 0 0)
(53.4307 0 0)
(51.9619 0 0)
(49.9365 0 0)
(46.8725 0 0)
(42.0402 0 0)
(34.9057 0 0)
(25.725 0 0)
(15.1317 0 0)
(3.69561 0 0)
(-7.95014 0 0)
(-19.1446 0 0)
(-29.2847 0 0)
(-37.7871 0 0)
(-44.0609 0 0)
(-48.1552 0 0)
(-50.7914 0 0)
(-52.6018 0 0)
(-53.9431 0 0)
(-54.9526 0 0)
(-55.6219 0 0)
(-55.9183 0 0)
(-55.824 0 0)
(-55.3084 0 0)
(-54.2768 0 0)
)
;
    }
    bottom
    {
        type            fixedValue;
        value           uniform (0 0 0);
    }
    frontAndBack
    {
        type            empty;
    }
    left_cyc
    {
        type            cyclic;
    }
    right_cyc
    {
        type            cyclic;
    }
}


// ************************************************************************* //
