/*--------------------------------*- C++ -*----------------------------------*\
| =========                 |                                                 |
| \\      /  F ield         | OpenFOAM: The Open Source CFD Toolbox           |
|  \\    /   O peration     | Version:  2.3.0                                 |
|   \\  /    A nd           | Web:      www.OpenFOAM.org                      |
|    \\/     M anipulation  |                                                 |
\*---------------------------------------------------------------------------*/
FoamFile
{
    version     2.0;
    format      ascii;
    class       volScalarField;
    location    "21000";
    object      p;
}
// * * * * * * * * * * * * * * * * * * * * * * * * * * * * * * * * * * * * * //

dimensions      [0 2 -2 0 0 0 0];

internalField   nonuniform List<scalar> 
191
(
-1368.54
-1432.58
-1482.53
-1519.54
-1547.8
-1570.26
-1588.84
-1604.77
-1618.78
-1631.32
-1642.65
-1652.96
-1312.75
-1344.19
-1370.23
-1391.34
-1409.07
-1424.32
-1437.63
-1449.56
-1460.42
-1470.46
-1479.83
-1488.69
-1257.61
-1273.43
-1290.96
-1300.17
-1306.62
-1313.34
-1320.04
-1326.7
-1333.29
-1339.8
-1346.28
-1352.81
-1143.36
-1172.23
-1194.97
-1203.37
-1206.99
-1210.38
-1213.63
-1216.94
-1220.41
-1224.1
-1228.05
-1232.34
-1024.59
-1038.57
-1072.68
-1089.46
-1095.42
-1099.44
-1102.62
-1105.05
-1107.07
-1108.95
-1110.89
-1113.03
-1115.41
-933.089
-944.212
-967.213
-978.14
-982.634
-986.317
-989.05
-990.937
-992.242
-993.213
-994.062
-994.921
-995.846
-847.794
-850.204
-858.5
-863.529
-866.182
-868.426
-870.067
-871.1
-871.651
-871.864
-871.871
-871.756
-871.553
-766.755
-754.01
-746.285
-745.71
-746.031
-746.225
-746.367
-746.271
-745.909
-745.298
-744.478
-743.49
-742.357
-686.324
-657.918
-633.284
-626.334
-623.795
-621.388
-619.552
-617.909
-616.299
-614.622
-612.841
-610.967
-609.01
-599.115
-562.207
-522.958
-507.441
-501.401
-495.891
-491.557
-487.853
-484.529
-481.411
-478.404
-475.494
-472.655
-504.349
-470.487
-415.453
-393.655
-382.99
-373.348
-365.57
-359.015
-353.325
-348.222
-343.533
-339.221
-335.209
-399.17
-362.221
-301.276
-275.861
-265.454
-255.995
-246.098
-236.566
-227.943
-220.179
-213.099
-206.69
-200.864
-299.867
-253.405
-184.945
-147.008
-144.126
-138.879
-133.322
-124.575
-114.345
-103.75
-93.3571
-84.0761
-75.883
-191.548
-152.595
-96.0364
-52.842
-29.1575
-17.4567
-15.8907
-16.1632
-14.5558
-10.097
-3.28464
5.0158
14.1289
-329.408
-250.858
-158.89
-75.1426
-8.7863
34.9998
60.877
75.8929
83.9047
86.6874
85.0054
81.1735
77.7768
)
;

boundaryField
{
    top
    {
        type            calculated;
        value           nonuniform List<scalar> 
13
(
-9.81
-9.81
-9.81
-9.81
-9.81
-9.81
-9.81
-9.81
-9.81
-9.81
-9.81
-9.81
-9.81
)
;
    }
    bottom
    {
        type            calculated;
        value           nonuniform List<scalar> 
12
(
-1439.47
-1507.24
-1560.59
-1600.4
-1630.97
-1655.31
-1675.38
-1692.5
-1707.48
-1720.8
-1732.77
-1743.6
)
;
    }
    frontAndBack
    {
        type            empty;
    }
    left_cyc
    {
        type            cyclic;
    }
    right_cyc
    {
        type            cyclic;
    }
    procBoundary3to0throughright_cyc
    {
        type            processorCyclic;
        value           nonuniform List<scalar> 
15
(
-1662.41
-1497.24
-1359.55
-1236.99
-1118.04
-996.827
-871.258
-741.086
-606.959
-469.817
-331.321
-195.346
-68.0352
23.6138
73.9629
)
;
    }
    procBoundary3to2
    {
        type            processor;
        value           nonuniform List<scalar> 
16
(
-1296.55
-1280.55
-1224.64
-1133.16
-1133.16
-1022.96
-932.347
-846.518
-764.783
-683.366
-597.025
-503.172
-407.289
-326.064
-216.785
-388.357
)
;
    }
}


// ************************************************************************* //
