/*--------------------------------*- C++ -*----------------------------------*\
| =========                 |                                                 |
| \\      /  F ield         | OpenFOAM: The Open Source CFD Toolbox           |
|  \\    /   O peration     | Version:  2.3.0                                 |
|   \\  /    A nd           | Web:      www.OpenFOAM.org                      |
|    \\/     M anipulation  |                                                 |
\*---------------------------------------------------------------------------*/
FoamFile
{
    version     2.0;
    format      ascii;
    class       surfaceScalarField;
    location    "21000";
    object      phi;
}
// * * * * * * * * * * * * * * * * * * * * * * * * * * * * * * * * * * * * * //

dimensions      [0 3 -1 0 0 0 0];

internalField   nonuniform List<scalar> 
354
(
0.510193
-0.0753075
0.527015
-0.0168224
0.502038
0.0249774
0.464933
0.0371053
0.430587
0.0343454
0.402179
0.0284086
0.37899
0.0231886
0.359652
0.0193379
0.343203
0.0164489
0.32926
0.0139429
0.318026
0.0112342
0.00764188
0.292822
-0.16079
0.374196
-0.0981965
0.437698
-0.0385242
0.481966
-0.00716358
0.510528
0.00578425
0.527177
0.011759
0.535372
0.0149938
0.53803
0.0166804
0.537597
0.0168812
0.536225
0.015315
0.535963
0.0114963
0.00468214
0.183908
-0.200524
0.236922
-0.151211
0.305123
-0.106725
0.372822
-0.0748631
0.428436
-0.0498293
0.469538
-0.0293431
0.498025
-0.0134932
0.517297
-0.00259208
0.530798
0.00338053
0.54151
0.00460311
0.551883
0.00112362
-0.00722288
0.13195
-0.229466
0.173806
-0.193067
0.233739
-0.166657
0.297894
-0.139018
0.353134
-0.10507
0.395494
-0.0717035
0.42612
-0.0441191
0.448101
-0.024573
0.464664
-0.0131819
0.47844
-0.00917383
0.491279
-0.0117149
-0.0201187
0.0703478
-0.281452
0.0936054
-0.252723
0.130917
-0.230378
0.183844
-0.219585
0.237448
-0.192622
0.28267
-0.150292
0.316949
-0.105982
0.341643
-0.0688134
0.35949
-0.0424197
0.373082
-0.0267742
0.384267
-0.0203589
0.39402
-0.0214681
-0.0286177
0.0415883
-0.294385
0.0594579
-0.270593
0.0900775
-0.260997
0.130502
-0.26001
0.168404
-0.230524
0.198926
-0.180814
0.221189
-0.128244
0.236736
-0.0843607
0.247708
-0.0533915
0.255793
-0.0348595
0.261888
-0.0264543
0.266125
-0.0257043
-0.0305438
0.0146436
-0.298834
0.0232187
-0.279168
0.0397484
-0.277527
0.0606983
-0.280959
0.0792838
-0.249109
0.0934612
-0.194991
0.103058
-0.137841
0.109109
-0.0904116
0.112796
-0.0570786
0.114825
-0.0368885
0.115254
-0.0268835
0.113596
-0.0240466
-0.0260131
-0.0122461
-0.293812
-0.0187527
-0.272661
-0.0234198
-0.27286
-0.0265622
-0.277817
-0.029108
-0.246563
-0.0311179
-0.192981
-0.0330262
-0.135933
-0.035075
-0.0883628
-0.0374047
-0.0547489
-0.040305
-0.0339883
-0.0443616
-0.0228268
-0.0504373
-0.017971
-0.0169993
-0.0397565
-0.279184
-0.063059
-0.249359
-0.0918234
-0.244096
-0.12089
-0.248751
-0.144864
-0.222589
-0.162252
-0.175594
-0.17425
-0.123935
-0.182672
-0.0799406
-0.189103
-0.0483182
-0.194813
-0.0282784
-0.200957
-0.0166828
-0.208757
-0.0101709
-0.0064114
-0.0686378
-0.255937
-0.101083
-0.216914
-0.149119
-0.19606
-0.202571
-0.195299
-0.246599
-0.178561
-0.278234
-0.143959
-0.299504
-0.102665
-0.313354
-0.06609
-0.322541
-0.0391311
-0.329264
-0.0215555
-0.335309
-0.0106377
-0.342431
-0.00304934
0.00333729
-0.100068
-0.225369
-0.132155
-0.184827
-0.183247
-0.144968
-0.250942
-0.127603
-0.309359
-0.120144
-0.352207
-0.101111
-0.381562
-0.0733091
-0.40043
-0.0472227
-0.412113
-0.0274474
-0.419518
-0.0141504
-0.424963
-0.0051932
-0.430684
0.00267159
0.0112443
-0.136659
-0.185816
-0.171513
-0.149973
-0.209939
-0.106542
-0.261109
-0.0764337
-0.31495
-0.0663021
-0.36079
-0.0552718
-0.394944
-0.0391546
-0.417625
-0.0245421
-0.431765
-0.0133074
-0.440698
-0.0052166
-0.44694
0.00104848
-0.452496
0.00822763
0.0176105
-0.174919
-0.135522
-0.216789
-0.108103
-0.247962
-0.0753696
-0.274278
-0.050118
-0.305972
-0.034608
-0.337116
-0.0241274
-0.359959
-0.0163123
-0.374727
-0.00977412
-0.384247
-0.00378658
-0.391274
0.00181021
-0.397609
0.00738343
-0.403392
0.0140106
0.0220782
-0.202836
-0.0782077
-0.249663
-0.0612751
-0.283418
-0.0416152
-0.308315
-0.0252204
-0.328782
-0.0141416
-0.345323
-0.00758605
-0.358065
-0.00356989
-0.367353
-0.000486202
-0.373532
0.00239176
-0.376928
0.00520694
-0.377524
0.00797941
-0.374561
0.0110472
0.0147581
-0.224198
-0.2734
-0.307733
-0.33004
-0.344744
-0.355205
-0.363041
-0.36863
-0.371833
-0.372473
-0.370411
-0.365245
)
;

boundaryField
{
    top
    {
        type            calculated;
        value           nonuniform List<scalar> 
13
(
-0.0161731
-0.0120736
-0.00728221
-0.00291265
0.000562383
0.00287473
0.00426561
0.00510319
0.00559495
0.00584632
0.00591756
0.00588187
0.00581786
)
;
    }
    bottom
    {
        type            calculated;
        value           uniform 0;
    }
    frontAndBack
    {
        type            empty;
        value           nonuniform 0();
    }
    left_cyc
    {
        type            cyclic;
        value           nonuniform 0();
    }
    right_cyc
    {
        type            cyclic;
        value           nonuniform 0();
    }
    procBoundary3to0throughright_cyc
    {
        type            processorCyclic;
        value           nonuniform List<scalar> 
15
(
0.310384
0.538923
0.563788
0.504175
0.402519
0.268051
0.109066
-0.0594511
-0.219345
-0.35218
-0.438591
-0.458862
-0.40786
-0.367241
-0.356305
)
;
    }
    procBoundary3to2
    {
        type            processor;
        value           nonuniform List<scalar> 
16
(
-0.434885
-0.207339
-0.144174
-0.103009
0.260652
-0.0495478
-0.0286557
-0.0101943
0.00722431
0.0251289
0.0453906
0.0694996
0.0971062
0.124625
0.145521
0.162164
)
;
    }
}


// ************************************************************************* //
