/*--------------------------------*- C++ -*----------------------------------*\
| =========                 |                                                 |
| \\      /  F ield         | OpenFOAM: The Open Source CFD Toolbox           |
|  \\    /   O peration     | Version:  2.3.0                                 |
|   \\  /    A nd           | Web:      www.OpenFOAM.org                      |
|    \\/     M anipulation  |                                                 |
\*---------------------------------------------------------------------------*/
FoamFile
{
    version     2.0;
    format      ascii;
    class       volVectorField;
    location    "21000";
    object      U;
}
// * * * * * * * * * * * * * * * * * * * * * * * * * * * * * * * * * * * * * //

dimensions      [0 1 -1 0 0 0 0];

internalField   nonuniform List<vector> 
191
(
(72.658 0 -6.07461)
(79.8079 0 2.357)
(78.2247 0 6.761)
(72.6874 0 7.01854)
(67.0484 0 5.63213)
(62.312 0 4.18278)
(58.4675 0 3.09079)
(55.3069 0 2.35572)
(52.6366 0 1.86965)
(50.3544 0 1.52968)
(48.4442 0 1.25264)
(46.9817 0 0.957956)
(37.2004 0 -20.705)
(50.524 0 -10.5045)
(61.672 0 -1.01682)
(69.6534 0 3.2693)
(74.9556 0 4.26917)
(78.2218 0 4.16075)
(79.96 0 3.80298)
(80.6719 0 3.44552)
(80.7522 0 3.09804)
(80.5394 0 2.69737)
(80.3408 0 2.15052)
(80.4669 0 1.32762)
(24.6596 0 -27.3823)
(30.5976 0 -18.879)
(40.3154 0 -10.9711)
(51.2931 0 -6.06465)
(60.6406 0 -3.08068)
(67.8799 0 -1.0468)
(72.9798 0 0.390267)
(76.4257 0 1.32516)
(78.7629 0 1.77465)
(80.4789 0 1.7293)
(81.9807 0 1.14541)
(83.5945 0 -0.059306)
(17.5748 0 -32.4625)
(21.8967 0 -26.1312)
(30.0496 0 -20.6983)
(40.1878 0 -16.157)
(49.2994 0 -11.7208)
(56.6434 0 -7.66879)
(62.0127 0 -4.38515)
(65.8282 0 -2.06946)
(68.6058 0 -0.741725)
(70.797 0 -0.343147)
(72.7394 0 -0.815092)
(74.6469 0 -2.1208)
(9.04006 0 -40.9805)
(12.11 0 -36.359)
(15.71 0 -31.8304)
(23.4904 0 -29.1835)
(31.8518 0 -25.271)
(39.4145 0 -19.5644)
(45.3868 0 -13.6746)
(49.7119 0 -8.7389)
(52.7936 0 -5.2264)
(55.0642 0 -3.15571)
(56.8677 0 -2.35976)
(58.4159 0 -2.64943)
(59.7904 0 -3.85857)
(5.22752 0 -43.4847)
(7.27932 0 -39.4948)
(10.3135 0 -37.2506)
(16.6858 0 -36.6196)
(22.6373 0 -32.4586)
(27.8708 0 -25.4722)
(31.8084 0 -18.0742)
(34.5613 0 -11.8703)
(36.4733 0 -7.4754)
(37.8515 0 -4.85842)
(38.8947 0 -3.72959)
(39.6753 0 -3.76816)
(40.1616 0 -4.69733)
(1.81814 0 -44.8374)
(2.61024 0 -41.7001)
(4.24963 0 -41.0701)
(7.64761 0 -41.4189)
(10.6348 0 -36.7596)
(13.1356 0 -28.8199)
(14.8995 0 -20.4313)
(16.0247 0 -13.4573)
(16.7172 0 -8.55284)
(17.1304 0 -5.60479)
(17.3229 0 -4.20803)
(17.2556 0 -3.94095)
(16.8229 0 -4.46091)
(-1.43246 0 -44.8263)
(-2.15822 0 -42.0423)
(-3.33288 0 -42.1613)
(-3.82618 0 -42.8759)
(-4.18966 0 -37.9963)
(-4.53888 0 -29.7038)
(-4.81005 0 -20.946)
(-5.1005 0 -13.6856)
(-5.42128 0 -8.58327)
(-5.79733 0 -5.46795)
(-6.29113 0 -3.85856)
(-7.01569 0 -3.27247)
(-8.11508 0 -3.3436)
(-4.75932 0 -43.3437)
(-7.0441 0 -39.7686)
(-11.4616 0 -39.6663)
(-16.3227 0 -40.4875)
(-20.1398 0 -36.0098)
(-23.2884 0 -28.2282)
(-25.4117 0 -19.8654)
(-26.8752 0 -12.8457)
(-27.9343 0 -7.85538)
(-28.7996 0 -4.73696)
(-29.6435 0 -2.99622)
(-30.6428 0 -2.12681)
(-31.9852 0 -1.76686)
(-8.4489 0 -40.4186)
(-12.042 0 -35.0324)
(-17.7734 0 -33.6344)
(-27.0478 0 -34.0805)
(-34.1028 0 -30.72)
(-39.8285 0 -24.4283)
(-43.6739 0 -17.3154)
(-46.1938 0 -11.1479)
(-47.8254 0 -6.65466)
(-48.9444 0 -3.76208)
(-49.836 0 -2.02495)
(-50.7589 0 -0.940676)
(-51.9767 0 -0.170469)
(-12.8068 0 -36.3747)
(-17.2029 0 -30.1384)
(-21.9522 0 -25.3418)
(-33.0529 0 -24.9839)
(-42.5547 0 -23.234)
(-50.1929 0 -18.9171)
(-55.4972 0 -13.5177)
(-58.99 0 -8.67193)
(-61.1565 0 -5.06856)
(-62.4892 0 -2.68842)
(-63.3682 0 -1.15341)
(-64.1262 0 0.0345042)
(-65.0939 0 1.18024)
(-17.7851 0 -31.1982)
(-23.2112 0 -25.2495)
(-27.9571 0 -18.0608)
(-35.0471 0 -13.2065)
(-43.449 0 -12.9478)
(-51.078 0 -11.8303)
(-57.1245 0 -8.81921)
(-61.3261 0 -5.71349)
(-63.959 0 -3.31084)
(-65.5777 0 -1.68754)
(-66.6299 0 -0.555706)
(-67.4559 0 0.618034)
(-68.3121 0 2.0634)
(-22.7269 0 -24.5933)
(-29.7552 0 -19.7264)
(-35.1298 0 -13.7857)
(-39.2105 0 -9.35217)
(-43.231 0 -6.56835)
(-48.5474 0 -4.4785)
(-52.6249 0 -2.90682)
(-55.3433 0 -1.726)
(-57.0592 0 -0.718178)
(-58.2056 0 0.204805)
(-59.155 0 1.12645)
(-60.1194 0 2.27979)
(-60.9183 0 3.7844)
(-26.452 0 -15.4257)
(-34.4089 0 -12.2284)
(-40.4106 0 -8.52307)
(-44.5969 0 -5.50135)
(-47.9156 0 -3.5183)
(-50.7232 0 -2.35848)
(-52.8983 0 -1.59525)
(-54.533 0 -0.959828)
(-55.6767 0 -0.355618)
(-56.3821 0 0.226274)
(-56.6945 0 0.801742)
(-56.5609 0 1.46379)
(-55.8052 0 2.27338)
(-29.383 0 -10.1362)
(-37.8645 0 -7.75328)
(-44.1136 0 -5.01568)
(-48.1884 0 -2.62933)
(-50.8136 0 -0.898174)
(-52.6187 0 0.215597)
(-53.9565 0 0.893345)
(-54.9632 0 1.35272)
(-55.6293 0 1.71597)
(-55.9221 0 2.02647)
(-55.8242 0 2.28877)
(-55.3043 0 2.51384)
(-54.2676 0 2.729)
)
;

boundaryField
{
    top
    {
        type            directionMixed;
        refValue        uniform (0 0 0);
        refGradient     uniform (0 0 0);
        valueFraction   uniform (0 0 0 0 0 1);
        value           nonuniform List<vector> 
13
(
(-29.383 0 0)
(-37.8645 0 0)
(-44.1136 0 0)
(-48.1884 0 0)
(-50.8136 0 0)
(-52.6187 0 0)
(-53.9565 0 0)
(-54.9632 0 0)
(-55.6293 0 0)
(-55.9221 0 0)
(-55.8242 0 0)
(-55.3043 0 0)
(-54.2676 0 0)
)
;
    }
    bottom
    {
        type            fixedValue;
        value           uniform (0 0 0);
    }
    frontAndBack
    {
        type            empty;
    }
    left_cyc
    {
        type            cyclic;
    }
    right_cyc
    {
        type            cyclic;
    }
    procBoundary3to0throughright_cyc
    {
        type            processorCyclic;
        value           nonuniform List<vector> 
15
(
(46.1624 0 0.556473)
(81.2377 0 0.0840811)
(85.552 0 -1.94567)
(76.6056 0 -4.19839)
(60.9624 0 -5.80721)
(40.2506 0 -6.25397)
(15.8956 0 -5.47524)
(-9.7196 0 -3.79545)
(-33.8194 0 -1.68421)
(-53.6838 0 0.442748)
(-66.4965 0 2.31823)
(-69.3637 0 3.61106)
(-61.4549 0 5.47)
(-54.3653 0 3.11459)
(-52.6228 0 2.93171)
)
;
    }
    procBoundary3to2
    {
        type            processor;
        value           nonuniform List<vector> 
16
(
(58.0652 0 -15.0957)
(24.7615 0 -23.7347)
(18.4793 0 -32.1703)
(13.3862 0 -37.1125)
(13.3862 0 -37.1125)
(5.8574 0 -44.2555)
(3.39622 0 -46.7861)
(1.24131 0 -48.0484)
(-0.776593 0 -48.0917)
(-2.86626 0 -46.937)
(-5.27278 0 -44.5214)
(-8.14028 0 -40.6863)
(-11.4191 0 -35.1488)
(-14.6849 0 -27.8909)
(-17.2117 0 -17.6812)
(-19.257 0 -11.8915)
)
;
    }
}


// ************************************************************************* //
