/*--------------------------------*- C++ -*----------------------------------*\
| =========                 |                                                 |
| \\      /  F ield         | OpenFOAM: The Open Source CFD Toolbox           |
|  \\    /   O peration     | Version:  2.3.0                                 |
|   \\  /    A nd           | Web:      www.OpenFOAM.org                      |
|    \\/     M anipulation  |                                                 |
\*---------------------------------------------------------------------------*/
FoamFile
{
    version     2.0;
    format      ascii;
    class       volScalarField;
    location    "19000";
    object      p;
}
// * * * * * * * * * * * * * * * * * * * * * * * * * * * * * * * * * * * * * //

dimensions      [0 2 -2 0 0 0 0];

internalField   nonuniform List<scalar> 
192
(
-1662.39
-1671.22
-1679.89
-1689.06
-1699.67
-1712.66
-1728.53
-1746.67
-1764.96
-1779.5
-1784.44
-1775.23
-1758.86
-1497.21
-1505.72
-1514.48
-1523.83
-1534.1
-1545.5
-1557.91
-1570.81
-1582.62
-1591.2
-1594.16
-1588.7
-1578.82
-1359.53
-1366.6
-1374.08
-1382.04
-1390.49
-1399.39
-1408.5
-1417.09
-1423.96
-1428.17
-1429.61
-1426.97
-1421.88
-1236.98
-1241.97
-1247.26
-1252.77
-1258.41
-1264.12
-1269.64
-1274.22
-1277
-1277.91
-1278.14
-1277.72
-1276.32
-1118.03
-1120.85
-1123.77
-1126.72
-1129.65
-1132.53
-1135.15
-1136.89
-1137.16
-1136.17
-1135.62
-1136.59
-1137.32
-996.825
-997.815
-998.763
-999.64
-1000.45
-1001.16
-1001.6
-1001.38
-1000.1
-998.046
-997.077
-998.829
-1000.75
-871.26
-870.859
-870.353
-869.761
-869.081
-868.224
-867.065
-865.375
-862.988
-860.247
-859.091
-861.246
-863.984
-741.091
-739.692
-738.184
-736.569
-734.8
-732.763
-730.339
-727.424
-724.091
-720.906
-719.69
-722.016
-725.357
-606.965
-604.808
-602.526
-600.07
-597.355
-594.276
-590.72
-586.72
-582.588
-579.121
-577.88
-580.27
-584.055
-469.825
-466.915
-463.854
-460.545
-456.876
-452.737
-448.081
-443.074
-438.224
-434.5
-433.214
-435.658
-439.844
-331.331
-327.418
-323.341
-318.96
-314.135
-308.771
-302.894
-296.789
-291.122
-287.002
-285.607
-288.18
-292.902
-195.361
-189.928
-184.382
-178.529
-172.198
-165.29
-157.877
-150.338
-143.486
-138.601
-136.955
-139.879
-145.517
-68.0551
-60.1732
-52.0657
-43.5698
-34.5561
-24.982
-15.0009
-5.10868
3.72669
10.009
12.1422
8.4856
23.59
33.212
42.9537
53.0153
63.6661
75.1476
87.5013
100.288
112.275
121.198
124.365
119.097
73.9766
69.1807
63.4214
56.7018
48.8895
39.8013
29.3599
17.8538
6.36139
-2.85575
-5.8652
-0.578618
)
;

boundaryField
{
    top
    {
        type            calculated;
        value           nonuniform List<scalar> 
12
(
-9.81
-9.81
-9.81
-9.81
-9.81
-9.81
-9.81
-9.81
-9.81
-9.81
-9.81
-9.81
)
;
    }
    bottom
    {
        type            calculated;
        value           nonuniform List<scalar> 
13
(
-1753.4
-1762.37
-1770.92
-1779.86
-1790.29
-1803.4
-1819.88
-1838.67
-1857.83
-1873.54
-1879.13
-1868.84
-1851.36
)
;
    }
    frontAndBack
    {
        type            empty;
    }
    left_cyc
    {
        type            cyclic;
    }
    right_cyc
    {
        type            cyclic;
    }
    procBoundary0to1
    {
        type            processor;
        value           nonuniform List<scalar> 
16
(
-1740.2
-1566.34
-1414.23
-1272.84
-1136.52
-1001.66
-866.139
-728.585
-588.212
-444.841
-298.825
-152.724
1.23903
1.23903
108.956
9.85595
)
;
    }
    procBoundary0to3throughleft_cyc
    {
        type            processorCyclic;
        value           nonuniform List<scalar> 
15
(
-1652.93
-1488.66
-1352.8
-1232.33
-1115.4
-995.845
-871.555
-742.361
-609.015
-472.663
-335.22
-200.879
-75.9031
14.1057
77.788
)
;
    }
}


// ************************************************************************* //
