/*--------------------------------*- C++ -*----------------------------------*\
| =========                 |                                                 |
| \\      /  F ield         | OpenFOAM: The Open Source CFD Toolbox           |
|  \\    /   O peration     | Version:  2.3.0                                 |
|   \\  /    A nd           | Web:      www.OpenFOAM.org                      |
|    \\/     M anipulation  |                                                 |
\*---------------------------------------------------------------------------*/
FoamFile
{
    version     2.0;
    format      ascii;
    class       volScalarField;
    location    "19000";
    object      T;
}
// * * * * * * * * * * * * * * * * * * * * * * * * * * * * * * * * * * * * * //

dimensions      [0 0 0 1 0 0 0];

internalField   nonuniform List<scalar> 
192
(
40.0065
40.0648
40.0158
39.9128
39.8353
39.8873
40.1513
40.4357
40.82
41.3327
41.6176
41.1439
40.6596
33.0388
33.224
33.2964
33.3031
33.3325
33.5097
33.9269
34.75
36.1073
37.9002
38.8632
37.2713
35.5812
28.1397
28.4604
28.7083
28.9122
29.1248
29.4368
30.0029
31.1887
33.1785
35.7917
37.1698
34.8761
32.389
26.0234
26.3985
26.7412
27.0536
27.3461
27.6716
28.2519
29.4717
31.6366
34.5741
36.1153
33.5441
30.7622
26.0028
26.3391
26.6693
26.969
27.2171
27.4514
27.8959
28.9344
31.0036
33.944
35.4718
32.9167
30.1511
26.9199
27.1963
27.4643
27.6829
27.8211
27.9349
28.1871
29.0237
30.9256
33.6927
35.0931
32.7389
30.1322
28.0581
28.2729
28.4561
28.5679
28.5923
28.5988
28.7735
29.5283
31.2118
33.6022
34.8175
32.7924
30.5244
29.0996
29.2445
29.3415
29.3809
29.3931
29.4061
29.6123
30.2786
31.646
33.5554
34.579
32.9181
31.1036
29.9122
30.0242
30.106
30.1624
30.2009
30.2793
30.5156
31.0754
32.1148
33.5405
34.3687
33.077
31.7191
30.4685
30.6179
30.7424
30.8481
30.9531
31.0952
31.3422
31.7927
32.5417
33.5414
34.177
33.2334
32.2749
30.5051
30.7604
30.9942
31.2116
31.4227
31.6472
31.9213
32.299
32.8337
33.5033
33.961
33.3176
32.6648
29.4223
29.8622
30.2772
30.6732
31.0551
31.4297
31.8087
32.212
32.6598
33.1362
33.4543
33.0249
32.5411
26.0995
26.7522
27.3758
27.9793
28.569
29.1468
29.7108
30.2549
30.7672
31.2116
31.4533
31.1193
19.2066
19.9156
20.6021
21.2722
21.929
22.5713
23.1923
23.7779
24.3019
24.7132
24.8915
24.6282
7.71496
8.10717
8.49553
8.88145
9.26428
9.63992
9.99985
10.3301
10.6105
10.812
10.8869
10.7703
)
;

boundaryField
{
    top
    {
        type            fixedValue;
        value           uniform 0;
    }
    bottom
    {
        type            fixedValue;
        value           uniform 43.8;
    }
    frontAndBack
    {
        type            empty;
    }
    left_cyc
    {
        type            cyclic;
    }
    right_cyc
    {
        type            cyclic;
    }
    procBoundary0to1
    {
        type            processor;
        value           nonuniform List<scalar> 
16
(
40.3084
34.4208
30.6736
28.9331
28.4636
28.6246
29.1728
29.9819
30.8443
31.625
32.1793
32.1038
30.6418
30.6418
24.1722
10.5413
)
;
    }
    procBoundary0to3throughleft_cyc
    {
        type            processorCyclic;
        value           nonuniform List<scalar> 
15
(
39.8413
32.7044
27.7371
25.6155
25.6758
26.6638
27.8478
28.9313
29.7721
30.2932
30.2244
28.9516
25.4101
18.4702
7.31824
)
;
    }
}


// ************************************************************************* //
