/*--------------------------------*- C++ -*----------------------------------*\
| =========                 |                                                 |
| \\      /  F ield         | OpenFOAM: The Open Source CFD Toolbox           |
|  \\    /   O peration     | Version:  2.3.0                                 |
|   \\  /    A nd           | Web:      www.OpenFOAM.org                      |
|    \\/     M anipulation  |                                                 |
\*---------------------------------------------------------------------------*/
FoamFile
{
    version     2.0;
    format      ascii;
    class       volScalarField;
    location    "5000";
    object      p_rgh;
}
// * * * * * * * * * * * * * * * * * * * * * * * * * * * * * * * * * * * * * //

dimensions      [0 2 -2 0 0 0 0];

internalField   nonuniform List<scalar> 
192
(
-1754.91
-1764
-1772.6
-1781.53
-1791.87
-1804.8
-1821.05
-1839.59
-1858.5
-1873.93
-1879.13
-1868.49
-1850.75
-1724.09
-1733.99
-1743.32
-1752.73
-1763.13
-1775.6
-1790.69
-1809
-1829.86
-1850.4
-1859.31
-1842.46
-1820.72
-1681.01
-1691.79
-1702.13
-1712.4
-1723.21
-1735.55
-1750.96
-1772.88
-1802.22
-1835.91
-1852.17
-1822.7
-1788.93
-1653
-1663.89
-1674.56
-1684.97
-1695.2
-1706
-1720.65
-1744.52
-1781.65
-1829.09
-1852.89
-1810.61
-1764.43
-1652.21
-1661.68
-1671.17
-1680.12
-1688.04
-1695.67
-1707.31
-1730.2
-1772.67
-1831.58
-1861.42
-1809.1
-1752.6
-1672.05
-1679.65
-1687.08
-1693.3
-1697.53
-1701.1
-1707.83
-1728.41
-1774.49
-1841.31
-1874.75
-1816.68
-1752.62
-1702.03
-1707.72
-1712.48
-1715.16
-1715.25
-1714.65
-1718.61
-1739.01
-1786.11
-1853.82
-1888.19
-1829.79
-1764.73
-1734.34
-1737.77
-1739.56
-1739.35
-1738.07
-1736.51
-1741.03
-1760.6
-1803.62
-1865.45
-1898.99
-1844.21
-1784.99
-1763.44
-1765.62
-1766.54
-1766.34
-1765.2
-1765.17
-1770.66
-1788.09
-1823.91
-1875.5
-1906.29
-1858.48
-1809.22
-1785.82
-1789.47
-1791.91
-1793.28
-1794.23
-1796.26
-1802.24
-1816.56
-1843.91
-1883.34
-1909.63
-1871.11
-1833.46
-1787.02
-1795.51
-1802.78
-1808.94
-1814.33
-1819.78
-1827.04
-1838.94
-1858.74
-1886.54
-1907.09
-1878.73
-1851.97
-1731.88
-1749.9
-1766.45
-1781.63
-1795.54
-1808.45
-1821.03
-1834.69
-1851.29
-1871.3
-1886.28
-1866.45
-1846.56
-1547.1
-1577.22
-1605.33
-1631.8
-1656.84
-1680.56
-1702.97
-1724.25
-1744.66
-1763.6
-1775.09
-1759.34
-1147.26
-1182.23
-1215.62
-1247.58
-1278.06
-1306.71
-1333.09
-1356.72
-1377.18
-1393.53
-1401.3
-1390.04
-416.887
-448.323
-480.59
-513.744
-547.857
-582.837
-618.198
-652.733
-684.006
-707.835
-717.217
-705.447
)
;

boundaryField
{
    top
    {
        type            fixedValue;
        value           uniform 0;
    }
    bottom
    {
        type            fixedFluxPressure;
        gradient        uniform 0;
        value           nonuniform List<scalar> 
13
(
-1754.91
-1764
-1772.6
-1781.53
-1791.87
-1804.8
-1821.05
-1839.59
-1858.5
-1873.93
-1879.13
-1868.49
-1850.75
)
;
    }
    frontAndBack
    {
        type            empty;
    }
    left_cyc
    {
        type            cyclic;
    }
    right_cyc
    {
        type            cyclic;
    }
    procBoundary0to1
    {
        type            processor;
        value           nonuniform List<scalar> 
16
(
-1831.05
-1800.06
-1761.48
-1731.5
-1716.86
-1715.33
-1726.34
-1749.37
-1779.05
-1809.99
-1834.46
-1830.76
-1739.16
-1739.16
-1371.97
-681.029
)
;
    }
    procBoundary0to3throughleft_cyc
    {
        type            processorCyclic;
        value           nonuniform List<scalar> 
15
(
-1744.94
-1713.04
-1669.62
-1641.95
-1643.14
-1665.02
-1696.45
-1730.09
-1760.12
-1780.99
-1777.27
-1712.27
-1514.8
-1110.44
-386.299
)
;
    }
}


// ************************************************************************* //
