/*--------------------------------*- C++ -*----------------------------------*\
| =========                 |                                                 |
| \\      /  F ield         | OpenFOAM: The Open Source CFD Toolbox           |
|  \\    /   O peration     | Version:  2.3.0                                 |
|   \\  /    A nd           | Web:      www.OpenFOAM.org                      |
|    \\/     M anipulation  |                                                 |
\*---------------------------------------------------------------------------*/
FoamFile
{
    version     2.0;
    format      ascii;
    class       volScalarField;
    location    "5000";
    object      T;
}
// * * * * * * * * * * * * * * * * * * * * * * * * * * * * * * * * * * * * * //

dimensions      [0 0 0 1 0 0 0];

internalField   nonuniform List<scalar> 
192
(
40.0024
40.0799
40.0446
39.9501
39.8757
39.9257
40.1846
40.466
40.8471
41.3529
41.6125
41.1222
40.633
33.0572
33.2627
33.3528
33.3726
33.4089
33.5874
34.0028
34.8202
36.1701
37.9482
38.8511
37.2212
35.5216
28.1951
28.5281
28.7867
28.9984
29.2153
29.5284
30.0921
31.2721
33.2535
35.8481
37.1559
34.8167
32.3173
26.118
26.4931
26.8359
27.1482
27.4404
27.7657
28.3429
29.5562
31.7108
34.6272
36.1034
33.4877
30.6911
26.1163
26.4436
26.7664
27.0609
27.3065
27.5402
27.9825
29.0144
31.0706
33.9873
35.4636
32.8698
30.0863
27.0277
27.292
27.5506
27.7636
27.9005
28.0151
28.2669
29.096
30.9813
33.7232
35.0893
32.705
30.0772
28.146
28.3504
28.5269
28.6363
28.6617
28.6698
28.8417
29.5854
31.2511
33.6228
34.8156
32.7721
30.4858
29.1665
29.3058
29.4006
29.4401
29.4528
29.4655
29.6664
30.321
31.6722
33.568
34.5787
32.9081
31.0786
29.9644
30.0743
30.1548
30.2111
30.2496
30.326
30.5567
31.1063
32.1325
33.548
34.3698
33.073
31.7035
30.5075
30.6569
30.7818
30.8874
30.9915
31.1313
31.3734
31.816
32.5552
33.5468
34.1791
33.2318
32.2643
30.5326
30.7897
31.0244
31.242
31.4525
31.6753
31.9461
32.3185
32.8462
33.5091
33.9637
33.3155
32.6559
29.4314
29.8771
30.2962
30.6946
31.0776
31.4519
31.8294
32.2297
32.6731
33.144
33.4575
33.0214
32.532
26.0819
26.7463
27.3794
27.9899
28.5843
29.1647
29.7294
30.2725
30.7817
31.2209
31.4569
31.114
19.1713
19.8931
20.5912
21.2709
21.9353
22.5833
23.2077
23.7942
24.3161
24.7216
24.8943
24.6214
7.70363
8.1017
8.4955
8.88613
9.27276
9.65112
10.0124
10.3425
10.6205
10.8175
10.8883
10.7655
)
;

boundaryField
{
    top
    {
        type            fixedValue;
        value           uniform 0;
    }
    bottom
    {
        type            fixedValue;
        value           uniform 43.8;
    }
    frontAndBack
    {
        type            empty;
    }
    left_cyc
    {
        type            cyclic;
    }
    right_cyc
    {
        type            cyclic;
    }
    procBoundary0to1
    {
        type            processor;
        value           nonuniform List<scalar> 
16
(
40.2787
34.3552
30.5947
28.854
28.3888
28.5568
29.1187
29.9421
30.8163
31.6051
32.1639
32.0905
30.6307
30.6307
24.159
10.5317
)
;
    }
    procBoundary0to3throughleft_cyc
    {
        type            processorCyclic;
        value           nonuniform List<scalar> 
15
(
39.8255
32.6932
27.7801
25.7107
25.7993
26.7855
27.9486
29.0066
29.8276
30.3323
30.2494
28.9533
25.3794
18.4218
7.30136
)
;
    }
}


// ************************************************************************* //
