/*--------------------------------*- C++ -*----------------------------------*\
| =========                 |                                                 |
| \\      /  F ield         | OpenFOAM: The Open Source CFD Toolbox           |
|  \\    /   O peration     | Version:  2.3.0                                 |
|   \\  /    A nd           | Web:      www.OpenFOAM.org                      |
|    \\/     M anipulation  |                                                 |
\*---------------------------------------------------------------------------*/
FoamFile
{
    version     2.0;
    format      ascii;
    class       volScalarField;
    location    "21000";
    object      p;
}
// * * * * * * * * * * * * * * * * * * * * * * * * * * * * * * * * * * * * * //

dimensions      [0 2 -2 0 0 0 0];

internalField   nonuniform List<scalar> 
191
(
-1582.09
-1562.18
-1537.7
-1506.42
-1464.77
-1408.75
-1341.86
-1264.08
-1172.04
-1109.93
-1126.39
-1207.92
-1296.55
-1432.76
-1418.77
-1402.57
-1383.71
-1360.83
-1332.25
-1298.89
-1274.34
-1281.51
-1282.47
-1282.87
-1276.91
-1280.55
-1317.6
-1310.9
-1304.23
-1297.73
-1284.48
-1268.17
-1247.88
-1212.58
-1204.31
-1203.23
-1203.67
-1205.27
-1224.64
-1212.57
-1209.3
-1205.82
-1201.86
-1187.05
-1161.36
-1139.38
-1129.96
-1122.97
-1117.62
-1119.11
-1125.69
-1133.16
-1104.35
-1101.67
-1098.09
-1093.85
-1083.88
-1062.87
-1030.4
-1022.72
-1022.94
-1021.6
-1022.06
-1022.96
-990.45
-988.259
-985.11
-981.21
-974.851
-961.945
-936.009
-931.777
-933.138
-932.678
-932.909
-932.347
-870.886
-869.628
-867.727
-865.388
-862.023
-857.39
-847.566
-846.907
-846.509
-845.835
-846.096
-846.518
-746.393
-746.376
-746.15
-745.984
-745.319
-748.679
-761.485
-765.875
-762.897
-761.198
-761.629
-764.783
-616.905
-618.497
-620.152
-622.085
-624.602
-626.928
-638.872
-675.594
-684.61
-679.27
-676.729
-677.347
-683.366
-485.665
-489.094
-492.958
-497.624
-503.442
-510.253
-533.524
-590.644
-600.217
-592.851
-590.72
-591.075
-597.025
-355.196
-361.17
-368.109
-376.588
-386.823
-399.718
-427.016
-492.581
-506.528
-502.138
-502.603
-502.253
-503.172
-230.729
-239.7
-249.404
-259.379
-267.591
-283.717
-319.743
-383.503
-402.552
-410.278
-415.382
-414.1
-407.289
-117.792
-127.764
-135.367
-141.039
-143.856
-157.942
-210.763
-276.176
-311.554
-333.483
-343.781
-341.243
-326.064
-15.1752
-15.9182
-15.4394
-20.1989
-35.4476
-66.4144
-118.909
-170.073
-202.567
-223.744
-233.602
-231.189
-216.785
81.8637
71.6367
53.3632
21.5321
-30.0624
-104.862
-194.304
-283.16
-354.547
-404.86
-428.827
-422.985
-388.357
)
;

boundaryField
{
    top
    {
        type            calculated;
        value           nonuniform List<scalar> 
13
(
-9.81
-9.81
-9.81
-9.81
-9.81
-9.81
-9.81
-9.81
-9.81
-9.81
-9.81
-9.81
-9.81
)
;
    }
    bottom
    {
        type            calculated;
        value           nonuniform List<scalar> 
13
(
-1668.08
-1646.54
-1620.02
-1586.25
-1541.59
-1481.87
-1411.61
-1331.33
-1237.53
-1174.67
-1191.34
-1273.99
-1364.68
)
;
    }
    frontAndBack
    {
        type            empty;
    }
    left_cyc
    {
        type            cyclic;
    }
    right_cyc
    {
        type            cyclic;
    }
    procBoundary2to1
    {
        type            processor;
        value           nonuniform List<scalar> 
16
(
-1598.93
-1445.17
-1324.27
-1215.83
-1106.5
-991.952
-871.607
-746.139
-746.139
-615.268
-482.496
-349.908
-222.682
-107.227
-11.7103
86.3309
)
;
    }
    procBoundary2to3
    {
        type            processor;
        value           nonuniform List<scalar> 
16
(
-1368.54
-1312.75
-1257.61
-1143.36
-1024.59
-1024.59
-933.089
-847.794
-766.755
-686.324
-599.115
-504.349
-399.17
-299.867
-191.548
-329.408
)
;
    }
}


// ************************************************************************* //
