/*--------------------------------*- C++ -*----------------------------------*\
| =========                 |                                                 |
| \\      /  F ield         | OpenFOAM: The Open Source CFD Toolbox           |
|  \\    /   O peration     | Version:  2.3.0                                 |
|   \\  /    A nd           | Web:      www.OpenFOAM.org                      |
|    \\/     M anipulation  |                                                 |
\*---------------------------------------------------------------------------*/
FoamFile
{
    version     2.0;
    format      ascii;
    class       volScalarField;
    location    "21000";
    object      T;
}
// * * * * * * * * * * * * * * * * * * * * * * * * * * * * * * * * * * * * * //

dimensions      [0 0 0 1 0 0 0];

internalField   nonuniform List<scalar> 
191
(
37.8091
37.0929
36.2001
35.1067
33.7926
32.1737
30.6956
29.5962
28.8291
28.4973
28.589
29.0791
29.9837
28.9271
27.8147
26.449
24.7125
22.6254
20.6689
19.0678
17.7451
16.7256
16.1817
16.333
17.0836
18.2368
23.7896
22.7639
21.6202
20.349
18.8866
17.2556
15.5711
13.9878
12.7158
12.0219
12.2119
13.1677
14.595
22.8703
22.1988
21.3693
20.2887
18.858
17.0722
15.0771
13.1039
11.4918
10.6191
10.8518
12.0606
13.863
23.9909
23.4789
22.7243
21.6009
19.9895
17.8797
15.4641
13.04
11.0494
9.98368
10.2608
11.7447
25.5415
25.0683
24.2865
23.0562
21.249
18.8249
15.9937
13.1278
10.7663
9.51088
9.83182
11.5849
26.9173
26.4303
25.5897
24.2509
22.2793
19.6054
16.4228
13.1682
10.4716
9.0368
9.4007
11.4026
27.9245
27.383
26.4671
25.0357
22.9474
20.1103
16.6648
13.1009
10.1218
8.51726
8.92572
11.1503
28.891
28.4821
27.8343
26.8254
25.3281
23.1873
20.2492
16.6153
12.8509
9.67603
7.92594
8.37741
10.7751
29.0708
28.5164
27.719
26.5846
25.01
22.8294
19.8359
16.1243
12.3117
9.06484
7.22731
7.70929
10.1941
28.4395
27.7153
26.7544
25.4926
23.8521
21.6474
18.6678
15.0722
11.405
8.24054
6.39766
6.88914
9.34612
26.395
25.5248
24.4513
23.1243
21.4774
19.3286
16.5449
13.3284
10.0355
7.14129
5.4073
5.87672
8.15777
22.1314
21.2262
20.1986
18.9868
17.5068
15.6552
13.374
10.7691
8.08454
5.68905
4.21834
4.62195
6.53563
15.227
14.5041
13.7268
12.8518
11.8112
10.5316
8.98941
7.24742
5.44715
3.81813
2.79488
3.07885
4.39689
5.67894
5.34046
5.02055
4.69091
4.32331
3.89051
3.37543
2.77999
2.13465
1.51908
1.11438
1.22842
1.74094
)
;

boundaryField
{
    top
    {
        type            fixedValue;
        value           uniform 0;
    }
    bottom
    {
        type            fixedValue;
        value           uniform 43.8;
    }
    frontAndBack
    {
        type            empty;
    }
    left_cyc
    {
        type            cyclic;
    }
    right_cyc
    {
        type            cyclic;
    }
    procBoundary2to1
    {
        type            processor;
        value           nonuniform List<scalar> 
16
(
38.3802
29.8664
24.7204
23.4526
24.3637
25.8291
27.1862
28.23
28.23
29.1657
29.4689
28.9959
27.1171
22.9517
15.9422
6.04014
)
;
    }
    procBoundary2to3
    {
        type            processor;
        value           nonuniform List<scalar> 
16
(
31.2106
19.6577
16.2437
15.8874
13.9664
13.9664
14.2166
14.4004
14.4481
14.2711
13.7433
12.7697
11.2614
9.08844
6.12129
2.3794
)
;
    }
}


// ************************************************************************* //
