/*--------------------------------*- C++ -*----------------------------------*\
| =========                 |                                                 |
| \\      /  F ield         | OpenFOAM: The Open Source CFD Toolbox           |
|  \\    /   O peration     | Version:  2.3.0                                 |
|   \\  /    A nd           | Web:      www.OpenFOAM.org                      |
|    \\/     M anipulation  |                                                 |
\*---------------------------------------------------------------------------*/
FoamFile
{
    version     2.0;
    format      ascii;
    class       volVectorField;
    location    "21000";
    object      U;
}
// * * * * * * * * * * * * * * * * * * * * * * * * * * * * * * * * * * * * * //

dimensions      [0 1 -1 0 0 0 0];

internalField   nonuniform List<vector> 
191
(
(-59.8647 0 3.48013)
(-64.0566 0 4.73449)
(-69.192 0 6.25988)
(-75.0806 0 7.29249)
(-79.7588 0 5.60953)
(-78.1011 0 -0.671179)
(-67.7983 0 -9.53608)
(-50.8268 0 -18.4274)
(-29.0798 0 -24.6131)
(-6.90267 0 -25.7139)
(15.3294 0 -25.5394)
(37.475 0 -22.9397)
(58.0652 0 -15.0957)
(-79.4119 0 3.96227)
(-77.1481 0 4.28983)
(-73.1404 0 4.13783)
(-66.9379 0 2.21499)
(-57.7648 0 -4.19766)
(-45.5468 0 -15.1093)
(-32.2615 0 -22.245)
(-21.0386 0 -24.2955)
(-11.9705 0 -25.9964)
(-2.96535 0 -26.8646)
(6.22723 0 -26.6717)
(15.217 0 -25.4342)
(24.7615 0 -23.7347)
(-71.2088 0 -0.103158)
(-65.3095 0 -1.73147)
(-57.1863 0 -4.03707)
(-47.1962 0 -7.56219)
(-35.9848 0 -13.5768)
(-28.5004 0 -22.4539)
(-22.5191 0 -29.4868)
(-16.1545 0 -33.224)
(-9.27229 0 -35.1094)
(-2.27454 0 -35.891)
(4.77634 0 -35.728)
(11.7559 0 -34.5884)
(18.4793 0 -32.1703)
(-60.1635 0 -5.56338)
(-54.0521 0 -9.15821)
(-45.9208 0 -13.3717)
(-36.4009 0 -17.7925)
(-26.1947 0 -22.4525)
(-20.3654 0 -28.3581)
(-16.1886 0 -34.4003)
(-11.8343 0 -38.3485)
(-6.94116 0 -40.8237)
(-1.72448 0 -41.9627)
(3.58965 0 -41.7079)
(8.70136 0 -40.0748)
(13.3862 0 -37.1125)
(-48.2894 0 -10.5145)
(-43.3727 0 -15.8829)
(-36.7284 0 -21.8279)
(-28.8482 0 -26.9456)
(-20.2091 0 -29.8967)
(-14.2825 0 -32.9989)
(-11.0331 0 -38.2487)
(-7.99676 0 -42.3468)
(-4.68892 0 -45.108)
(-1.1752 0 -46.4017)
(2.41384 0 -46.1064)
(5.8574 0 -44.2555)
(-33.7431 0 -14.0814)
(-30.5835 0 -20.8411)
(-26.1209 0 -28.277)
(-20.5379 0 -34.3918)
(-14.1494 0 -36.8609)
(-8.70792 0 -37.456)
(-6.50591 0 -40.9923)
(-4.6462 0 -44.8022)
(-2.73734 0 -47.71)
(-0.696152 0 -49.1405)
(1.39693 0 -48.8081)
(3.39622 0 -46.7861)
(-15.8137 0 -15.9184)
(-14.4803 0 -23.5656)
(-12.4038 0 -32.0582)
(-9.62348 0 -39.0624)
(-6.17894 0 -41.6942)
(-3.15068 0 -40.484)
(-2.30867 0 -42.5705)
(-1.67328 0 -46.0532)
(-1.03544 0 -49.0147)
(-0.276277 0 -50.5342)
(0.521872 0 -50.1763)
(1.24131 0 -48.0484)
(4.78846 0 -16.2208)
(4.47277 0 -24.216)
(4.17828 0 -33.1387)
(3.77733 0 -40.5356)
(3.6453 0 -43.3131)
(2.7262 0 -41.1586)
(1.86569 0 -42.6069)
(1.13011 0 -46.0477)
(0.550878 0 -49.1104)
(0.113305 0 -50.7089)
(-0.284748 0 -50.3279)
(-0.776593 0 -48.0917)
(27.3948 0 -9.47902)
(26.1601 0 -15.2541)
(24.4204 0 -22.9482)
(21.8805 0 -31.4165)
(18.2295 0 -38.3177)
(14.2436 0 -40.8077)
(8.67366 0 -38.8357)
(6.12279 0 -40.7761)
(3.9964 0 -44.7272)
(2.18469 0 -48.0196)
(0.510487 0 -49.6987)
(-1.13012 0 -49.2984)
(-2.86626 0 -46.937)
(47.143 0 -8.0843)
(45.1914 0 -13.2235)
(42.1933 0 -19.8965)
(37.6562 0 -26.9526)
(31.2073 0 -32.3916)
(23.6841 0 -34.1587)
(14.1926 0 -33.6806)
(10.5144 0 -37.4284)
(7.18745 0 -42.1464)
(4.03607 0 -45.668)
(0.952342 0 -47.3865)
(-2.13815 0 -46.975)
(-5.27278 0 -44.5214)
(60.3749 0 -6.19881)
(57.7669 0 -10.2904)
(53.6657 0 -15.5024)
(47.5387 0 -20.7509)
(39.1824 0 -24.3606)
(28.9599 0 -24.9931)
(19.9574 0 -25.991)
(15.4394 0 -32.9739)
(10.9906 0 -38.3044)
(6.27075 0 -41.8396)
(1.48199 0 -43.5006)
(-3.3671 0 -43.0963)
(-8.14028 0 -40.6863)
(63.0649 0 -4.05362)
(59.9093 0 -6.74643)
(55.0392 0 -10.0032)
(48.2173 0 -12.5286)
(40.3853 0 -12.9749)
(31.4079 0 -14.676)
(26.2317 0 -20.5551)
(21.3273 0 -27.8373)
(15.3473 0 -32.9732)
(8.85264 0 -36.2023)
(2.09456 0 -37.6997)
(-4.75444 0 -37.3323)
(-11.4191 0 -35.1488)
(56.417 0 -1.039)
(54.3902 0 -2.091)
(51.244 0 -3.38346)
(46.525 0 -5.15153)
(41.5785 0 -7.46755)
(37.5307 0 -10.7936)
(33.2225 0 -16.0383)
(27.2124 0 -21.7945)
(19.672 0 -26.0447)
(11.3989 0 -28.7826)
(2.69729 0 -30.0562)
(-6.11805 0 -29.7441)
(-14.6849 0 -27.8909)
(55.193 0 -0.55083)
(53.8862 0 -1.16307)
(52.078 0 -1.82844)
(49.6756 0 -2.70269)
(46.6949 0 -4.11486)
(43.1006 0 -6.54185)
(38.3234 0 -9.93398)
(31.5191 0 -13.5744)
(22.9819 0 -16.4145)
(13.3898 0 -18.2992)
(3.17691 0 -19.179)
(-7.1886 0 -18.9624)
(-17.2117 0 -17.6812)
(55.3006 0 1.60496)
(54.5213 0 1.21524)
(53.4145 0 0.695967)
(51.9413 0 -0.12018)
(49.9084 0 -1.44569)
(46.8309 0 -3.45954)
(41.9769 0 -6.06733)
(34.8193 0 -8.73825)
(25.6212 0 -10.8936)
(15.0161 0 -12.3791)
(3.57429 0 -13.082)
(-8.07039 0 -12.9097)
(-19.257 0 -11.8915)
)
;

boundaryField
{
    top
    {
        type            directionMixed;
        refValue        uniform (0 0 0);
        refGradient     uniform (0 0 0);
        valueFraction   uniform (0 0 0 0 0 1);
        value           nonuniform List<vector> 
13
(
(55.3006 0 0)
(54.5213 0 0)
(53.4145 0 0)
(51.9413 0 0)
(49.9084 0 0)
(46.8309 0 0)
(41.9769 0 0)
(34.8193 0 0)
(25.6212 0 0)
(15.0161 0 0)
(3.57429 0 0)
(-8.07039 0 0)
(-19.257 0 0)
)
;
    }
    bottom
    {
        type            fixedValue;
        value           uniform (0 0 0);
    }
    frontAndBack
    {
        type            empty;
    }
    left_cyc
    {
        type            cyclic;
    }
    right_cyc
    {
        type            cyclic;
    }
    procBoundary2to1
    {
        type            processor;
        value           nonuniform List<vector> 
16
(
(-56.4587 0 2.61067)
(-80.4766 0 3.58426)
(-75.2456 0 1.00943)
(-64.5314 0 -2.8746)
(-51.7963 0 -6.4446)
(-35.9251 0 -8.98229)
(-16.6269 0 -10.2108)
(5.13473 0 -10.2799)
(5.13473 0 -10.2799)
(28.3498 0 -5.70906)
(48.442 0 -4.64459)
(61.9718 0 -3.4049)
(64.9935 0 -2.17029)
(57.7179 0 -0.0918791)
(56.0396 0 0.0389778)
(55.7163 0 1.93187)
)
;
    }
    procBoundary2to3
    {
        type            processor;
        value           nonuniform List<vector> 
16
(
(72.658 0 -6.07461)
(37.2004 0 -20.705)
(24.6596 0 -27.3823)
(17.5748 0 -32.4625)
(9.04006 0 -40.9805)
(9.04006 0 -40.9805)
(5.22752 0 -43.4847)
(1.81814 0 -44.8374)
(-1.43246 0 -44.8263)
(-4.75932 0 -43.3437)
(-8.4489 0 -40.4186)
(-12.8068 0 -36.3747)
(-17.7851 0 -31.1982)
(-22.7269 0 -24.5933)
(-26.452 0 -15.4257)
(-29.383 0 -10.1362)
)
;
    }
}


// ************************************************************************* //
