/*--------------------------------*- C++ -*----------------------------------*\
| =========                 |                                                 |
| \\      /  F ield         | OpenFOAM: The Open Source CFD Toolbox           |
|  \\    /   O peration     | Version:  2.3.0                                 |
|   \\  /    A nd           | Web:      www.OpenFOAM.org                      |
|    \\/     M anipulation  |                                                 |
\*---------------------------------------------------------------------------*/
FoamFile
{
    version     2.0;
    format      ascii;
    class       volScalarField;
    location    "19000";
    object      p;
}
// * * * * * * * * * * * * * * * * * * * * * * * * * * * * * * * * * * * * * //

dimensions      [0 2 -2 0 0 0 0];

internalField   nonuniform List<scalar> 
191
(
-1582.14
-1562.25
-1537.78
-1506.53
-1464.91
-1408.94
-1342.07
-1264.34
-1172.3
-1110
-1126.21
-1207.63
-1296.31
-1432.8
-1418.81
-1402.63
-1383.77
-1360.91
-1332.34
-1299
-1274.37
-1281.49
-1282.47
-1282.87
-1276.95
-1280.49
-1317.62
-1310.92
-1304.25
-1297.76
-1284.53
-1268.21
-1247.97
-1212.64
-1204.31
-1203.23
-1203.66
-1205.26
-1224.52
-1212.58
-1209.31
-1205.83
-1201.88
-1187.12
-1161.45
-1139.4
-1129.97
-1122.99
-1117.62
-1119.09
-1125.67
-1133.13
-1104.36
-1101.68
-1098.1
-1093.86
-1083.93
-1062.97
-1030.44
-1022.73
-1022.94
-1021.6
-1022.06
-1022.97
-990.455
-988.267
-985.122
-981.224
-974.886
-962.006
-936.044
-931.784
-933.138
-932.682
-932.909
-932.359
-870.889
-869.632
-867.733
-865.395
-862.039
-857.411
-847.578
-846.917
-846.513
-845.839
-846.096
-846.522
-746.392
-746.375
-746.15
-745.984
-745.32
-748.662
-761.439
-765.886
-762.912
-761.202
-761.627
-764.775
-616.9
-618.492
-620.146
-622.078
-624.595
-626.916
-638.822
-675.474
-684.614
-679.293
-676.731
-677.34
-683.341
-485.655
-489.083
-492.946
-497.608
-503.423
-510.216
-533.434
-590.497
-600.21
-592.867
-590.717
-591.067
-596.987
-355.18
-361.152
-368.087
-376.561
-386.79
-399.66
-426.89
-492.46
-506.515
-502.133
-502.596
-502.251
-503.148
-230.706
-239.674
-249.377
-259.351
-267.569
-283.65
-319.57
-383.374
-402.531
-410.256
-415.375
-414.113
-407.311
-117.764
-127.738
-135.352
-141.02
-143.86
-157.847
-210.575
-276.039
-311.477
-333.435
-343.771
-341.271
-326.129
-15.1704
-15.9195
-15.4397
-20.1673
-35.3849
-66.2972
-118.736
-169.955
-202.49
-223.699
-233.592
-231.215
-216.846
81.8837
71.6754
53.4295
21.6485
-29.8828
-104.628
-194.038
-282.93
-354.371
-404.753
-428.803
-423.051
-388.503
)
;

boundaryField
{
    top
    {
        type            calculated;
        value           nonuniform List<scalar> 
13
(
-9.81
-9.81
-9.81
-9.81
-9.81
-9.81
-9.81
-9.81
-9.81
-9.81
-9.81
-9.81
-9.81
)
;
    }
    bottom
    {
        type            calculated;
        value           nonuniform List<scalar> 
13
(
-1668.14
-1646.61
-1620.11
-1586.36
-1541.75
-1482.08
-1411.83
-1331.59
-1237.79
-1174.74
-1191.15
-1273.69
-1364.43
)
;
    }
    frontAndBack
    {
        type            empty;
    }
    left_cyc
    {
        type            cyclic;
    }
    right_cyc
    {
        type            cyclic;
    }
    procBoundary2to1
    {
        type            processor;
        value           nonuniform List<scalar> 
16
(
-1598.98
-1445.21
-1324.3
-1215.84
-1106.51
-991.956
-871.608
-746.137
-746.137
-615.263
-482.486
-349.894
-222.661
-107.198
-11.6976
86.337
)
;
    }
    procBoundary2to3
    {
        type            processor;
        value           nonuniform List<scalar> 
16
(
-1368.34
-1312.65
-1257.54
-1143.31
-1024.57
-1024.57
-933.08
-847.799
-766.764
-686.314
-599.121
-504.374
-399.207
-299.971
-191.641
-329.617
)
;
    }
}


// ************************************************************************* //
