/*--------------------------------*- C++ -*----------------------------------*\
| =========                 |                                                 |
| \\      /  F ield         | OpenFOAM: The Open Source CFD Toolbox           |
|  \\    /   O peration     | Version:  2.3.0                                 |
|   \\  /    A nd           | Web:      www.OpenFOAM.org                      |
|    \\/     M anipulation  |                                                 |
\*---------------------------------------------------------------------------*/
FoamFile
{
    version     2.0;
    format      ascii;
    class       volScalarField;
    location    "13000";
    object      NUEff;
}
// * * * * * * * * * * * * * * * * * * * * * * * * * * * * * * * * * * * * * //

dimensions      [0 2 -1 0 0 0 0];

internalField   nonuniform List<scalar> 
3060
(
0.187255
0.186634
0.185529
0.184018
0.182196
0.180165
0.178032
0.175896
0.173842
0.171934
0.170206
0.168557
0.166956
0.165407
0.163908
0.162447
0.161022
0.159642
0.158325
0.157097
0.155981
0.155003
0.154191
0.15357
0.153169
0.153017
0.153129
0.153492
0.154081
0.154868
0.155825
0.156926
0.158146
0.159459
0.160841
0.162274
0.163746
0.16526
0.166823
0.168434
0.170087
0.171813
0.173713
0.175728
0.177802
0.179856
0.181789
0.183496
0.184878
0.185843
0.186318
0.186246
0.185639
0.18456
0.183085
0.18131
0.179336
0.177268
0.175202
0.173214
0.171359
0.169657
0.168016
0.166414
0.164865
0.163363
0.161901
0.16048
0.159113
0.157821
0.15663
0.155563
0.154648
0.153909
0.153376
0.153075
0.153031
0.15325
0.15371
0.154383
0.155241
0.156257
0.157405
0.158659
0.159994
0.161388
0.162823
0.164294
0.165805
0.167368
0.16898
0.170646
0.172407
0.174364
0.176447
0.178591
0.180708
0.182695
0.184446
0.185859
0.186846
0.18733
0.85235
0.847489
0.837957
0.822782
0.80028
0.767928
0.722512
0.661395
0.585802
0.503743
0.426898
0.364208
0.316165
0.280427
0.253584
0.232798
0.216387
0.20328
0.192769
0.184359
0.177671
0.172423
0.168426
0.165565
0.163797
0.163133
0.163618
0.165216
0.167908
0.171733
0.176796
0.183281
0.191461
0.201715
0.214536
0.230629
0.251061
0.277518
0.312869
0.360355
0.422247
0.497945
0.57881
0.654026
0.715276
0.760975
0.793535
0.816072
0.831067
0.840166
0.844281
0.843672
0.83833
0.827833
0.811094
0.786256
0.750631
0.701081
0.635829
0.558079
0.47746
0.404889
0.346844
0.302669
0.269995
0.245299
0.226114
0.21095
0.198847
0.18917
0.181459
0.175364
0.170634
0.167108
0.164699
0.163385
0.163197
0.164149
0.166199
0.169347
0.173654
0.179252
0.186355
0.19527
0.206402
0.220289
0.237723
0.259902
0.288734
0.327393
0.379024
0.445689
0.525193
0.606557
0.678858
0.735773
0.777473
0.806971
0.827359
0.840935
0.849183
0.852913
0.961897
0.961208
0.959907
0.957954
0.955279
0.951778
0.947306
0.941652
0.934493
0.925286
0.913087
0.896251
0.871645
0.832807
0.768852
0.660685
0.510003
0.378054
0.296612
0.249466
0.220828
0.202507
0.190476
0.182708
0.178204
0.176559
0.177756
0.181795
0.189014
0.20031
0.217534
0.244365
0.288297
0.364183
0.490426
0.64397
0.759314
0.827744
0.868755
0.894434
0.911818
0.924294
0.933636
0.940856
0.946525
0.950983
0.954447
0.957065
0.958943
0.960146
0.960708
0.960624
0.959899
0.958528
0.956468
0.953644
0.949942
0.945198
0.93917
0.931471
0.921442
0.90792
0.888827
0.86014
0.813483
0.734764
0.605921
0.452899
0.340393
0.274674
0.236209
0.212368
0.196928
0.186812
0.180472
0.17718
0.176716
0.179086
0.184375
0.193118
0.206524
0.22701
0.259405
0.313554
0.407244
0.55027
0.693932
0.788938
0.844844
0.879046
0.901203
0.916616
0.92792
0.936524
0.943251
0.948573
0.952776
0.956049
0.958528
0.960306
0.961446
0.961978
0.979958
0.979642
0.979049
0.978172
0.976996
0.975494
0.97363
0.971351
0.968575
0.965174
0.96094
0.955544
0.948439
0.938688
0.924646
0.9032
0.867283
0.799737
0.663754
0.466028
0.32914
0.26176
0.227083
0.208074
0.198075
0.194581
0.197108
0.205974
0.223289
0.254855
0.315556
0.439943
0.636904
0.786106
0.86077
0.899728
0.922607
0.9374
0.947563
0.95491
0.960449
0.964764
0.968209
0.971003
0.973283
0.975136
0.976616
0.977762
0.9786
0.979144
0.9794
0.979361
0.979032
0.978413
0.977499
0.97627
0.974698
0.972743
0.97034
0.967395
0.963752
0.959163
0.953226
0.945267
0.934077
0.917673
0.891709
0.846178
0.756451
0.585147
0.399263
0.295636
0.24478
0.217792
0.20301
0.195887
0.194911
0.19998
0.211955
0.234118
0.274947
0.356038
0.51573
0.707724
0.821918
0.878632
0.909743
0.928811
0.941541
0.950486
0.95708
0.962134
0.966126
0.96935
0.971987
0.974152
0.975918
0.977332
0.978428
0.97923
0.979751
0.979996
0.986937
0.986734
0.986355
0.985799
0.985059
0.984123
0.982973
0.981582
0.979909
0.97789
0.975428
0.972374
0.968495
0.963421
0.956535
0.946813
0.932276
0.908772
0.866399
0.778671
0.596523
0.395908
0.293444
0.24743
0.226293
0.219358
0.224334
0.242779
0.28355
0.373837
0.561619
0.75842
0.857466
0.904316
0.929764
0.945269
0.955522
0.962722
0.967989
0.971989
0.97512
0.977629
0.979674
0.98136
0.982753
0.983896
0.984819
0.98554
0.98607
0.986417
0.986581
0.986556
0.986346
0.985952
0.985374
0.984603
0.983625
0.982421
0.980959
0.979188
0.977036
0.974385
0.971058
0.966777
0.961088
0.953238
0.941906
0.924449
0.89504
0.838939
0.717456
0.504077
0.343041
0.269905
0.236439
0.221915
0.220007
0.230164
0.256187
0.312454
0.438563
0.65323
0.808374
0.880157
0.916091
0.936665
0.949681
0.958529
0.964874
0.969595
0.973233
0.976116
0.978451
0.980373
0.981968
0.983293
0.984386
0.98527
0.985961
0.986471
0.986804
0.986961
0.990439
0.990285
0.989999
0.98958
0.989024
0.988326
0.987474
0.986451
0.985228
0.983766
0.982002
0.979844
0.977151
0.973705
0.969156
0.962949
0.954118
0.94084
0.919308
0.880462
0.799794
0.625867
0.418031
0.311224
0.267707
0.254468
0.263884
0.301175
0.39413
0.589768
0.780282
0.871889
0.914999
0.938394
0.952605
0.961955
0.968471
0.973212
0.976783
0.979559
0.981772
0.983571
0.985055
0.986288
0.987315
0.988163
0.988852
0.989393
0.989793
0.990055
0.990179
0.99016
0.990001
0.989704
0.989268
0.98869
0.987962
0.98707
0.985994
0.984701
0.983144
0.98125
0.97891
0.975956
0.972128
0.967
0.959882
0.949533
0.933516
0.906469
0.854835
0.74186
0.530868
0.361867
0.287952
0.259269
0.255686
0.275323
0.330538
0.463173
0.681465
0.827187
0.893071
0.926015
0.944853
0.956729
0.964754
0.970462
0.974683
0.977908
0.980447
0.982492
0.98417
0.985566
0.986734
0.987711
0.988522
0.989182
0.989701
0.990086
0.990338
0.990457
0.992426
0.992295
0.992053
0.991699
0.991233
0.99065
0.989943
0.989099
0.988099
0.986912
0.985492
0.983773
0.981652
0.978973
0.975492
0.970827
0.964364
0.955009
0.940662
0.916848
0.872739
0.779792
0.595073
0.413418
0.329923
0.305661
0.322783
0.393804
0.560156
0.756935
0.86252
0.911809
0.937854
0.953297
0.963252
0.97007
0.974955
0.978581
0.981356
0.983542
0.985307
0.986756
0.987963
0.988974
0.989821
0.990526
0.991102
0.991556
0.991894
0.992116
0.99222
0.992205
0.99207
0.991819
0.991452
0.990967
0.990359
0.989619
0.988732
0.987675
0.986412
0.984889
0.983029
0.98071
0.977748
0.973845
0.968541
0.961062
0.949989
0.932481
0.902165
0.842783
0.714027
0.507345
0.368261
0.31433
0.30786
0.344229
0.450444
0.650501
0.811257
0.887171
0.924326
0.945029
0.957792
0.966254
0.972173
0.976486
0.97973
0.982245
0.984251
0.985885
0.987239
0.988374
0.989332
0.990139
0.990813
0.991365
0.991802
0.992126
0.99234
0.992441
0.993634
0.993514
0.993292
0.992968
0.992542
0.992014
0.991377
0.990623
0.989737
0.988695
0.98746
0.98598
0.98417
0.981908
0.978996
0.975143
0.969892
0.962465
0.95145
0.934055
0.904182
0.847117
0.730173
0.548776
0.421085
0.380646
0.409164
0.521099
0.703125
0.833466
0.897535
0.930457
0.949313
0.961106
0.968982
0.97451
0.978542
0.981573
0.983917
0.985784
0.987306
0.988568
0.989628
0.990525
0.991283
0.991919
0.992441
0.992856
0.993165
0.993368
0.993465
0.99345
0.993326
0.993096
0.99276
0.992318
0.991768
0.991102
0.99031
0.989375
0.988267
0.986945
0.985345
0.983371
0.980876
0.977622
0.973263
0.967232
0.958539
0.945326
0.923765
0.885101
0.80789
0.656617
0.482775
0.395084
0.384324
0.444602
0.595888
0.76838
0.8659
0.913669
0.939405
0.954756
0.964653
0.971416
0.976249
0.979824
0.982544
0.984675
0.986389
0.9878
0.988981
0.98998
0.99083
0.991553
0.992161
0.992662
0.993061
0.993359
0.993556
0.993648
0.994408
0.99429
0.994072
0.993756
0.993343
0.992833
0.992223
0.991506
0.990672
0.989702
0.988564
0.987214
0.98558
0.983555
0.98097
0.977583
0.973024
0.96668
0.957481
0.943434
0.92052
0.879998
0.803239
0.670777
0.536348
0.482593
0.520996
0.645672
0.785396
0.870704
0.915564
0.940571
0.955705
0.965517
0.972232
0.977025
0.980567
0.983258
0.985358
0.987045
0.988434
0.989598
0.990587
0.991431
0.992152
0.992762
0.993266
0.993669
0.99397
0.994168
0.994263
0.994249
0.994128
0.993903
0.993576
0.993147
0.992617
0.99198
0.991229
0.990349
0.98932
0.988103
0.986647
0.984867
0.982639
0.979757
0.975939
0.97073
0.96336
0.952452
0.935354
0.906523
0.853716
0.753884
0.607603
0.50234
0.487698
0.565095
0.709443
0.828022
0.892952
0.927644
0.947694
0.960215
0.968536
0.974341
0.978551
0.981702
0.984122
0.986033
0.987586
0.988876
0.989967
0.9909
0.991702
0.992391
0.992975
0.99346
0.993848
0.994138
0.99433
0.994421
0.994927
0.994807
0.994584
0.994261
0.993841
0.993325
0.992711
0.991997
0.991174
0.990226
0.989129
0.987841
0.986299
0.984406
0.98201
0.978901
0.974759
0.969067
0.960959
0.94889
0.929951
0.898403
0.843352
0.752311
0.646569
0.595094
0.632535
0.734245
0.831051
0.891437
0.92595
0.946461
0.959403
0.968027
0.97404
0.978392
0.981643
0.984138
0.986101
0.987695
0.98902
0.990145
0.99111
0.991944
0.992663
0.993275
0.993785
0.994194
0.994501
0.994704
0.9948
0.994785
0.994662
0.994433
0.9941
0.993665
0.993129
0.99249
0.991743
0.990878
0.989875
0.988704
0.987318
0.985641
0.983561
0.980897
0.977402
0.972688
0.966116
0.956587
0.942098
0.918781
0.878985
0.809579
0.70571
0.614795
0.600291
0.671513
0.779265
0.860641
0.908247
0.935744
0.95251
0.963351
0.970723
0.97595
0.979786
0.982686
0.984934
0.986726
0.988195
0.989429
0.990484
0.991398
0.992192
0.99288
0.993468
0.99396
0.994355
0.994651
0.994848
0.994941
0.995295
0.995169
0.994935
0.994596
0.994155
0.993615
0.992976
0.992238
0.991395
0.990435
0.989337
0.988063
0.986555
0.984724
0.982429
0.97948
0.975591
0.970309
0.962897
0.952101
0.935701
0.909707
0.867525
0.802968
0.728599
0.689847
0.718298
0.790475
0.85853
0.904168
0.932315
0.94996
0.961489
0.969352
0.974924
0.979007
0.982089
0.984479
0.986379
0.987938
0.98925
0.990375
0.991354
0.992208
0.99295
0.993586
0.994119
0.994547
0.994869
0.995082
0.995182
0.995168
0.995038
0.994797
0.994448
0.993993
0.993434
0.992771
0.992001
0.991117
0.990104
0.988935
0.987568
0.985932
0.983923
0.981378
0.978074
0.973665
0.967598
0.958955
0.946146
0.926321
0.894432
0.843097
0.770674
0.70501
0.693893
0.746572
0.82171
0.880409
0.917652
0.940649
0.95531
0.965069
0.971838
0.976705
0.980316
0.983073
0.985233
0.986971
0.988411
0.989635
0.990695
0.991624
0.992439
0.993151
0.993764
0.994279
0.994694
0.995006
0.995212
0.99531
0.995576
0.995441
0.995191
0.994829
0.994357
0.99378
0.9931
0.992318
0.991431
0.99043
0.989298
0.988
0.986483
0.984662
0.982406
0.979539
0.975797
0.970774
0.963827
0.95391
0.93928
0.917093
0.88334
0.835618
0.783734
0.756967
0.776663
0.826799
0.876477
0.912533
0.936335
0.951979
0.962529
0.96988
0.97517
0.979094
0.982089
0.984438
0.986329
0.987897
0.989233
0.990394
0.991413
0.992311
0.993096
0.993773
0.994341
0.994798
0.995141
0.995368
0.995475
0.995459
0.995321
0.995065
0.994692
0.994206
0.993611
0.992906
0.992093
0.991166
0.990113
0.988912
0.987523
0.985882
0.983889
0.981396
0.978194
0.973969
0.968229
0.960188
0.948549
0.931155
0.904604
0.864868
0.812924
0.767492
0.759775
0.796147
0.849101
0.893387
0.92375
0.943639
0.956832
0.965851
0.972222
0.976865
0.980349
0.983037
0.985167
0.986899
0.988353
0.989604
0.990701
0.991671
0.99253
0.993286
0.99394
0.99449
0.994933
0.995267
0.995488
0.995592
0.995808
0.995663
0.995394
0.995003
0.994495
0.993872
0.993138
0.992296
0.991346
0.990281
0.989087
0.987734
0.986172
0.984319
0.982056
0.979214
0.975548
0.970686
0.964061
0.95479
0.941495
0.922143
0.894387
0.857934
0.820888
0.802461
0.816025
0.851541
0.889014
0.918316
0.938896
0.95303
0.962852
0.969843
0.974954
0.978795
0.981762
0.984118
0.98604
0.987655
0.989047
0.99027
0.991353
0.992313
0.993157
0.993886
0.994497
0.994989
0.995359
0.995602
0.995716
0.995699
0.995552
0.995276
0.994876
0.994353
0.993711
0.992953
0.99208
0.99109
0.989973
0.988711
0.987268
0.985584
0.983565
0.981072
0.97791
0.973788
0.968263
0.960654
0.94989
0.934328
0.911696
0.879999
0.841539
0.809701
0.804379
0.829575
0.867956
0.902455
0.92785
0.945409
0.957499
0.965979
0.97208
0.976589
0.980014
0.982687
0.984831
0.986599
0.988101
0.989409
0.990568
0.991602
0.992525
0.993339
0.994044
0.994638
0.995116
0.995476
0.995713
0.995824
0.996014
0.995859
0.99557
0.995149
0.994599
0.993924
0.993129
0.992216
0.991187
0.990039
0.98876
0.987325
0.985687
0.98377
0.981461
0.978601
0.974957
0.970192
0.963803
0.955046
0.942837
0.925744
0.902569
0.874115
0.846981
0.833995
0.843579
0.869392
0.898309
0.92251
0.94053
0.953437
0.962677
0.969398
0.974397
0.978209
0.981192
0.983593
0.985581
0.987273
0.988748
0.990055
0.991221
0.992258
0.993171
0.99396
0.99462
0.995151
0.995548
0.995809
0.995931
0.995913
0.995755
0.995459
0.995028
0.994464
0.993771
0.992951
0.992006
0.990937
0.989737
0.988391
0.986866
0.985108
0.983027
0.980496
0.977327
0.973251
0.96787
0.96059
0.950534
0.936454
0.916907
0.89117
0.861996
0.83911
0.835336
0.853215
0.881744
0.909158
0.930701
0.946389
0.957583
0.965641
0.971551
0.975987
0.979402
0.982101
0.984297
0.986133
0.987713
0.989105
0.990348
0.991465
0.992464
0.993347
0.994111
0.994754
0.995271
0.995658
0.995912
0.996032
0.996209
0.996044
0.995735
0.995283
0.994692
0.993963
0.993102
0.992111
0.990994
0.989749
0.988367
0.986827
0.985087
0.983077
0.980693
0.97778
0.974119
0.96941
0.963211
0.954904
0.943663
0.928551
0.909059
0.886503
0.866163
0.856769
0.863728
0.88296
0.905663
0.925827
0.941638
0.953445
0.962169
0.968669
0.973597
0.977417
0.980453
0.982929
0.98501
0.986805
0.988385
0.989795
0.991056
0.99218
0.993168
0.99402
0.994731
0.995301
0.995726
0.996004
0.996135
0.996116
0.995947
0.995631
0.995169
0.994564
0.993816
0.99293
0.991907
0.990749
0.989451
0.988001
0.986372
0.984513
0.982343
0.979741
0.976528
0.97246
0.96718
0.96018
0.950753
0.938
0.921057
0.899933
0.877367
0.860485
0.857732
0.870752
0.892418
0.91449
0.932865
0.946894
0.957288
0.964981
0.970745
0.975147
0.978592
0.981351
0.983626
0.985558
0.987242
0.988738
0.990084
0.991296
0.992381
0.993338
0.994166
0.994859
0.995414
0.995829
0.996101
0.996228
0.996403
0.996228
0.995899
0.995419
0.994788
0.994008
0.993081
0.992012
0.990802
0.989452
0.987955
0.986293
0.984432
0.982307
0.979826
0.976843
0.973156
0.968493
0.962474
0.9546
0.944265
0.930901
0.914457
0.896412
0.880915
0.873981
0.879148
0.893735
0.911756
0.928625
0.942506
0.953296
0.961526
0.967815
0.97268
0.97652
0.979621
0.982194
0.984389
0.986305
0.988006
0.989529
0.990893
0.992107
0.993171
0.994085
0.994845
0.995452
0.995903
0.996198
0.996336
0.996316
0.996137
0.995803
0.995312
0.994666
0.993867
0.992915
0.991812
0.990561
0.989157
0.987591
0.985841
0.983861
0.981581
0.978889
0.975621
0.971551
0.966363
0.959631
0.950804
0.93926
0.924558
0.907122
0.88944
0.876744
0.874687
0.884356
0.901051
0.918955
0.934657
0.947199
0.956838
0.964179
0.969806
0.974186
0.977669
0.980506
0.982884
0.984934
0.98674
0.988357
0.989815
0.991129
0.992303
0.993336
0.994225
0.994967
0.995559
0.996
0.996288
0.996423
0.9966
0.996416
0.996071
0.995565
0.9949
0.994074
0.993089
0.991947
0.99065
0.989197
0.987583
0.985796
0.983804
0.981555
0.978966
0.975902
0.972184
0.967568
0.961739
0.954306
0.944851
0.933081
0.919232
0.904746
0.892831
0.887647
0.891543
0.902729
0.917104
0.931209
0.943352
0.953167
0.960899
0.966966
0.971766
0.975628
0.978804
0.981482
0.9838
0.985844
0.987669
0.989306
0.99077
0.992068
0.993201
0.99417
0.994973
0.995612
0.996086
0.996395
0.99654
0.996519
0.996332
0.99598
0.995464
0.994784
0.993939
0.992928
0.991753
0.990413
0.988906
0.987224
0.985347
0.98324
0.980841
0.97805
0.974719
0.970643
0.965553
0.9591
0.950871
0.940469
0.92775
0.913347
0.899402
0.889736
0.888172
0.89544
0.908406
0.922956
0.936341
0.947503
0.956398
0.963377
0.968859
0.973217
0.976746
0.979672
0.982163
0.98434
0.986276
0.988017
0.989589
0.991002
0.992259
0.993361
0.994304
0.995088
0.995713
0.996176
0.99648
0.996621
0.996804
0.996614
0.996256
0.995732
0.99504
0.994179
0.993148
0.991947
0.990575
0.989031
0.987311
0.985403
0.983286
0.980917
0.978222
0.975085
0.971344
0.966797
0.961187
0.954228
0.945655
0.93538
0.923793
0.912196
0.903016
0.899124
0.902084
0.910695
0.922149
0.933878
0.944414
0.953264
0.96047
0.966284
0.970997
0.974869
0.978112
0.980891
0.983325
0.985491
0.987432
0.989171
0.990722
0.992091
0.99328
0.994291
0.995127
0.99579
0.996281
0.996602
0.996752
0.99673
0.996536
0.996172
0.995637
0.994931
0.99405
0.992994
0.991759
0.990345
0.988747
0.986958
0.984963
0.982734
0.980221
0.977337
0.97395
0.969885
0.964917
0.958774
0.951167
0.941876
0.930956
0.919114
0.908114
0.900718
0.899516
0.905003
0.915081
0.926859
0.938185
0.94803
0.956166
0.96275
0.968059
0.972377
0.975944
0.978955
0.981556
0.983856
0.985917
0.987774
0.989449
0.990948
0.992276
0.993433
0.99442
0.995236
0.995884
0.996365
0.99668
0.996827
0.997019
0.996824
0.99646
0.995925
0.995218
0.994337
0.993278
0.992037
0.990613
0.989001
0.987199
0.985195
0.982975
0.980508
0.977731
0.974545
0.970816
0.96638
0.961045
0.954614
0.946953
0.93811
0.928538
0.919341
0.91231
0.9094
0.911649
0.918253
0.927308
0.936948
0.945968
0.953836
0.960463
0.96597
0.97055
0.974397
0.977679
0.980532
0.983059
0.985322
0.987352
0.989169
0.990783
0.9922
0.993425
0.994462
0.995317
0.995993
0.996493
0.99682
0.996973
0.996951
0.996753
0.996382
0.995837
0.995116
0.994215
0.993131
0.991857
0.990391
0.988727
0.986857
0.984769
0.982442
0.979841
0.97689
0.973477
0.969461
0.964663
0.958887
0.951948
0.943764
0.934513
0.924879
0.916261
0.910618
0.909692
0.913817
0.921597
0.931034
0.94049
0.949049
0.956387
0.962518
0.967602
0.971839
0.975414
0.978484
0.981173
0.983573
0.985736
0.987686
0.989439
0.991001
0.992378
0.993571
0.994583
0.995419
0.996081
0.996571
0.996892
0.997042
0.997244
0.997049
0.996684
0.996149
0.995441
0.994557
0.993492
0.99224
0.990796
0.989154
0.987309
0.985253
0.982975
0.980458
0.977648
0.974468
0.970813
0.966562
0.961582
0.955759
0.949056
0.941605
0.933855
0.926688
0.92138
0.919234
0.920929
0.925931
0.932977
0.940754
0.948319
0.955171
0.961145
0.966264
0.970636
0.974392
0.977656
0.980531
0.9831
0.985413
0.98749
0.989344
0.990983
0.992417
0.99365
0.994692
0.995548
0.996224
0.996724
0.997051
0.997205
0.997182
0.996984
0.996613
0.996068
0.995347
0.994444
0.993355
0.992071
0.990586
0.988893
0.986983
0.984848
0.982471
0.979832
0.976866
0.973487
0.969587
0.965036
0.959707
0.953506
0.946445
0.938763
0.931067
0.924414
0.920159
0.919448
0.922508
0.928424
0.935848
0.943584
0.950867
0.957346
0.962943
0.967724
0.971809
0.975331
0.978408
0.981136
0.983589
0.985808
0.987809
0.989601
0.991191
0.992585
0.993788
0.994805
0.995643
0.996305
0.996796
0.997117
0.997267
0.997481
0.997289
0.996931
0.996406
0.995714
0.994848
0.993804
0.992573
0.99115
0.989525
0.987694
0.985649
0.983384
0.980891
0.97813
0.975043
0.971557
0.967593
0.963075
0.957955
0.952263
0.946172
0.940075
0.934637
0.930727
0.929182
0.930435
0.934141
0.939489
0.945593
0.951756
0.957551
0.962783
0.967408
0.971468
0.975036
0.978192
0.981008
0.983543
0.985835
0.987894
0.989728
0.991346
0.992756
0.993967
0.994987
0.995824
0.996486
0.996976
0.997296
0.997447
0.997425
0.997231
0.996867
0.996333
0.995628
0.994745
0.993677
0.992416
0.990955
0.989283
0.987392
0.985275
0.982922
0.980321
0.977425
0.974171
0.970485
0.966287
0.961508
0.956124
0.95021
0.944011
0.938026
0.933013
0.929872
0.929335
0.931551
0.935939
0.941622
0.947768
0.953783
0.959335
0.964299
0.968668
0.972501
0.975877
0.978875
0.981563
0.983996
0.986203
0.988191
0.989968
0.99154
0.992912
0.994094
0.995091
0.995911
0.996559
0.99704
0.997355
0.997503
0.997728
0.997543
0.9972
0.996699
0.996038
0.995213
0.994218
0.993046
0.991688
0.990138
0.988389
0.986434
0.984271
0.981901
0.979294
0.976415
0.97322
0.969669
0.965729
0.961406
0.956766
0.951981
0.947367
0.943389
0.940606
0.939532
0.940432
0.943091
0.947011
0.951626
0.956455
0.961164
0.965567
0.969584
0.973208
0.976467
0.979399
0.982048
0.984449
0.986632
0.988595
0.990344
0.991885
0.993227
0.994379
0.99535
0.996148
0.996779
0.997247
0.997555
0.9977
0.997678
0.997491
0.997143
0.996633
0.99596
0.995119
0.994103
0.992904
0.991512
0.989919
0.988117
0.986099
0.983862
0.9814
0.978682
0.97567
0.972323
0.9686
0.964481
0.95999
0.955228
0.950416
0.945929
0.94228
0.940033
0.939638
0.941189
0.944332
0.948524
0.953219
0.957989
0.962559
0.966786
0.970624
0.97408
0.97719
0.979996
0.98254
0.984855
0.986963
0.988864
0.990561
0.992061
0.993369
0.994494
0.995444
0.996226
0.996845
0.997305
0.997607
0.997749
0.997984
0.997811
0.99749
0.997024
0.996411
0.995649
0.994732
0.993655
0.992411
0.990992
0.989394
0.987613
0.985648
0.983507
0.981171
0.978623
0.975845
0.972825
0.969567
0.966102
0.962509
0.958935
0.955607
0.952827
0.950932
0.950217
0.950838
0.952667
0.955416
0.958746
0.962348
0.965986
0.969504
0.972817
0.975888
0.978712
0.981299
0.983666
0.98583
0.987807
0.989593
0.991188
0.992597
0.993827
0.994885
0.99578
0.996517
0.997102
0.997538
0.997825
0.997961
0.997941
0.997766
0.99744
0.996967
0.996343
0.995567
0.994631
0.99353
0.992256
0.990801
0.989158
0.987324
0.9853
0.983085
0.980663
0.978017
0.97513
0.971996
0.968626
0.965067
0.961421
0.957863
0.954651
0.952108
0.950566
0.950286
0.951327
0.95348
0.956432
0.959848
0.963445
0.967016
0.970433
0.973631
0.976588
0.979305
0.981798
0.984083
0.986178
0.988095
0.989828
0.991379
0.992752
0.993952
0.994987
0.995862
0.996585
0.99716
0.997588
0.997871
0.998004
0.998247
0.99809
0.9978
0.99738
0.99683
0.996151
0.995338
0.994389
0.993298
0.992061
0.990675
0.989138
0.987455
0.985633
0.983665
0.981548
0.979283
0.976875
0.974346
0.971737
0.969119
0.966601
0.96433
0.962487
0.961259
0.960806
0.961215
0.962414
0.964244
0.966519
0.969056
0.971703
0.974347
0.976912
0.979355
0.981652
0.983796
0.985786
0.987623
0.989316
0.990854
0.992237
0.993465
0.994543
0.995476
0.99627
0.996927
0.997452
0.997845
0.998105
0.998229
0.998211
0.998052
0.997757
0.997331
0.996772
0.99608
0.995252
0.994282
0.993166
0.9919
0.990478
0.988901
0.987172
0.985295
0.983266
0.981082
0.978746
0.976269
0.973679
0.971026
0.968395
0.96591
0.963731
0.962046
0.961038
0.96085
0.961514
0.962917
0.964888
0.967238
0.969794
0.972418
0.975012
0.977512
0.979885
0.982113
0.984191
0.986122
0.987908
0.989553
0.99105
0.992397
0.993596
0.99465
0.995563
0.996341
0.996986
0.997502
0.997888
0.998144
0.998266
0.998517
0.998379
0.998126
0.997761
0.997288
0.996707
0.996018
0.99522
0.994312
0.993291
0.992158
0.990914
0.989563
0.988113
0.986567
0.98493
0.983211
0.981425
0.979597
0.977765
0.97598
0.974315
0.972856
0.9717
0.970945
0.970672
0.970928
0.971672
0.972825
0.97429
0.975969
0.977772
0.979626
0.981478
0.983286
0.985027
0.986683
0.988244
0.989704
0.991062
0.992308
0.993439
0.994453
0.995352
0.996137
0.99681
0.997373
0.997826
0.998167
0.998394
0.998502
0.998486
0.998347
0.99809
0.997721
0.99724
0.996649
0.995948
0.995134
0.994206
0.993162
0.992002
0.990727
0.989344
0.987857
0.98627
0.984591
0.982831
0.981009
0.979153
0.977305
0.975527
0.973894
0.9725
0.971443
0.970818
0.970698
0.971101
0.971968
0.973211
0.974732
0.976436
0.978239
0.980074
0.981894
0.983664
0.985363
0.986978
0.9885
0.989924
0.991248
0.992464
0.993568
0.99456
0.995439
0.996209
0.996869
0.997422
0.997867
0.998203
0.998426
0.998533
0.99879
0.998674
0.998464
0.998162
0.997774
0.997303
0.99675
0.996117
0.995405
0.994615
0.993749
0.99281
0.991802
0.990732
0.989606
0.988434
0.987228
0.986003
0.984779
0.983584
0.98245
0.981419
0.980537
0.979853
0.979413
0.979257
0.979408
0.979845
0.980531
0.981418
0.982458
0.983603
0.984813
0.986052
0.987292
0.988513
0.989697
0.990833
0.991911
0.992924
0.993866
0.994731
0.995517
0.996223
0.996846
0.997388
0.997845
0.998216
0.998499
0.998688
0.998779
0.998765
0.998649
0.998435
0.99813
0.997736
0.997257
0.996695
0.99605
0.995324
0.994518
0.993633
0.992673
0.991643
0.990549
0.989399
0.988204
0.986977
0.985735
0.984501
0.983304
0.982182
0.981176
0.980336
0.979711
0.979344
0.979272
0.979504
0.980011
0.98075
0.981675
0.982737
0.98389
0.985096
0.986322
0.987544
0.988743
0.989904
0.991016
0.99207
0.993061
0.993982
0.994829
0.995599
0.99629
0.996902
0.997434
0.997884
0.998249
0.998528
0.998714
0.998803
0.999064
0.998973
0.998809
0.998575
0.998278
0.997921
0.997508
0.997041
0.996524
0.99596
0.99535
0.994697
0.994007
0.993281
0.99253
0.991761
0.990985
0.990213
0.989459
0.988738
0.988071
0.987477
0.986979
0.986599
0.986358
0.986273
0.986357
0.986598
0.98698
0.987482
0.988082
0.988757
0.989485
0.990248
0.99103
0.991815
0.992593
0.993352
0.994083
0.994778
0.995432
0.996042
0.996606
0.997119
0.99758
0.997985
0.998332
0.998618
0.998837
0.998985
0.999056
0.999045
0.998954
0.998787
0.998551
0.99825
0.997887
0.997467
0.996993
0.996466
0.995891
0.995269
0.994604
0.993899
0.99316
0.992396
0.991615
0.99083
0.990051
0.989295
0.988579
0.987921
0.987345
0.986872
0.986524
0.986321
0.986281
0.986407
0.986686
0.987099
0.987624
0.988239
0.988922
0.989652
0.990412
0.991187
0.991962
0.992727
0.993473
0.994189
0.994871
0.995512
0.996111
0.996664
0.997168
0.997621
0.99802
0.998362
0.998643
0.998858
0.999004
0.999075
0.999337
0.999272
0.999156
0.998992
0.998786
0.998542
0.998264
0.997955
0.997618
0.997257
0.996873
0.996469
0.996046
0.995606
0.995157
0.994705
0.994257
0.99382
0.993401
0.993009
0.992653
0.992341
0.992084
0.99189
0.991768
0.991726
0.991768
0.991891
0.992086
0.992346
0.992661
0.993021
0.993418
0.993842
0.994284
0.994738
0.995195
0.995649
0.996093
0.996518
0.996925
0.99731
0.997671
0.998006
0.998312
0.998586
0.998824
0.999022
0.999176
0.999281
0.999331
0.999324
0.999259
0.999141
0.998975
0.998767
0.998519
0.998237
0.997923
0.997581
0.997213
0.996823
0.996411
0.99598
0.995534
0.995078
0.994621
0.99417
0.993732
0.993314
0.992926
0.992576
0.992274
0.99203
0.991853
0.99175
0.99173
0.991793
0.991934
0.992145
0.992418
0.992742
0.993108
0.993508
0.993932
0.994373
0.994822
0.995274
0.995721
0.996157
0.996575
0.996975
0.997353
0.997709
0.998038
0.99834
0.998609
0.998844
0.999039
0.999191
0.999294
0.999345
0.999606
0.999568
0.999499
0.999404
0.999286
0.999148
0.998994
0.998825
0.998645
0.998455
0.998257
0.998051
0.997839
0.997618
0.997395
0.997175
0.996959
0.996753
0.996559
0.996379
0.996219
0.99608
0.995967
0.995883
0.99583
0.995812
0.995831
0.995884
0.995969
0.996083
0.996223
0.996385
0.996566
0.996763
0.996973
0.997191
0.997414
0.997639
0.997862
0.998076
0.998283
0.998482
0.998673
0.998853
0.999021
0.999173
0.999308
0.999422
0.999511
0.999573
0.999603
0.999598
0.99956
0.999491
0.999395
0.999275
0.999136
0.998979
0.998808
0.998625
0.998432
0.998231
0.998022
0.997805
0.997581
0.997356
0.997134
0.996918
0.996712
0.996519
0.996342
0.996185
0.996051
0.995944
0.995867
0.995823
0.995814
0.995841
0.995902
0.995994
0.996114
0.996259
0.996424
0.996608
0.996806
0.997015
0.997232
0.997453
0.997675
0.997894
0.998105
0.998309
0.998505
0.998693
0.99887
0.999036
0.999186
0.999319
0.999432
0.99952
0.999581
0.999611
0.999869
0.999857
0.999834
0.999804
0.999767
0.999724
0.999677
0.999627
0.999574
0.99952
0.999465
0.999408
0.99935
0.999288
0.999225
0.999164
0.999105
0.999049
0.998997
0.998949
0.998907
0.998871
0.998842
0.99882
0.998807
0.998802
0.998807
0.99882
0.998842
0.998871
0.998908
0.99895
0.998999
0.999051
0.999108
0.999168
0.99923
0.999293
0.999356
0.999415
0.999472
0.999528
0.999583
0.999635
0.999685
0.999732
0.999774
0.99981
0.999838
0.999858
0.999868
0.999867
0.999854
0.999832
0.999801
0.999763
0.99972
0.999673
0.999622
0.999569
0.999514
0.999458
0.9994
0.99934
0.999277
0.999214
0.999153
0.999093
0.999038
0.998986
0.998939
0.998898
0.998863
0.998836
0.998816
0.998805
0.998802
0.998809
0.998825
0.998849
0.99888
0.998917
0.998961
0.99901
0.999063
0.99912
0.99918
0.999241
0.999304
0.999365
0.999423
0.999479
0.999534
0.999588
0.99964
0.99969
0.999736
0.999777
0.999813
0.999841
0.999861
0.999871
)
;

boundaryField
{
    top
    {
        type            calculated;
        value           uniform 1;
    }
    bottom
    {
        type            calculated;
        value           uniform 0.148957;
    }
    frontAndBack
    {
        type            empty;
    }
    left_cyc
    {
        type            cyclic;
    }
    right_cyc
    {
        type            cyclic;
    }
}


// ************************************************************************* //
