/*--------------------------------*- C++ -*----------------------------------*\
| =========                 |                                                 |
| \\      /  F ield         | OpenFOAM: The Open Source CFD Toolbox           |
|  \\    /   O peration     | Version:  2.3.0                                 |
|   \\  /    A nd           | Web:      www.OpenFOAM.org                      |
|    \\/     M anipulation  |                                                 |
\*---------------------------------------------------------------------------*/
FoamFile
{
    version     2.0;
    format      ascii;
    class       volScalarField;
    location    "13000";
    object      p;
}
// * * * * * * * * * * * * * * * * * * * * * * * * * * * * * * * * * * * * * //

dimensions      [0 2 -2 0 0 0 0];

internalField   nonuniform List<scalar> 
3060
(
0
-3.07201e-05
-8.82841e-05
-0.00017226
-0.000282207
-0.000417782
-0.000578746
-0.000764799
-0.000975284
-0.00120885
-0.00146322
-0.00173495
-0.00201928
-0.00230984
-0.00259833
-0.00287502
-0.00313004
-0.00335447
-0.00354095
-0.00368633
-0.0037928
-0.00386531
-0.00391118
-0.00393793
-0.00395152
-0.0039555
-0.00395104
-0.00393697
-0.00390968
-0.00386322
-0.00379004
-0.0036828
-0.00353656
-0.00334916
-0.00312379
-0.00286787
-0.00259048
-0.00230166
-0.00201132
-0.00172775
-0.00145737
-0.00120498
-0.000973991
-0.000766675
-0.000584348
-0.000427648
-0.000296869
-0.000192254
-0.000114139
-6.29361e-05
-3.90273e-05
-4.26422e-05
-7.37402e-05
-0.000132042
-0.000217146
-0.000328652
-0.000466253
-0.000629713
-0.000818682
-0.00103238
-0.00126925
-0.00152675
-0.00180112
-0.00208714
-0.00237798
-0.00266477
-0.00293746
-0.00318619
-0.0034022
-0.00357887
-0.00371453
-0.00381222
-0.00387764
-0.00391838
-0.00394172
-0.00395302
-0.00395524
-0.00394894
-0.00393234
-0.00390123
-0.00384913
-0.00376835
-0.00365203
-0.0034959
-0.00329892
-0.00306564
-0.00280402
-0.00252325
-0.00223329
-0.00194365
-0.00166207
-0.0013945
-0.00114531
-0.000917629
-0.000713468
-0.000533968
-0.000379657
-0.000250795
-0.000147638
-7.0564e-05
-2.00213e-05
3.58053e-06
-0.326611
-0.326637
-0.326686
-0.326758
-0.326853
-0.326972
-0.327113
-0.327277
-0.327463
-0.327668
-0.327891
-0.328127
-0.328373
-0.328621
-0.328864
-0.329098
-0.329321
-0.329525
-0.329697
-0.329831
-0.329929
-0.329996
-0.330039
-0.330064
-0.330078
-0.330082
-0.330077
-0.330063
-0.330037
-0.329994
-0.329927
-0.329828
-0.329694
-0.32952
-0.329316
-0.329093
-0.328859
-0.328616
-0.328368
-0.328123
-0.327888
-0.327667
-0.327464
-0.327282
-0.327121
-0.326984
-0.32687
-0.326779
-0.326712
-0.326669
-0.326648
-0.326652
-0.326678
-0.326728
-0.326801
-0.326897
-0.327018
-0.327161
-0.327328
-0.327516
-0.327724
-0.327949
-0.328187
-0.328433
-0.32868
-0.328921
-0.329153
-0.329372
-0.329569
-0.329733
-0.329857
-0.329947
-0.330007
-0.330046
-0.330068
-0.330079
-0.330081
-0.330075
-0.330059
-0.330029
-0.329981
-0.329907
-0.3298
-0.329656
-0.329474
-0.329264
-0.329037
-0.328801
-0.328556
-0.328308
-0.328064
-0.327831
-0.327612
-0.327412
-0.327232
-0.327074
-0.326938
-0.326826
-0.326737
-0.326671
-0.326628
-0.326608
-0.653309
-0.653335
-0.653383
-0.653453
-0.653544
-0.653654
-0.653783
-0.653929
-0.654088
-0.654259
-0.65444
-0.65463
-0.654827
-0.655031
-0.655239
-0.655445
-0.655635
-0.655798
-0.655931
-0.65604
-0.656123
-0.656178
-0.656211
-0.656229
-0.656238
-0.656241
-0.656238
-0.656228
-0.65621
-0.656176
-0.656121
-0.656037
-0.655928
-0.655795
-0.655632
-0.655442
-0.655237
-0.65503
-0.654827
-0.654631
-0.654443
-0.654264
-0.654095
-0.653938
-0.653796
-0.65367
-0.653563
-0.653477
-0.653412
-0.65337
-0.65335
-0.653353
-0.653379
-0.653427
-0.653498
-0.65359
-0.653701
-0.653831
-0.653978
-0.654138
-0.65431
-0.654492
-0.654682
-0.65488
-0.655084
-0.655292
-0.655494
-0.655678
-0.655833
-0.655959
-0.656062
-0.656138
-0.656187
-0.656216
-0.656232
-0.656239
-0.656241
-0.656237
-0.656225
-0.656204
-0.656166
-0.656104
-0.656013
-0.655898
-0.655758
-0.655587
-0.655392
-0.655184
-0.654977
-0.654775
-0.654579
-0.654392
-0.654213
-0.654045
-0.653889
-0.653748
-0.653623
-0.653518
-0.653432
-0.653368
-0.653326
-0.653306
-0.979836
-0.979861
-0.979908
-0.979975
-0.980062
-0.980168
-0.98029
-0.980426
-0.980573
-0.980729
-0.980892
-0.981059
-0.98123
-0.981403
-0.981578
-0.981749
-0.98191
-0.982056
-0.982182
-0.982276
-0.982339
-0.982381
-0.982403
-0.982412
-0.982415
-0.982416
-0.982415
-0.982411
-0.982402
-0.98238
-0.982338
-0.982275
-0.982181
-0.982055
-0.98191
-0.98175
-0.981579
-0.981405
-0.981233
-0.981063
-0.980897
-0.980736
-0.980582
-0.980437
-0.980303
-0.980185
-0.980083
-0.98
-0.979938
-0.979897
-0.979877
-0.97988
-0.979905
-0.979952
-0.98002
-0.980108
-0.980214
-0.980337
-0.980474
-0.980621
-0.980778
-0.98094
-0.981107
-0.981278
-0.981451
-0.981624
-0.981793
-0.981949
-0.98209
-0.982209
-0.982294
-0.982351
-0.982387
-0.982405
-0.982412
-0.982415
-0.982416
-0.982414
-0.98241
-0.982398
-0.982372
-0.982324
-0.982255
-0.982151
-0.982019
-0.981869
-0.981705
-0.981532
-0.981357
-0.981185
-0.981015
-0.980848
-0.980687
-0.980533
-0.980389
-0.980256
-0.980138
-0.980037
-0.979955
-0.979893
-0.979853
-0.979833
-1.30636
-1.30638
-1.30642
-1.30648
-1.30656
-1.30666
-1.30677
-1.30689
-1.30702
-1.30716
-1.30731
-1.30746
-1.30761
-1.30777
-1.30792
-1.30806
-1.30819
-1.30831
-1.30842
-1.30851
-1.30857
-1.3086
-1.30861
-1.30861
-1.3086
-1.3086
-1.3086
-1.3086
-1.30861
-1.3086
-1.30857
-1.30851
-1.30842
-1.30831
-1.30819
-1.30806
-1.30792
-1.30777
-1.30762
-1.30746
-1.30731
-1.30717
-1.30703
-1.3069
-1.30678
-1.30667
-1.30658
-1.30651
-1.30645
-1.30642
-1.3064
-1.3064
-1.30642
-1.30647
-1.30653
-1.3066
-1.3067
-1.30681
-1.30693
-1.30706
-1.3072
-1.30735
-1.3075
-1.30766
-1.30781
-1.30796
-1.3081
-1.30823
-1.30834
-1.30845
-1.30853
-1.30858
-1.3086
-1.30861
-1.3086
-1.3086
-1.3086
-1.3086
-1.30861
-1.3086
-1.30859
-1.30856
-1.30849
-1.30839
-1.30828
-1.30816
-1.30803
-1.30788
-1.30773
-1.30757
-1.30742
-1.30727
-1.30712
-1.30698
-1.30685
-1.30674
-1.30663
-1.30654
-1.30647
-1.30641
-1.30637
-1.30636
-1.63294
-1.63296
-1.633
-1.63305
-1.63312
-1.63321
-1.6333
-1.63341
-1.63353
-1.63366
-1.63379
-1.63392
-1.63406
-1.63419
-1.63432
-1.63444
-1.63455
-1.63465
-1.63472
-1.63479
-1.63483
-1.63484
-1.63483
-1.63481
-1.6348
-1.63479
-1.6348
-1.63481
-1.63483
-1.63484
-1.63483
-1.63479
-1.63473
-1.63465
-1.63455
-1.63444
-1.63432
-1.63419
-1.63406
-1.63392
-1.63379
-1.63366
-1.63354
-1.63342
-1.63332
-1.63322
-1.63314
-1.63307
-1.63302
-1.63299
-1.63297
-1.63298
-1.633
-1.63304
-1.63309
-1.63316
-1.63325
-1.63334
-1.63345
-1.63357
-1.6337
-1.63383
-1.63396
-1.63409
-1.63423
-1.63435
-1.63447
-1.63458
-1.63467
-1.63474
-1.6348
-1.63483
-1.63484
-1.63482
-1.63481
-1.6348
-1.6348
-1.6348
-1.63481
-1.63483
-1.63484
-1.63482
-1.63477
-1.63471
-1.63462
-1.63452
-1.63441
-1.63428
-1.63415
-1.63402
-1.63389
-1.63375
-1.63362
-1.6335
-1.63338
-1.63328
-1.63318
-1.6331
-1.63304
-1.63299
-1.63295
-1.63294
-1.95955
-1.95957
-1.9596
-1.95965
-1.95971
-1.95979
-1.95988
-1.95997
-1.96008
-1.96019
-1.9603
-1.96042
-1.96053
-1.96065
-1.96076
-1.96086
-1.96095
-1.96103
-1.96109
-1.96113
-1.96115
-1.96113
-1.96109
-1.96104
-1.96101
-1.961
-1.96101
-1.96104
-1.96109
-1.96113
-1.96115
-1.96113
-1.96109
-1.96103
-1.96095
-1.96086
-1.96076
-1.96065
-1.96054
-1.96042
-1.96031
-1.96019
-1.96009
-1.95998
-1.95989
-1.9598
-1.95973
-1.95967
-1.95963
-1.9596
-1.95958
-1.95958
-1.9596
-1.95964
-1.95969
-1.95975
-1.95983
-1.95991
-1.96001
-1.96011
-1.96022
-1.96034
-1.96045
-1.96057
-1.96068
-1.96079
-1.96089
-1.96097
-1.96105
-1.9611
-1.96114
-1.96115
-1.96112
-1.96107
-1.96103
-1.96101
-1.961
-1.96102
-1.96105
-1.9611
-1.96114
-1.96115
-1.96112
-1.96107
-1.96101
-1.96093
-1.96083
-1.96073
-1.96062
-1.9605
-1.96039
-1.96027
-1.96016
-1.96005
-1.95995
-1.95985
-1.95977
-1.9597
-1.95964
-1.95959
-1.95956
-1.95955
-2.28618
-2.2862
-2.28623
-2.28627
-2.28633
-2.2864
-2.28648
-2.28656
-2.28665
-2.28675
-2.28685
-2.28695
-2.28705
-2.28714
-2.28723
-2.28731
-2.28739
-2.28745
-2.28749
-2.28752
-2.28752
-2.28748
-2.28741
-2.28733
-2.28728
-2.28726
-2.28728
-2.28733
-2.28741
-2.28749
-2.28752
-2.28752
-2.28749
-2.28745
-2.28739
-2.28732
-2.28723
-2.28714
-2.28705
-2.28695
-2.28685
-2.28675
-2.28666
-2.28657
-2.28649
-2.28641
-2.28635
-2.28629
-2.28625
-2.28623
-2.28621
-2.28621
-2.28623
-2.28626
-2.28631
-2.28636
-2.28643
-2.28651
-2.28659
-2.28668
-2.28678
-2.28688
-2.28698
-2.28707
-2.28717
-2.28726
-2.28734
-2.28741
-2.28746
-2.2875
-2.28752
-2.28751
-2.28747
-2.28739
-2.28731
-2.28727
-2.28726
-2.28729
-2.28735
-2.28743
-2.2875
-2.28752
-2.28751
-2.28748
-2.28743
-2.28737
-2.28729
-2.28721
-2.28712
-2.28702
-2.28692
-2.28682
-2.28672
-2.28663
-2.28654
-2.28645
-2.28638
-2.28632
-2.28626
-2.28622
-2.28619
-2.28618
-2.61283
-2.61285
-2.61288
-2.61292
-2.61297
-2.61303
-2.61309
-2.61317
-2.61325
-2.61333
-2.61342
-2.6135
-2.61358
-2.61366
-2.61374
-2.6138
-2.61386
-2.6139
-2.61393
-2.61394
-2.61393
-2.61389
-2.61381
-2.61371
-2.61363
-2.6136
-2.61363
-2.61371
-2.61381
-2.61389
-2.61393
-2.61394
-2.61393
-2.6139
-2.61386
-2.6138
-2.61374
-2.61366
-2.61359
-2.6135
-2.61342
-2.61334
-2.61326
-2.61318
-2.6131
-2.61304
-2.61298
-2.61293
-2.6129
-2.61287
-2.61286
-2.61286
-2.61288
-2.6129
-2.61294
-2.61299
-2.61305
-2.61312
-2.6132
-2.61328
-2.61336
-2.61344
-2.61353
-2.61361
-2.61368
-2.61375
-2.61382
-2.61387
-2.61391
-2.61393
-2.61394
-2.61392
-2.61387
-2.61378
-2.61368
-2.61362
-2.6136
-2.61364
-2.61373
-2.61383
-2.6139
-2.61393
-2.61394
-2.61392
-2.61389
-2.61384
-2.61378
-2.61372
-2.61364
-2.61356
-2.61348
-2.61339
-2.61331
-2.61323
-2.61315
-2.61308
-2.61301
-2.61295
-2.6129
-2.61287
-2.61284
-2.61283
-2.9395
-2.93951
-2.93953
-2.93957
-2.93961
-2.93967
-2.93973
-2.93979
-2.93986
-2.93993
-2.94
-2.94007
-2.94014
-2.9402
-2.94026
-2.94031
-2.94035
-2.94038
-2.94039
-2.94039
-2.94037
-2.94033
-2.94026
-2.94016
-2.94008
-2.94005
-2.94008
-2.94016
-2.94026
-2.94033
-2.94038
-2.9404
-2.9404
-2.94038
-2.94035
-2.94031
-2.94026
-2.9402
-2.94014
-2.94007
-2.94001
-2.93993
-2.93986
-2.9398
-2.93973
-2.93968
-2.93962
-2.93958
-2.93955
-2.93953
-2.93952
-2.93952
-2.93953
-2.93956
-2.93959
-2.93964
-2.93969
-2.93975
-2.93981
-2.93988
-2.93995
-2.94002
-2.94009
-2.94016
-2.94022
-2.94028
-2.94032
-2.94036
-2.94039
-2.9404
-2.94039
-2.94037
-2.94032
-2.94024
-2.94014
-2.94006
-2.94005
-2.9401
-2.94019
-2.94028
-2.94035
-2.94038
-2.9404
-2.94039
-2.94037
-2.94034
-2.9403
-2.94025
-2.94019
-2.94012
-2.94005
-2.93998
-2.93991
-2.93984
-2.93977
-2.93971
-2.93965
-2.9396
-2.93956
-2.93953
-2.9395
-2.93949
-3.26616
-3.26618
-3.2662
-3.26623
-3.26627
-3.26631
-3.26637
-3.26642
-3.26648
-3.26654
-3.2666
-3.26666
-3.26671
-3.26676
-3.2668
-3.26684
-3.26686
-3.26688
-3.26688
-3.26688
-3.26685
-3.26681
-3.26674
-3.26667
-3.2666
-3.26657
-3.2666
-3.26667
-3.26675
-3.26681
-3.26685
-3.26688
-3.26689
-3.26688
-3.26686
-3.26684
-3.2668
-3.26676
-3.26671
-3.26666
-3.2666
-3.26654
-3.26648
-3.26643
-3.26637
-3.26632
-3.26628
-3.26624
-3.26621
-3.26619
-3.26618
-3.26618
-3.2662
-3.26622
-3.26625
-3.26629
-3.26633
-3.26638
-3.26644
-3.2665
-3.26656
-3.26662
-3.26667
-3.26672
-3.26677
-3.26681
-3.26685
-3.26687
-3.26688
-3.26688
-3.26687
-3.26684
-3.26679
-3.26673
-3.26665
-3.26658
-3.26657
-3.26661
-3.26669
-3.26676
-3.26682
-3.26686
-3.26688
-3.26688
-3.26688
-3.26686
-3.26683
-3.26679
-3.26675
-3.2667
-3.26664
-3.26658
-3.26652
-3.26646
-3.26641
-3.26635
-3.2663
-3.26626
-3.26622
-3.26619
-3.26617
-3.26616
-3.59283
-3.59284
-3.59286
-3.59289
-3.59292
-3.59296
-3.59301
-3.59306
-3.59311
-3.59316
-3.5932
-3.59325
-3.59329
-3.59333
-3.59336
-3.59338
-3.59339
-3.5934
-3.59339
-3.59338
-3.59335
-3.59331
-3.59325
-3.59319
-3.59314
-3.59312
-3.59314
-3.59319
-3.59325
-3.59331
-3.59335
-3.59338
-3.59339
-3.5934
-3.59339
-3.59338
-3.59336
-3.59333
-3.59329
-3.59325
-3.5932
-3.59316
-3.59311
-3.59306
-3.59301
-3.59297
-3.59293
-3.5929
-3.59287
-3.59286
-3.59285
-3.59285
-3.59286
-3.59288
-3.59291
-3.59294
-3.59298
-3.59302
-3.59307
-3.59312
-3.59317
-3.59322
-3.59326
-3.5933
-3.59333
-3.59336
-3.59338
-3.5934
-3.5934
-3.59339
-3.59337
-3.59334
-3.5933
-3.59324
-3.59318
-3.59313
-3.59312
-3.59315
-3.59321
-3.59327
-3.59332
-3.59336
-3.59338
-3.5934
-3.5934
-3.59339
-3.59337
-3.59335
-3.59332
-3.59328
-3.59324
-3.59319
-3.59314
-3.59309
-3.59304
-3.593
-3.59295
-3.59292
-3.59288
-3.59286
-3.59284
-3.59283
-3.91951
-3.91952
-3.91953
-3.91956
-3.91958
-3.91962
-3.91966
-3.91969
-3.91973
-3.91977
-3.91981
-3.91985
-3.91988
-3.9199
-3.91992
-3.91993
-3.91993
-3.91993
-3.91992
-3.91989
-3.91986
-3.91982
-3.91978
-3.91973
-3.91969
-3.91968
-3.91969
-3.91973
-3.91978
-3.91982
-3.91986
-3.91989
-3.91992
-3.91993
-3.91993
-3.91993
-3.91992
-3.9199
-3.91987
-3.91984
-3.91981
-3.91977
-3.91973
-3.9197
-3.91966
-3.91962
-3.91959
-3.91956
-3.91954
-3.91953
-3.91952
-3.91952
-3.91953
-3.91954
-3.91957
-3.9196
-3.91963
-3.91967
-3.91971
-3.91974
-3.91978
-3.91982
-3.91985
-3.91988
-3.9199
-3.91992
-3.91993
-3.91993
-3.91993
-3.91991
-3.91989
-3.91985
-3.91981
-3.91977
-3.91972
-3.91969
-3.91968
-3.9197
-3.91974
-3.91979
-3.91983
-3.91987
-3.9199
-3.91992
-3.91993
-3.91993
-3.91993
-3.91991
-3.91989
-3.91987
-3.91984
-3.9198
-3.91976
-3.91972
-3.91968
-3.91965
-3.91961
-3.91958
-3.91955
-3.91953
-3.91951
-3.91951
-4.24618
-4.24619
-4.2462
-4.24622
-4.24624
-4.24627
-4.2463
-4.24633
-4.24636
-4.24639
-4.24642
-4.24644
-4.24646
-4.24648
-4.24649
-4.24649
-4.24648
-4.24647
-4.24645
-4.24642
-4.24639
-4.24635
-4.24631
-4.24627
-4.24624
-4.24623
-4.24624
-4.24627
-4.24631
-4.24635
-4.24639
-4.24642
-4.24645
-4.24647
-4.24648
-4.24649
-4.24648
-4.24648
-4.24646
-4.24644
-4.24642
-4.24639
-4.24636
-4.24633
-4.2463
-4.24627
-4.24625
-4.24622
-4.24621
-4.2462
-4.24619
-4.24619
-4.2462
-4.24621
-4.24623
-4.24625
-4.24628
-4.24631
-4.24634
-4.24637
-4.2464
-4.24643
-4.24645
-4.24647
-4.24648
-4.24648
-4.24648
-4.24648
-4.24646
-4.24644
-4.24641
-4.24638
-4.24634
-4.2463
-4.24627
-4.24624
-4.24623
-4.24625
-4.24628
-4.24632
-4.24636
-4.2464
-4.24643
-4.24645
-4.24647
-4.24648
-4.24649
-4.24648
-4.24647
-4.24646
-4.24644
-4.24641
-4.24639
-4.24636
-4.24632
-4.24629
-4.24626
-4.24624
-4.24622
-4.2462
-4.24619
-4.24618
-4.57286
-4.57286
-4.57287
-4.57289
-4.57291
-4.57293
-4.57295
-4.57297
-4.57299
-4.57301
-4.57303
-4.57304
-4.57305
-4.57306
-4.57305
-4.57305
-4.57303
-4.57301
-4.57299
-4.57296
-4.57292
-4.57289
-4.57285
-4.57282
-4.5728
-4.57279
-4.5728
-4.57282
-4.57285
-4.57289
-4.57292
-4.57296
-4.57299
-4.57301
-4.57303
-4.57305
-4.57305
-4.57306
-4.57305
-4.57304
-4.57303
-4.57301
-4.57299
-4.57297
-4.57295
-4.57293
-4.57291
-4.57289
-4.57288
-4.57287
-4.57286
-4.57286
-4.57287
-4.57288
-4.57289
-4.57291
-4.57293
-4.57295
-4.57298
-4.573
-4.57302
-4.57303
-4.57305
-4.57305
-4.57306
-4.57305
-4.57304
-4.57303
-4.573
-4.57298
-4.57295
-4.57291
-4.57288
-4.57284
-4.57281
-4.57279
-4.57279
-4.5728
-4.57283
-4.57286
-4.57289
-4.57293
-4.57296
-4.57299
-4.57302
-4.57304
-4.57305
-4.57306
-4.57306
-4.57305
-4.57304
-4.57303
-4.57301
-4.57299
-4.57297
-4.57294
-4.57292
-4.5729
-4.57288
-4.57287
-4.57286
-4.57286
-4.89953
-4.89954
-4.89955
-4.89956
-4.89957
-4.89958
-4.8996
-4.89961
-4.89962
-4.89963
-4.89964
-4.89964
-4.89964
-4.89964
-4.89963
-4.89961
-4.89959
-4.89956
-4.89953
-4.89949
-4.89946
-4.89942
-4.89939
-4.89936
-4.89934
-4.89934
-4.89934
-4.89936
-4.89939
-4.89942
-4.89946
-4.89949
-4.89953
-4.89956
-4.89959
-4.89961
-4.89962
-4.89964
-4.89964
-4.89964
-4.89964
-4.89963
-4.89962
-4.89961
-4.8996
-4.89958
-4.89957
-4.89956
-4.89955
-4.89954
-4.89954
-4.89954
-4.89954
-4.89955
-4.89956
-4.89957
-4.89958
-4.8996
-4.89961
-4.89962
-4.89963
-4.89964
-4.89964
-4.89964
-4.89963
-4.89962
-4.8996
-4.89958
-4.89955
-4.89952
-4.89948
-4.89945
-4.89941
-4.89938
-4.89936
-4.89934
-4.89934
-4.89935
-4.89937
-4.8994
-4.89943
-4.89947
-4.8995
-4.89954
-4.89957
-4.89959
-4.89961
-4.89963
-4.89964
-4.89964
-4.89964
-4.89964
-4.89963
-4.89962
-4.89961
-4.89959
-4.89958
-4.89957
-4.89955
-4.89954
-4.89954
-4.89953
-5.22622
-5.22622
-5.22622
-5.22623
-5.22623
-5.22624
-5.22625
-5.22625
-5.22626
-5.22626
-5.22625
-5.22625
-5.22623
-5.22622
-5.2262
-5.22617
-5.22614
-5.22611
-5.22607
-5.22604
-5.226
-5.22596
-5.22593
-5.22591
-5.22589
-5.22588
-5.22589
-5.22591
-5.22593
-5.22596
-5.226
-5.22604
-5.22607
-5.22611
-5.22614
-5.22617
-5.2262
-5.22622
-5.22623
-5.22624
-5.22625
-5.22625
-5.22625
-5.22625
-5.22624
-5.22624
-5.22623
-5.22623
-5.22622
-5.22622
-5.22622
-5.22622
-5.22622
-5.22622
-5.22623
-5.22623
-5.22624
-5.22625
-5.22625
-5.22625
-5.22625
-5.22625
-5.22624
-5.22623
-5.22621
-5.22619
-5.22616
-5.22613
-5.2261
-5.22606
-5.22603
-5.22599
-5.22595
-5.22592
-5.2259
-5.22589
-5.22588
-5.22589
-5.22591
-5.22594
-5.22597
-5.22601
-5.22605
-5.22608
-5.22612
-5.22615
-5.22618
-5.2262
-5.22622
-5.22624
-5.22625
-5.22625
-5.22626
-5.22625
-5.22625
-5.22625
-5.22624
-5.22623
-5.22623
-5.22622
-5.22622
-5.22622
-5.5529
-5.5529
-5.5529
-5.55291
-5.5529
-5.5529
-5.5529
-5.5529
-5.55289
-5.55288
-5.55286
-5.55285
-5.55283
-5.5528
-5.55277
-5.55274
-5.5527
-5.55266
-5.55262
-5.55258
-5.55254
-5.5525
-5.55247
-5.55245
-5.55243
-5.55243
-5.55243
-5.55245
-5.55247
-5.5525
-5.55254
-5.55258
-5.55262
-5.55266
-5.5527
-5.55274
-5.55277
-5.5528
-5.55282
-5.55284
-5.55286
-5.55287
-5.55288
-5.55289
-5.5529
-5.5529
-5.5529
-5.5529
-5.5529
-5.5529
-5.5529
-5.5529
-5.5529
-5.5529
-5.5529
-5.5529
-5.5529
-5.5529
-5.55289
-5.55288
-5.55287
-5.55286
-5.55284
-5.55282
-5.55279
-5.55276
-5.55273
-5.55269
-5.55265
-5.55261
-5.55257
-5.55253
-5.5525
-5.55247
-5.55244
-5.55243
-5.55243
-5.55244
-5.55245
-5.55248
-5.55251
-5.55255
-5.55259
-5.55263
-5.55267
-5.55271
-5.55275
-5.55278
-5.55281
-5.55283
-5.55285
-5.55287
-5.55288
-5.55289
-5.5529
-5.5529
-5.5529
-5.5529
-5.55291
-5.5529
-5.5529
-5.5529
-5.8796
-5.8796
-5.87959
-5.87959
-5.87958
-5.87957
-5.87956
-5.87954
-5.87953
-5.8795
-5.87948
-5.87945
-5.87942
-5.87938
-5.87935
-5.8793
-5.87926
-5.87922
-5.87917
-5.87913
-5.87908
-5.87905
-5.87902
-5.87899
-5.87898
-5.87897
-5.87898
-5.87899
-5.87902
-5.87905
-5.87908
-5.87913
-5.87917
-5.87921
-5.87926
-5.8793
-5.87934
-5.87938
-5.87942
-5.87945
-5.87948
-5.8795
-5.87952
-5.87954
-5.87955
-5.87957
-5.87958
-5.87958
-5.87959
-5.87959
-5.87959
-5.87959
-5.87959
-5.87959
-5.87958
-5.87957
-5.87956
-5.87955
-5.87954
-5.87952
-5.87949
-5.87947
-5.87944
-5.87941
-5.87937
-5.87933
-5.87929
-5.87925
-5.8792
-5.87916
-5.87911
-5.87907
-5.87904
-5.87901
-5.87899
-5.87897
-5.87897
-5.87898
-5.879
-5.87902
-5.87906
-5.87909
-5.87914
-5.87918
-5.87923
-5.87927
-5.87932
-5.87936
-5.87939
-5.87943
-5.87946
-5.87949
-5.87951
-5.87953
-5.87955
-5.87956
-5.87957
-5.87958
-5.87959
-5.87959
-5.8796
-5.8796
-6.2063
-6.2063
-6.20629
-6.20628
-6.20627
-6.20625
-6.20622
-6.2062
-6.20617
-6.20614
-6.2061
-6.20606
-6.20602
-6.20597
-6.20592
-6.20587
-6.20582
-6.20577
-6.20572
-6.20567
-6.20563
-6.20559
-6.20556
-6.20553
-6.20552
-6.20551
-6.20552
-6.20553
-6.20556
-6.20559
-6.20563
-6.20567
-6.20572
-6.20577
-6.20582
-6.20587
-6.20592
-6.20597
-6.20602
-6.20606
-6.2061
-6.20613
-6.20617
-6.20619
-6.20622
-6.20624
-6.20626
-6.20628
-6.20629
-6.20629
-6.2063
-6.2063
-6.20629
-6.20628
-6.20627
-6.20626
-6.20624
-6.20621
-6.20619
-6.20616
-6.20612
-6.20609
-6.20605
-6.206
-6.20596
-6.20591
-6.20586
-6.20581
-6.20576
-6.20571
-6.20566
-6.20562
-6.20558
-6.20555
-6.20553
-6.20552
-6.20551
-6.20552
-6.20554
-6.20557
-6.2056
-6.20564
-6.20569
-6.20574
-6.20579
-6.20584
-6.20589
-6.20594
-6.20598
-6.20603
-6.20607
-6.20611
-6.20614
-6.20618
-6.20621
-6.20623
-6.20625
-6.20627
-6.20628
-6.20629
-6.2063
-6.2063
-6.53302
-6.53302
-6.533
-6.53299
-6.53296
-6.53293
-6.5329
-6.53286
-6.53282
-6.53277
-6.53273
-6.53267
-6.53262
-6.53256
-6.53251
-6.53245
-6.53239
-6.53233
-6.53228
-6.53223
-6.53218
-6.53214
-6.5321
-6.53208
-6.53206
-6.53206
-6.53207
-6.53208
-6.53211
-6.53214
-6.53218
-6.53223
-6.53228
-6.53233
-6.53239
-6.53245
-6.53251
-6.53256
-6.53262
-6.53267
-6.53273
-6.53277
-6.53282
-6.53286
-6.5329
-6.53293
-6.53296
-6.53298
-6.533
-6.53301
-6.53301
-6.53301
-6.533
-6.53299
-6.53297
-6.53295
-6.53292
-6.53289
-6.53285
-6.53281
-6.53276
-6.53271
-6.53266
-6.53261
-6.53255
-6.53249
-6.53243
-6.53238
-6.53232
-6.53226
-6.53221
-6.53217
-6.53213
-6.5321
-6.53208
-6.53206
-6.53206
-6.53207
-6.53209
-6.53211
-6.53215
-6.53219
-6.53224
-6.53229
-6.53235
-6.53241
-6.53246
-6.53252
-6.53258
-6.53264
-6.53269
-6.53274
-6.53279
-6.53283
-6.53287
-6.53291
-6.53294
-6.53297
-6.53299
-6.53301
-6.53302
-6.53302
-6.85976
-6.85975
-6.85973
-6.85971
-6.85967
-6.85963
-6.85959
-6.85954
-6.85949
-6.85943
-6.85937
-6.8593
-6.85924
-6.85917
-6.8591
-6.85903
-6.85897
-6.8589
-6.85884
-6.85879
-6.85874
-6.85869
-6.85866
-6.85863
-6.85862
-6.85861
-6.85862
-6.85863
-6.85866
-6.85869
-6.85874
-6.85879
-6.85884
-6.8589
-6.85897
-6.85904
-6.8591
-6.85917
-6.85924
-6.8593
-6.85937
-6.85943
-6.85949
-6.85954
-6.85959
-6.85963
-6.85967
-6.8597
-6.85972
-6.85974
-6.85974
-6.85974
-6.85973
-6.85972
-6.85969
-6.85966
-6.85962
-6.85958
-6.85953
-6.85947
-6.85941
-6.85935
-6.85929
-6.85922
-6.85915
-6.85908
-6.85902
-6.85895
-6.85889
-6.85883
-6.85877
-6.85872
-6.85868
-6.85865
-6.85863
-6.85861
-6.85861
-6.85862
-6.85864
-6.85867
-6.8587
-6.85875
-6.8588
-6.85886
-6.85892
-6.85898
-6.85905
-6.85912
-6.85919
-6.85925
-6.85932
-6.85938
-6.85944
-6.8595
-6.85955
-6.8596
-6.85965
-6.85968
-6.85971
-6.85974
-6.85975
-6.85976
-7.18651
-7.1865
-7.18647
-7.18644
-7.1864
-7.18635
-7.1863
-7.18624
-7.18617
-7.1861
-7.18602
-7.18594
-7.18587
-7.18579
-7.18571
-7.18563
-7.18556
-7.18549
-7.18542
-7.18536
-7.1853
-7.18526
-7.18522
-7.18519
-7.18518
-7.18517
-7.18518
-7.18519
-7.18522
-7.18526
-7.1853
-7.18536
-7.18542
-7.18549
-7.18556
-7.18563
-7.18571
-7.18579
-7.18587
-7.18595
-7.18602
-7.1861
-7.18617
-7.18624
-7.1863
-7.18635
-7.1864
-7.18644
-7.18647
-7.18649
-7.18649
-7.18649
-7.18648
-7.18646
-7.18643
-7.18639
-7.18634
-7.18628
-7.18622
-7.18615
-7.18608
-7.186
-7.18593
-7.18585
-7.18577
-7.18569
-7.18561
-7.18554
-7.18547
-7.1854
-7.18534
-7.18529
-7.18525
-7.18521
-7.18519
-7.18517
-7.18517
-7.18518
-7.1852
-7.18523
-7.18527
-7.18532
-7.18537
-7.18544
-7.1855
-7.18558
-7.18565
-7.18573
-7.18581
-7.18589
-7.18597
-7.18604
-7.18612
-7.18619
-7.18625
-7.18631
-7.18637
-7.18641
-7.18645
-7.18648
-7.1865
-7.18651
-7.51328
-7.51327
-7.51324
-7.5132
-7.51315
-7.5131
-7.51303
-7.51295
-7.51287
-7.51279
-7.5127
-7.51261
-7.51252
-7.51243
-7.51234
-7.51225
-7.51217
-7.51209
-7.51201
-7.51195
-7.51189
-7.51184
-7.5118
-7.51177
-7.51175
-7.51175
-7.51175
-7.51177
-7.5118
-7.51184
-7.51189
-7.51195
-7.51202
-7.51209
-7.51217
-7.51225
-7.51234
-7.51243
-7.51252
-7.51261
-7.5127
-7.51279
-7.51288
-7.51295
-7.51303
-7.51309
-7.51315
-7.5132
-7.51323
-7.51326
-7.51327
-7.51327
-7.51325
-7.51322
-7.51319
-7.51314
-7.51308
-7.51301
-7.51293
-7.51285
-7.51277
-7.51268
-7.51259
-7.5125
-7.51241
-7.51232
-7.51223
-7.51215
-7.51207
-7.512
-7.51193
-7.51188
-7.51183
-7.51179
-7.51177
-7.51175
-7.51175
-7.51176
-7.51178
-7.51181
-7.51185
-7.5119
-7.51196
-7.51203
-7.51211
-7.51219
-7.51227
-7.51236
-7.51245
-7.51254
-7.51263
-7.51272
-7.51281
-7.51289
-7.51297
-7.51305
-7.51311
-7.51317
-7.51321
-7.51325
-7.51327
-7.51328
-7.84008
-7.84007
-7.84003
-7.83999
-7.83993
-7.83986
-7.83978
-7.8397
-7.8396
-7.83951
-7.8394
-7.8393
-7.8392
-7.83909
-7.83899
-7.8389
-7.8388
-7.83872
-7.83864
-7.83856
-7.8385
-7.83845
-7.8384
-7.83837
-7.83835
-7.83835
-7.83835
-7.83837
-7.8384
-7.83845
-7.8385
-7.83857
-7.83864
-7.83872
-7.83881
-7.8389
-7.839
-7.8391
-7.8392
-7.83931
-7.83941
-7.83951
-7.83961
-7.8397
-7.83979
-7.83986
-7.83993
-7.83998
-7.84002
-7.84005
-7.84007
-7.84006
-7.84005
-7.84001
-7.83997
-7.83991
-7.83984
-7.83976
-7.83968
-7.83958
-7.83949
-7.83938
-7.83928
-7.83918
-7.83907
-7.83897
-7.83888
-7.83878
-7.8387
-7.83862
-7.83855
-7.83849
-7.83844
-7.8384
-7.83837
-7.83835
-7.83835
-7.83836
-7.83838
-7.83841
-7.83846
-7.83851
-7.83858
-7.83866
-7.83874
-7.83883
-7.83892
-7.83902
-7.83912
-7.83923
-7.83933
-7.83943
-7.83953
-7.83963
-7.83972
-7.83981
-7.83988
-7.83995
-7.84
-7.84004
-7.84007
-7.84008
-8.16691
-8.16689
-8.16686
-8.1668
-8.16674
-8.16666
-8.16657
-8.16647
-8.16637
-8.16626
-8.16614
-8.16603
-8.16591
-8.1658
-8.16569
-8.16558
-8.16548
-8.16538
-8.16529
-8.16521
-8.16514
-8.16509
-8.16504
-8.16501
-8.16499
-8.16498
-8.16499
-8.16501
-8.16504
-8.16509
-8.16515
-8.16522
-8.1653
-8.16539
-8.16548
-8.16559
-8.16569
-8.16581
-8.16592
-8.16604
-8.16615
-8.16627
-8.16638
-8.16648
-8.16657
-8.16666
-8.16674
-8.1668
-8.16685
-8.16688
-8.16689
-8.16689
-8.16687
-8.16683
-8.16678
-8.16672
-8.16664
-8.16655
-8.16645
-8.16635
-8.16624
-8.16612
-8.16601
-8.16589
-8.16578
-8.16566
-8.16556
-8.16546
-8.16536
-8.16528
-8.1652
-8.16513
-8.16508
-8.16503
-8.165
-8.16499
-8.16498
-8.16499
-8.16502
-8.16505
-8.1651
-8.16516
-8.16523
-8.16531
-8.1654
-8.1655
-8.16561
-8.16572
-8.16583
-8.16594
-8.16606
-8.16618
-8.16629
-8.1664
-8.1665
-8.1666
-8.16668
-8.16676
-8.16682
-8.16687
-8.1669
-8.16691
-8.49377
-8.49375
-8.49371
-8.49365
-8.49358
-8.49349
-8.4934
-8.49329
-8.49317
-8.49305
-8.49293
-8.4928
-8.49267
-8.49255
-8.49242
-8.49231
-8.4922
-8.49209
-8.492
-8.49191
-8.49184
-8.49177
-8.49173
-8.49169
-8.49167
-8.49166
-8.49167
-8.49169
-8.49173
-8.49178
-8.49184
-8.49192
-8.492
-8.4921
-8.4922
-8.49231
-8.49243
-8.49256
-8.49268
-8.49281
-8.49294
-8.49306
-8.49318
-8.49329
-8.4934
-8.49349
-8.49358
-8.49365
-8.4937
-8.49373
-8.49375
-8.49375
-8.49373
-8.49369
-8.49363
-8.49356
-8.49347
-8.49337
-8.49326
-8.49315
-8.49303
-8.4929
-8.49277
-8.49265
-8.49252
-8.4924
-8.49228
-8.49217
-8.49207
-8.49198
-8.49189
-8.49182
-8.49176
-8.49172
-8.49168
-8.49167
-8.49166
-8.49167
-8.4917
-8.49174
-8.49179
-8.49185
-8.49193
-8.49202
-8.49212
-8.49222
-8.49234
-8.49246
-8.49258
-8.49271
-8.49283
-8.49296
-8.49308
-8.4932
-8.49332
-8.49342
-8.49352
-8.4936
-8.49367
-8.49372
-8.49375
-8.49377
-8.82066
-8.82064
-8.8206
-8.82053
-8.82046
-8.82036
-8.82026
-8.82014
-8.82002
-8.81989
-8.81975
-8.81962
-8.81948
-8.81935
-8.81922
-8.81909
-8.81897
-8.81886
-8.81876
-8.81867
-8.81859
-8.81852
-8.81847
-8.81843
-8.81841
-8.8184
-8.81841
-8.81843
-8.81847
-8.81853
-8.81859
-8.81867
-8.81876
-8.81887
-8.81898
-8.8191
-8.81923
-8.81936
-8.81949
-8.81963
-8.81977
-8.8199
-8.82003
-8.82015
-8.82026
-8.82037
-8.82046
-8.82053
-8.82059
-8.82062
-8.82064
-8.82064
-8.82062
-8.82057
-8.82051
-8.82043
-8.82034
-8.82024
-8.82012
-8.81999
-8.81986
-8.81973
-8.81959
-8.81946
-8.81932
-8.81919
-8.81907
-8.81895
-8.81884
-8.81874
-8.81865
-8.81857
-8.81851
-8.81846
-8.81843
-8.81841
-8.8184
-8.81841
-8.81844
-8.81848
-8.81854
-8.81861
-8.81869
-8.81878
-8.81889
-8.819
-8.81912
-8.81925
-8.81938
-8.81952
-8.81965
-8.81979
-8.81992
-8.82005
-8.82018
-8.82029
-8.82039
-8.82048
-8.82055
-8.82061
-8.82065
-8.82066
-9.14759
-9.14756
-9.14752
-9.14746
-9.14737
-9.14728
-9.14717
-9.14705
-9.14692
-9.14678
-9.14664
-9.14649
-9.14635
-9.14621
-9.14607
-9.14594
-9.14581
-9.1457
-9.14559
-9.14549
-9.14541
-9.14534
-9.14529
-9.14525
-9.14522
-9.14522
-9.14522
-9.14525
-9.14529
-9.14535
-9.14542
-9.1455
-9.1456
-9.14571
-9.14582
-9.14595
-9.14608
-9.14622
-9.14636
-9.14651
-9.14665
-9.14679
-9.14692
-9.14705
-9.14717
-9.14728
-9.14737
-9.14745
-9.14751
-9.14755
-9.14757
-9.14757
-9.14754
-9.1475
-9.14743
-9.14735
-9.14725
-9.14714
-9.14702
-9.14689
-9.14675
-9.14661
-9.14647
-9.14633
-9.14618
-9.14605
-9.14592
-9.14579
-9.14568
-9.14557
-9.14548
-9.1454
-9.14533
-9.14528
-9.14524
-9.14522
-9.14522
-9.14523
-9.14526
-9.1453
-9.14536
-9.14543
-9.14552
-9.14562
-9.14573
-9.14585
-9.14597
-9.14611
-9.14625
-9.14639
-9.14653
-9.14667
-9.14681
-9.14695
-9.14708
-9.1472
-9.1473
-9.1474
-9.14747
-9.14753
-9.14757
-9.14759
-9.47456
-9.47453
-9.47448
-9.47442
-9.47433
-9.47423
-9.47412
-9.474
-9.47386
-9.47372
-9.47358
-9.47343
-9.47328
-9.47314
-9.473
-9.47286
-9.47273
-9.47261
-9.4725
-9.4724
-9.47232
-9.47225
-9.47219
-9.47215
-9.47213
-9.47212
-9.47213
-9.47215
-9.47219
-9.47225
-9.47232
-9.47241
-9.47251
-9.47262
-9.47274
-9.47287
-9.47301
-9.47315
-9.4733
-9.47344
-9.47359
-9.47373
-9.47387
-9.474
-9.47413
-9.47424
-9.47433
-9.47441
-9.47448
-9.47452
-9.47454
-9.47453
-9.47451
-9.47446
-9.4744
-9.47431
-9.47421
-9.4741
-9.47397
-9.47384
-9.4737
-9.47355
-9.4734
-9.47326
-9.47311
-9.47297
-9.47284
-9.47271
-9.47259
-9.47248
-9.47239
-9.4723
-9.47224
-9.47218
-9.47214
-9.47212
-9.47212
-9.47213
-9.47216
-9.4722
-9.47226
-9.47234
-9.47243
-9.47253
-9.47264
-9.47276
-9.4729
-9.47303
-9.47318
-9.47332
-9.47347
-9.47362
-9.47376
-9.4739
-9.47403
-9.47415
-9.47426
-9.47436
-9.47444
-9.4745
-9.47454
-9.47456
)
;

boundaryField
{
    top
    {
        type            calculated;
        value           nonuniform List<scalar> 
102
(
-9.63805
-9.63803
-9.63798
-9.63791
-9.63783
-9.63773
-9.63761
-9.63749
-9.63735
-9.63721
-9.63706
-9.63691
-9.63677
-9.63662
-9.63648
-9.63634
-9.63621
-9.63609
-9.63598
-9.63588
-9.63579
-9.63572
-9.63566
-9.63562
-9.6356
-9.63559
-9.6356
-9.63562
-9.63567
-9.63572
-9.6358
-9.63588
-9.63598
-9.6361
-9.63622
-9.63635
-9.63649
-9.63663
-9.63678
-9.63693
-9.63707
-9.63722
-9.63736
-9.63749
-9.63762
-9.63773
-9.63783
-9.63791
-9.63797
-9.63801
-9.63803
-9.63803
-9.638
-9.63796
-9.63789
-9.6378
-9.6377
-9.63759
-9.63746
-9.63732
-9.63718
-9.63704
-9.63689
-9.63674
-9.63659
-9.63645
-9.63631
-9.63619
-9.63607
-9.63596
-9.63586
-9.63578
-9.63571
-9.63565
-9.63561
-9.63559
-9.63559
-9.6356
-9.63563
-9.63568
-9.63574
-9.63581
-9.6359
-9.636
-9.63612
-9.63624
-9.63637
-9.63651
-9.63666
-9.6368
-9.63695
-9.6371
-9.63725
-9.63739
-9.63752
-9.63764
-9.63775
-9.63785
-9.63793
-9.63799
-9.63804
-9.63805
)
;
    }
    bottom
    {
        type            calculated;
        value           nonuniform List<scalar> 
102
(
0.16311
0.163079
0.163021
0.162937
0.162826
0.16269
0.162529
0.162342
0.162131
0.161896
0.161641
0.161368
0.161083
0.160791
0.160501
0.160224
0.159967
0.159742
0.159554
0.159407
0.1593
0.159226