/*--------------------------------*- C++ -*----------------------------------*\
| =========                 |                                                 |
| \\      /  F ield         | OpenFOAM: The Open Source CFD Toolbox           |
|  \\    /   O peration     | Version:  2.3.0                                 |
|   \\  /    A nd           | Web:      www.OpenFOAM.org                      |
|    \\/     M anipulation  |                                                 |
\*---------------------------------------------------------------------------*/
FoamFile
{
    version     2.0;
    format      ascii;
    class       volScalarField;
    location    "13000";
    object      p;
}
// * * * * * * * * * * * * * * * * * * * * * * * * * * * * * * * * * * * * * //

dimensions      [0 2 -2 0 0 0 0];

internalField   nonuniform List<scalar> 
765
(
-1662.31
-1671.15
-1679.81
-1688.98
-1699.57
-1712.53
-1728.38
-1746.51
-1764.81
-1779.41
-1784.47
-1775.36
-1759.02
-1740.37
-1722.78
-1707.79
-1695.66
-1685.62
-1676.7
-1668.02
-1659
-1649.25
-1638.59
-1626.84
-1613.8
-1599.13
-1582.32
-1562.45
-1538.04
-1506.87
-1465.37
-1409.54
-1342.73
-1265.15
-1173.1
-1110.22
-1125.65
-1206.73
-1295.57
-1367.71
-1431.86
-1482
-1519.15
-1547.5
-1570.02
-1588.64
-1604.59
-1618.62
-1631.18
-1642.52
-1652.85
-1497.14
-1505.65
-1514.4
-1523.75
-1534
-1545.39
-1557.8
-1570.7
-1582.53
-1591.15
-1594.18
-1588.77
-1578.92
-1566.46
-1553.56
-1541.43
-1530.39
-1520.44
-1511.31
-1502.65
-1494.14
-1485.5
-1476.47
-1466.87
-1456.55
-1445.33
-1432.93
-1418.96
-1402.8
-1383.97
-1361.15
-1332.64
-1299.34
-1274.47
-1281.42
-1282.47
-1282.85
-1277.08
-1280.28
-1312.33
-1343.83
-1369.95
-1391.11
-1408.88
-1424.15
-1437.49
-1449.43
-1460.3
-1470.34
-1479.72
-1488.59
-1359.47
-1366.54
-1374.01
-1381.97
-1390.42
-1399.31
-1408.42
-1417.02
-1423.91
-1428.15
-1429.62
-1427.01
-1421.94
-1414.31
-1405.41
-1396.33
-1387.56
-1379.25
-1371.45
-1364.1
-1357.15
-1350.5
-1343.99
-1337.51
-1330.97
-1324.36
-1317.69
-1310.99
-1304.32
-1297.83
-1284.7
-1268.33
-1248.25
-1212.84
-1204.32
-1203.23
-1203.65
-1205.21
-1224.15
-1257.34
-1273.24
-1290.78
-1300.1
-1306.55
-1313.27
-1319.97
-1326.63
-1333.22
-1339.73
-1346.21
-1352.74
-1236.94
-1241.93
-1247.22
-1252.72
-1258.37
-1264.07
-1269.6
-1274.18
-1276.99
-1277.91
-1278.15
-1277.73
-1276.34
-1272.88
-1267.89
-1262.25
-1256.55
-1250.94
-1245.49
-1240.29
-1235.42
-1230.89
-1226.72
-1222.87
-1219.27
-1215.88
-1212.61
-1209.34
-1205.87
-1201.93
-1187.34
-1161.75
-1139.46
-1130.03
-1123.05
-1117.64
-1119.04
-1125.6
-1133.03
-1143.15
-1171.93
-1194.76
-1203.33
-1206.96
-1210.35
-1213.6
-1216.91
-1220.38
-1224.06
-1228.01
-1232.3
-1118.01
-1120.83
-1123.75
-1126.7
-1129.63
-1132.51
-1135.13
-1136.89
-1137.17
-1136.18
-1135.62
-1136.58
-1137.32
-1136.53
-1134.42
-1131.66
-1128.75
-1125.81
-1122.87
-1119.98
-1117.22
-1114.68
-1112.39
-1110.33
-1108.43
-1106.53
-1104.38
-1101.71
-1098.14
-1093.91
-1084.09
-1063.28
-1030.56
-1022.75
-1022.96
-1021.61
-1022.05
-1022.98
-1024.51
-1038.17
-1072.45
-1089.32
-1095.38
-1099.4
-1102.59
-1105.03
-1107.05
-1108.93
-1110.87
-1113.01
-1115.39
-996.82
-997.81
-998.758
-999.636
-1000.44
-1001.16
-1001.6
-1001.38
-1000.12
-998.067
-997.074
-998.811
-1000.74
-1001.65
-1001.6
-1001.04
-1000.28
-999.453
-998.553
-997.592
-996.605
-995.646
-994.75
-993.907
-993.035
-991.966
-990.47
-988.291
-985.157
-981.267
-974.994
-962.195
-936.153
-931.808
-933.14
-932.692
-932.91
-932.395
-933.051
-943.827
-967.084
-978.073
-982.595
-986.284
-989.029
-990.924
-992.234
-993.209
-994.057
-994.916
-995.84
-871.266
-870.866
-870.361
-869.769
-869.091
-868.235
-867.08
-865.396
-863.015
-860.273
-859.087
-861.222
-863.961
-866.123
-867.605
-868.634
-869.412
-870.061
-870.63
-871.107
-871.475
-871.742
-871.918
-871.999
-871.931
-871.61
-870.895
-869.645
-867.752
-865.418
-862.089
-857.472
-847.617
-846.948
-846.525
-845.848
-846.095
-846.534
-847.813
-850.073
-858.46
-863.494
-866.158
-868.405
-870.055
-871.094
-871.65
-871.867
-871.876
-871.762
-871.56
-741.104
-739.707
-738.2
-736.586
-734.819
-732.784
-730.365
-727.454
-724.124
-720.934
-719.686
-721.989
-725.327
-728.557
-731.299
-733.562
-735.494
-737.203
-738.783
-740.259
-741.618
-742.844
-743.928
-744.861
-745.61
-746.131
-746.388
-746.374
-746.151
-745.984
-745.325
-748.61
-761.295
-765.921
-762.958
-761.212
-761.62
-764.75
-766.788
-754.22
-746.342
-745.698
-746.029
-746.222
-746.367
-746.275
-745.917
-745.309
-744.491
-743.505
-742.373
-606.985
-604.829
-602.548
-600.094
-597.382
-594.307
-590.756
-586.759
-582.626
-579.15
-577.876
-580.242
-584.019
-588.176
-592.039
-595.421
-598.366
-600.98
-603.371
-605.607
-607.726
-609.741
-611.667
-613.506
-615.245
-616.883
-618.475
-620.128
-622.056
-624.57
-626.879
-638.668
-675.096
-684.627
-679.367
-676.734
-677.319
-683.259
-686.278
-658.421
-633.454
-626.349
-623.822
-621.41
-619.57
-617.928
-616.318
-614.642
-612.863
-610.99
-609.034
-469.85
-466.941
-463.882
-460.576
-456.911
-452.777
-448.126
-443.12
-438.265
-434.529
-433.211
-435.628
-439.803
-444.798
-449.721
-454.207
-458.18
-461.716
-464.931
-467.93
-470.806
-473.632
-476.484
-479.421
-482.457
-485.624
-489.048
-492.906
-497.557
-503.363
-510.102
-533.155
-590.032
-600.19
-592.917
-590.708
-591.044
-596.87
-599.14
-563.127
-523.269
-507.495
-501.462
-495.942
-491.6
-487.892
-484.565
-481.445
-478.438
-475.527
-472.688
-331.364
-327.452
-323.378
-318.999
-314.179
-308.82
-302.947
-296.842
-291.167
-287.03
-285.602
-288.148
-292.855
-298.774
-304.856
-310.582
-315.766
-320.433
-324.699
-328.706
-332.595
-336.503
-340.591
-345.026
-349.849
-355.13
-361.094
-368.019
-376.473
-386.687
-399.479
-426.503
-492.086
-506.476
-502.119
-502.575
-502.244
-503.073
-504.449
-471.391
-415.746
-393.806
-383.105
-373.446
-365.649
-359.082
-353.385
-348.276
-343.583
-339.267
-335.253
-195.406
-189.973
-184.429
-178.579
-172.253
-165.35
-157.94
-150.4
-143.536
-138.63
-136.946
-139.841
-145.461
-152.662
-160.232
-167.512
-174.237
-180.402
-186.138
-191.628
-197.068
-202.659
-208.65
-215.287
-222.595
-230.632
-239.591
-249.29
-259.262
-267.499
-283.445
-319.038
-382.972
-402.468
-410.185
-415.353
-414.152
-407.379
-399.319
-362.984
-301.734
-276.079
-265.526
-256.105
-246.205
-236.666
-228.032
-220.26
-213.173
-206.756
-200.925
-68.1182
-60.2373
-52.1323
-43.6402
-34.631
-25.061
-15.081
-5.18364
3.668
9.97894
12.1573
8.5358
1.31104
-8.00979
-18.0237
-27.9237
-37.3361
-46.185
-54.5505
-62.5766
-70.434
-78.3372
-86.8086
-96.5193
-107.107
-117.675
-127.658
-135.303
-140.96
-143.873
-157.555
-209.995
-275.614
-311.242
-333.287
-343.737
-341.357
-326.33
-300.292
-254.265
-185.728
-147.261
-144.135
-138.943
-133.398
-124.682
-114.458
-103.864
-93.4632
-84.1678
-75.9669
23.5148
33.1364
42.8766
52.9347
63.58
75.0548
87.4036
100.193
112.198
121.16
124.391
119.171
109.055
96.5787
83.7984
71.6677
60.4431
49.9902
40.0419
30.3394
20.7278
11.3179
2.38064
-5.51824
-11.6568
-15.1547
-15.9226
-15.4401
-20.0695
-35.1915
-65.9347
-118.201
-169.586
-202.254
-223.557
-233.559
-231.296
-217.032
-191.925
-153.199
-96.7157
-53.2202
-29.3227
-17.5167
-15.8743
-16.1596
-14.5822
-10.1549
-3.36361
4.92442
14.0322
74.0192
69.2322
63.4811
56.7705
48.9686
39.892
29.4612
17.9594
6.45633
-2.80128
-5.87711
-0.643784
9.76806
21.5232
32.8186
42.8644
51.5438
58.997
65.4084
70.8748
75.3533
78.905
82.4259
85.9672
86.3568
81.9468
71.7964
53.6359
22.0098
-29.3266
-103.904
-193.212
-282.215
-353.828
-404.422
-428.73
-423.253
-388.952
-330.264
-251.939
-160.005
-76.0653
-9.41681
34.6079
60.6589
75.7723
83.8517
86.6888
85.0481
81.2209
77.8227
)
;

boundaryField
{
    top
    {
        type            calculated;
        value           uniform -9.81;
    }
    bottom
    {
        type            calculated;
        value           nonuniform List<scalar> 
51
(
-1753.32
-1762.29
-1770.84
-1779.78
-1790.19
-1803.27
-1819.72
-1838.5
-1857.67
-1873.44
-1879.16
-1868.98
-1851.53
-1832.08
-1813.84
-1798.42
-1786.3
-1776.48
-1767.77
-1759.14
-1749.88
-1739.7
-1728.48
-1716.04
-1702.15
-1686.45
-1668.33
-1646.84
-1620.39
-1586.73
-1542.23
-1482.72
-1412.52
-1332.42
-1238.61
-1174.96
-1190.59
-1272.77
-1363.66
-1438.6
-1506.48
-1560.02
-1599.97
-1630.64
-1655.04
-1675.16
-1692.31
-1707.31
-1720.65
-1732.63
-1743.48
)
;
    }
    frontAndBack
    {
        type            empty;
    }
    left_cyc
    {
        type            cyclic;
    }
    right_cyc
    {
        type            cyclic;
    }
}


// ************************************************************************* //
