/*--------------------------------*- C++ -*----------------------------------*\
| =========                 |                                                 |
| \\      /  F ield         | OpenFOAM: The Open Source CFD Toolbox           |
|  \\    /   O peration     | Version:  2.3.0                                 |
|   \\  /    A nd           | Web:      www.OpenFOAM.org                      |
|    \\/     M anipulation  |                                                 |
\*---------------------------------------------------------------------------*/
FoamFile
{
    version     2.0;
    format      ascii;
    class       volScalarField;
    location    "13000";
    object      p;
}
// * * * * * * * * * * * * * * * * * * * * * * * * * * * * * * * * * * * * * //

dimensions      [0 2 -2 0 0 0 0];

internalField   nonuniform List<scalar> 
3060
(
0
-3.07201
-8.82841
-17.226
-28.2207
-41.7782
-57.8746
-76.4799
-97.5284
-120.885
-146.322
-173.495
-201.928
-230.984
-259.833
-287.502
-313.004
-335.447
-354.095
-368.633
-379.28
-386.531
-391.118
-393.793
-395.152
-395.55
-395.104
-393.697
-390.968
-386.322
-379.004
-368.28
-353.656
-334.916
-312.379
-286.787
-259.048
-230.166
-201.132
-172.775
-145.737
-120.498
-97.3991
-76.6675
-58.4348
-42.7648
-29.6869
-19.2254
-11.4139
-6.29361
-3.90273
-4.26422
-7.37402
-13.2042
-21.7146
-32.8652
-46.6253
-62.9713
-81.8682
-103.238
-126.925
-152.675
-180.112
-208.714
-237.798
-266.477
-293.746
-318.619
-340.22
-357.887
-371.453
-381.222
-387.764
-391.838
-394.172
-395.302
-395.524
-394.894
-393.234
-390.123
-384.913
-376.835
-365.203
-349.59
-329.892
-306.564
-280.402
-252.325
-223.329
-194.365
-166.207
-139.45
-114.531
-91.7629
-71.3468
-53.3968
-37.9657
-25.0795
-14.7638
-7.0564
-2.00213
0.358053
38.5858
35.9807
31.0751
23.8655
14.3434
2.50356
-11.641
-28.0397
-46.5884
-67.1193
-89.3886
-113.048
-137.605
-162.393
-186.708
-210.116
-232.397
-252.799
-270.071
-283.466
-293.227
-299.901
-304.189
-306.752
-308.088
-308.488
-308.047
-306.669
-304.06
-299.723
-292.993
-283.17
-269.707
-252.372
-231.925
-209.617
-186.192
-161.877
-137.126
-112.655
-89.1326
-67.0528
-46.7643
-28.5111
-12.4593
1.29061
12.6929
21.739
28.4372
32.7983
34.8259
34.5198
31.88
26.9067
19.5937
9.92994
-2.09029
-16.4506
-33.0924
-51.8987
-72.6848
-95.1824
-119.009
-143.626
-168.328
-192.43
-215.591
-237.515
-257.266
-273.614
-286.077
-295.026
-301.06
-304.884
-307.13
-308.243
-308.461
-307.832
-306.21
-303.25
-298.404
-290.985
-280.316
-265.894
-247.689
-226.678
-204.061
-180.397
-155.897
-131.097
-106.719
-83.3828
-61.5414
-41.5111
-23.514
-7.7001
5.84154
17.0721
25.9853
32.5883
36.8889
38.8886
68.4078
65.8509
61.0605
54.0831
44.9953
33.9159
21.0112
6.48718
-9.43483
-26.5463
-44.6684
-63.6532
-83.3834
-103.761
-124.583
-145.146
-164.16
-180.447
-193.736
-204.618
-212.955
-218.428
-221.714
-223.567
-224.494
-224.763
-224.46
-223.499
-221.61
-218.287
-212.775
-204.402
-193.492
-180.183
-163.889
-144.892
-124.384
-103.654
-83.392
-63.7961
-44.9644
-27.02
-10.1184
5.55254
19.7766
32.3288
43.0039
51.6398
58.1227
62.3804
64.3694
64.0686
61.4815
56.6349
49.5787
40.3948
29.2094
16.1974
1.57167
-14.4422
-31.6343
-49.8252
-68.8678
-88.6481
-109.061
-129.831
-150.08
-168.461
-183.942
-196.569
-206.873
-214.474
-219.333
-222.216
-223.823
-224.594
-224.744
-224.317
-223.182
-221.013
-217.231
-211.049
-201.976
-190.497
-176.47
-159.387
-139.833
-119.093
-98.3493
-78.1295
-58.5857
-39.8147
-21.9425
-5.12485
10.451
24.5708
37.0142
47.5841
56.1266
62.5348
66.7414
68.7056
115.379
112.897
108.259
101.53
92.8155
82.2608
70.0627
56.4616
41.7225
26.1068
9.84474
-6.88365
-23.9592
-41.3114
-58.7943
-75.9145
-91.9518
-106.539
-119.165
-128.589
-134.851
-139.053
-141.231
-142.143
-142.477
-142.55
-142.452
-142.092
-141.158
-138.961
-134.747
-128.483
-119.071
-106.476
-91.9315
-75.9405
-58.8834
-41.487
-24.2375
-7.27894
9.31594
25.4209
40.8472
55.3555
68.677
80.5432
90.7141
98.9965
105.247
109.369
111.299
111.007
108.498
103.81
97.0151
88.2214
77.5848
65.3119
51.6523
36.8779
21.2521
5.0029
-11.6965
-28.7366
-46.0461
-63.4237
-80.2657
-95.9011
-110.01
-121.895
-130.369
-136.04
-139.711
-141.486
-142.221
-142.493
-142.544
-142.418
-141.975
-140.816
-138.146
-133.423
-126.468
-116.1
-102.861
-87.8669
-71.4922
-54.2034
-36.7278
-19.4406
-2.44789
14.1723
30.2844
45.6938
60.1599
73.4174
85.2051
95.293
103.498
109.685
113.761
115.669
162.71
160.48
156.317
150.288
142.493
133.063
122.164
109.988
96.7449
82.6473
67.9026
52.7119
37.28
21.8449
6.74138
-7.52863
-20.5318
-32.4444
-43.5079
-52.5393
-58.3275
-61.0417
-61.8757
-61.827
-61.5644
-61.4431
-61.5482
-61.797
-61.839
-61.0113
-58.3195
-52.5689
-43.5766
-32.5503
-20.6654
-7.67919
6.56575
21.6202
36.9806
52.3131
67.379
81.9703
95.8813
108.9
120.808
131.396
140.47
147.868
153.46
157.152
158.881
158.62
156.371
152.173
146.097
138.246
128.757
117.803
105.583
92.3088
78.199
63.4634
48.3067
32.9414
17.6227
2.72324
-11.2183
-23.8736
-35.5438
-46.209
-54.4096
-59.2804
-61.3518
-61.8814
-61.7267
-61.4984
-61.45
-61.6218
-61.8811
-61.7655
-60.5633
-57.1342
-50.4531
-40.7176
-29.3892
-17.2371
-3.88943
10.655
25.8873
41.349
56.7387
71.8316
86.4259
100.319
113.303
125.162
135.693
144.708
152.05
157.596
161.256
162.97
204.456
202.429
198.651
193.19
186.148
177.657
167.875
156.984
145.18
132.666
119.641
106.304
92.8603
79.5343
66.6032
54.4287
43.4098
33.8225
25.8946
19.7389
15.6851
14.6237
15.6732
17.3881
18.5292
18.8864
18.5345
17.3935
15.662
14.5725
15.5835
19.605
25.7521
33.6789
43.2592
54.262
66.4058
79.2862
92.5412
105.893
119.113
131.995
144.335
155.929
166.572
176.066
184.229
190.904
195.962
199.309
200.878
200.641
198.601
194.798
189.304
182.225
173.697
163.883
152.971
141.161
128.659
115.668
102.393
89.0428
75.8557
63.1283
51.2472
40.5965
31.4248
23.9737
18.286
15.035
14.7224
16.1148
17.7783
18.6989
18.8649
18.316
16.9606
15.2823
14.6391
16.4705
21.2006
27.8047
36.1951
46.1784
57.5343
69.948
83.0138
96.395
109.831
123.105
136.015
148.362
159.945
170.563
180.022
188.147
194.784
199.811
203.135
204.693
243.15
241.322
237.919
233.01
226.696
219.105
210.39
200.721
190.282
179.261
167.851
156.245
144.644
133.265
122.354
112.196
103.093
95.3049
89.1272
84.9753
83.4278
85.2119
89.5199
93.8362
96.7221
97.6119
96.7139
93.8078
89.4479
85.0879
83.2755
84.8221
88.9787
95.1567
102.938
112.026
122.155
133.022
144.339
155.858
167.359
178.639
189.5
199.748
209.19
217.641
224.931
230.91
235.452
238.461
239.874
239.66
237.824
234.405
229.476
223.14
215.53
206.801
197.13
186.702
175.712
164.354
152.828
141.34
130.116
119.412
109.527
100.758
93.3629
87.6753
84.1253
83.4163
86.0881
90.6768
94.7555
97.1345
97.5571
96.164
92.8044
88.2977
84.4218
83.533
85.8512
90.5749
97.214
105.372
114.78
125.166
136.225
147.684
159.306
170.879
182.206
193.092
203.347
212.782
221.218
228.486
234.442
238.963
241.958
243.363
279.355
277.709
274.649
270.245
264.597
257.833
250.101
241.564
232.398
222.783
212.903
202.941
193.086
183.536
174.507
166.239
158.987
152.998
148.552
146.013
145.922
149.331
156.624
164.647
170.052
171.896
170.026
164.58
156.509
149.183
145.769
145.867
148.412
152.86
158.845
166.084
174.328
183.32
192.817
202.602
212.473
222.238
231.711
240.704
249.036
256.53
263.021
268.363
272.434
275.136
276.407
276.214
274.564
271.495
267.081
261.424
254.655
246.925
238.402
229.265
219.697
209.886
200.018
190.289
180.903
172.082
164.077
157.142
151.53
147.544
145.572
146.271
150.799
158.74
166.332
170.875
171.774
168.968
162.715
154.464
148.025
145.664
146.476
149.555
154.44
160.785
168.329
176.821
186.009
195.658
205.56
215.518
225.346
234.86
243.878
252.22
259.713
266.197
271.528
275.588
278.281
279.547
313.933
312.456
309.713
305.776
300.745
294.746
287.922
280.433
272.447
264.138
255.678
247.24
239.001
231.138
223.84
217.311
211.765
207.421
204.532
203.42
204.523
208.591
216.545
226.75
234.61
237.396
234.567
226.662
216.421
208.451
204.386
203.292
204.412
207.305
211.648
217.186
223.698
230.967
238.789
246.971
255.332
263.694
271.88
279.713
287.02
293.63
299.384
304.139
307.773
310.192
311.331
311.158
309.68
306.935
302.996
297.966
291.973
285.164
277.703
269.76
261.51
253.132
244.8
236.695
229
221.909
215.631
210.384
206.395
203.933
203.343
205.125
210.154
219.067
229.136
235.844
237.208
232.99
224.116
214.092
207.177
203.989
203.523
205.138
208.437
213.119
218.945
225.696
233.161
241.14
249.449
257.909
266.346
274.587
282.458
289.788
296.41
302.169
306.923
310.554
312.969
314.106
347.459
346.139
343.691
340.187
335.727
330.435
324.451
317.932
311.039
303.937
296.79
289.759
283.005
276.688
270.969
266.02
262.015
259.137
257.592
257.631
259.58
263.9
271.172
280.798
289.179
292.405
289.131
280.711
271.059
263.781
259.468
257.53
257.501
259.053
261.935
265.937
270.876
276.577
282.864
289.574
296.543
303.609
310.607
317.369
323.728
329.522
334.596
338.808
342.04
344.196
345.212
345.058
343.739
341.293
337.794
333.343
328.067
322.109
315.628
308.788
301.756
294.7
287.783
281.169
275.02
269.502
264.791
261.064
258.51
257.345
257.84
260.349
265.39
273.459
283.235
290.592
292.182
287.363
278.203
268.967
262.505
258.865
257.455
257.86
259.777
262.97
267.24
272.407
278.3
284.748
291.59
298.666
305.817
312.88
319.69
326.084
331.9
336.987
341.207
344.441
346.597
347.614
380.377
379.204
377.036
373.941
370.018
365.389
360.192
354.577
348.701
342.718
336.784
331.048
325.654
320.744
316.454
312.923
310.289
308.688
308.271
309.208
311.7
315.978
322.247
330.071
337.13
340.004
337.088
329.996
322.155
315.886
311.617
309.137
308.213
308.641
310.25
312.889
316.418
320.7
325.592
330.955
336.645
342.515
348.412
354.178
359.656
364.687
369.123
372.826
375.678
377.586
378.487
378.351
377.182
375.018
371.933
368.026
363.42
358.257
352.688
346.872
340.968
335.13
329.512
324.259
319.514
315.417
312.108
309.725
308.41
308.319
309.63
312.556
317.337
324.116
332.075
338.376
339.803
335.557
327.96
320.412
314.671
310.885
308.823
308.26
309.004
310.89
313.773
317.515
321.982
327.033
332.531
338.333
344.294
350.264
356.087
361.606
366.668
371.124
374.84
377.699
379.612
380.514
412.963
411.934
410.035
407.335
403.929
399.935
395.488
390.731
385.812
380.878
376.073
371.533
367.387
363.757
360.757
358.494
357.067
356.57
357.094
358.73
361.566
365.662
370.979
377.059
382.375
384.551
382.34
377
370.911
365.598
361.513
358.692
357.071
356.563
357.074
358.511
360.781
363.782
367.405
371.533
376.042
380.8
385.667
390.496
395.138
399.443
403.269
406.482
408.969
410.638
411.427
411.308
410.284
408.393
405.706
402.32
398.356
393.948
389.242
384.389
379.537
374.831
370.41
366.403
362.932
360.113
358.052
356.849
356.596
357.388
359.315
362.464
366.882
372.473
378.569
383.315
384.398
381.189
375.453
369.48
364.466
360.703
358.19
356.855
356.608
357.359
359.014
361.48
364.656
368.433
372.695
377.318
382.17
387.115
392.005
396.695
401.036
404.887
408.118
410.616
412.291
413.083
445.368
444.484
442.854
440.545
437.651
434.282
430.567
426.64
422.64
418.704
414.962
411.538
408.546
406.088
404.255
403.126
402.765
403.221
404.534
406.728
409.797
413.686
418.225
422.963
426.866
428.425
426.841
422.922
418.18
413.648
409.773
406.721
404.546
403.252
402.814
403.193
404.336
406.179
408.641
411.627
415.034
418.744
422.63
426.559
430.393
433.99
437.216
439.946
442.07
443.501
444.179
444.077
443.197
441.578
439.286
436.414
433.078
429.406
425.534
421.603
417.75
414.108
410.801
407.942
405.635
403.969
403.02
402.851
403.51
405.034
407.44
410.717
414.787
419.435
424.09
427.542
428.317
426.009
421.747
416.99
412.594
408.91
406.068
404.107
403.022
402.784
403.353
404.674
406.679
409.287
412.403
415.921
419.727
423.693
427.687
431.571
435.208
438.463
441.214
443.352
444.791
445.472
477.644
476.906
475.553
473.645
471.27
468.533
465.551
462.448
459.351
456.383
453.662
451.297
449.385
448.011
447.245
447.137
447.721
449.009
450.996
453.651
456.902
460.621
464.582
468.376
471.296
472.422
471.28
468.35
464.557
460.607
456.903
453.671
451.039
449.073
447.808
447.247
447.376
448.16
449.547
451.464
453.824
456.527
459.461
462.506
465.537
468.425
471.047
473.285
475.039
476.226
476.79
476.705
475.974
474.632
472.742
470.393
467.69
464.752
461.706
458.678
455.793
453.17
450.917
449.131
447.897
447.28
447.33
448.075
449.525
451.67
454.468
457.839
461.634
465.592
469.241
471.788
472.344
470.668
467.431
463.539
459.612
455.998
452.894
450.41
448.604
447.501
447.101
447.386
448.318
449.84
451.88
454.348
457.145
460.159
463.269
466.352
469.282
471.935
474.196
475.966
477.162
477.73
509.76
509.178
508.115
506.628
504.795
502.71
500.48
498.215
496.025
494.019
492.299
490.959
490.078
489.723
489.945
490.769
492.203
494.229
496.805
499.858
503.273
506.883
510.445
513.611
515.894
516.741
515.884
513.598
510.437
506.887
503.295
499.9
496.871
494.32
492.32
490.913
490.115
489.917
490.292
491.187
492.534
494.249
496.236
498.392
500.606
502.766
504.761
506.488
507.854
508.785
509.229
509.161
508.586
507.536
506.067
504.261
502.212
500.028
497.818
495.696
493.77
492.144
490.908
490.144
489.915
490.268
491.226
492.791
494.941
497.626
500.764
504.229
507.837
511.323
514.308
516.268
516.683
515.414
512.844
509.533
505.93
502.351
499.017
496.08
493.642
491.769
490.494
489.83
489.763
490.262
491.271
492.72
494.524
496.589
498.809
501.076
503.278
505.305
507.056
508.439
509.38
509.828
541.629
541.214
540.462
539.423
538.166
536.772
535.33
533.933
532.675
531.645
530.929
530.6
530.723
531.346
532.499
534.19
536.403
539.097
542.201
545.613
549.194
552.757
556.068
558.836
560.725
561.402
560.721
558.832
556.071
552.774
549.228
545.669
542.281
539.204
536.538
534.354
532.693
531.568
530.97
530.869
531.213
531.936
532.96
534.202
535.568
536.965
538.298
539.481
540.433
541.09
541.405
541.358
540.95
540.21
539.191
537.961
536.602
535.205
533.862
532.669
531.716
531.085
530.853
531.08
531.814
533.08
534.881
537.196
539.978
543.148
546.596
550.171
553.676
556.862
559.428
561.028
561.356
560.335
558.18
555.239
551.836
548.247
544.695
541.351
538.346
535.773
533.695
532.145
531.132
530.644
530.646
531.083
531.89
532.988
534.291
535.709
537.147
538.514
539.721
540.69
541.358
541.678
573.116
572.882
572.467
571.913
571.275
570.618
570.013
569.531
569.245
569.224
569.531
570.221
571.342
572.922
574.975
577.49
580.434
583.747
587.339
591.092
594.85
598.425
601.599
604.134
605.793
606.373
605.792
604.136
601.609
598.447
594.889
591.152
587.423
583.857
580.572
577.659
575.174
573.152
571.6
570.507
569.838
569.547
569.576
569.862
570.334
570.92
571.546
572.143
572.648
573.007
573.183
573.157
572.93
572.528
571.994
571.383
570.761
570.199
569.768
569.543
569.592
569.977
570.753
571.964
573.639
575.785
578.386
581.404
584.772
588.394
592.141
595.85
599.326
602.344
604.666
606.056
606.334
605.455
603.544
600.818
597.516
593.872
590.099
586.375
582.845
579.622
576.786
574.391
572.462
571.004
570.001
569.416
569.201
569.298
569.642
570.163
570.789
571.448
572.07
572.592
572.963
573.144
604.045
604.009
603.962
603.933
603.965
604.101
604.389
604.879
605.617
606.649
608.015
609.75
611.881
614.42
617.361
620.681
624.331
628.237
632.299
636.387
640.342
643.982
647.108
649.527
651.063
651.591
651.064
649.53
647.118
644.002
640.377
636.441
632.374
628.336
624.456
620.835
617.545
614.633
612.125
610.024
608.315
606.973
605.962
605.24
604.761
604.479
604.344
604.307
604.326
604.362
604.386
604.382
604.354
604.319
604.311
604.369
604.539
604.868
605.406
606.2
607.294
608.729
610.538
612.745
615.361
618.375
621.758
625.455
629.388
633.447
637.495
641.368
644.879
647.828
650.024
651.304
651.555
650.753
648.97
646.348
643.067
639.326
635.319
631.223
627.191
623.343
619.774
616.551
613.713
611.282
609.257
607.622
606.347
605.396
604.728
604.296
604.052
603.948
603.937
603.974
604.021
604.05
634.205
634.384
634.735
635.276
636.029
637.017
638.261
639.785
641.608
643.748
646.223
649.043
652.215
655.731
659.572
663.699
668.051
672.547
677.078
681.511
685.689
689.439
692.587
694.969
696.454
696.959
696.453
694.969
692.59
689.45
685.71
681.546
677.13
672.619
668.145
663.817
659.717
655.904
652.417
649.275
646.486
644.042
641.933
640.142
638.651
637.439
636.485
635.766
635.259
634.943
634.801
634.823
635.009
635.374
635.935
636.714
637.733
639.016
640.584
642.457
644.653
647.186
650.068
653.301
656.877
660.77
664.936
669.311
673.806
678.306
682.671
686.741
690.34
693.295
695.449
696.683
696.923
696.156
694.425
691.827
688.505
684.624
680.363
675.89
671.357
666.889
662.589
658.533
654.775
651.347
648.268
645.54
643.154
641.098
639.356
637.907
636.733
635.809
635.114
634.625
634.321
634.184
663.353
663.765
664.544
665.696
667.221
669.117
671.38
674.002
676.975
680.287
683.928
687.886
692.142
696.673
701.441
706.396
711.468
716.567
721.583
726.382
730.813
734.719
737.941
740.345
741.826
742.324
741.821
740.336
737.932
734.71
730.81
726.385
721.597
716.594
711.51
706.457
701.523
696.778
692.273
688.046
684.121
680.517
677.246
674.322
671.754
669.552
667.723
666.272
665.201
664.507
664.186
664.234
664.653
665.446
666.618
668.168
670.096
672.395
675.057
678.074
681.433
685.124
689.13
693.433
698.005
702.805
707.777
712.848
717.922
722.882
727.589
731.892
735.628
738.647
740.818
742.05
742.29
741.529
739.798
737.168
733.751
729.692
725.149
720.279
715.229
710.127
705.078
700.167
695.457
690.995
686.815
682.939
679.383
676.159
673.278
670.749
668.582
666.783
665.356
664.303
663.621
663.306
691.222
691.879
693.113
694.912
697.253
700.11
703.448
707.23
711.414
715.961
720.831
725.984
731.379
736.972
742.711
748.53
754.354
760.088
765.618
770.815
775.537
779.639
782.982
785.451
786.961
787.466
786.95
785.43
782.953
779.603
775.498
770.774
765.579
760.053
754.326
748.512
742.705
736.984
731.411
726.042
720.922
716.094
711.599
707.479
703.774
700.525
697.772
695.547
693.877
692.781
692.27
692.347
693.013
694.261
696.079
698.446
701.333
704.705
708.524
712.747
717.334
722.243
727.432
732.859
738.476
744.226
750.043
755.844
761.529
766.981
772.067
776.642
780.561
783.692
785.924
787.183
787.431
786.659
784.891
782.183
778.628
774.349
769.488
764.19
758.594
752.826
746.995
741.19
735.485
729.939
724.602
719.52
714.731
710.275
706.193
702.525
699.31
696.585
694.384
692.733
691.65
691.145
717.52
718.434
720.142
722.614
725.806
729.663
734.121
739.11
744.56
750.397
756.552
762.958
769.548
776.258
783.017
789.75
796.371
802.781
808.868
814.505
819.561
823.903
827.409
829.98
831.544
832.063
831.525
829.942
827.354
823.831
819.475
814.408
808.761
802.667
796.253
789.631
782.901
776.15
769.455
762.887
756.514
750.405
744.629
739.259
734.369
730.03
726.313
723.281
720.987
719.473
718.764
718.871
719.794
721.516
724.008
727.226
731.113
735.603
740.627
746.111
751.982
758.167
764.598
771.206
777.922
784.675
791.385
797.963
804.304
810.293
815.8
820.693
824.841
828.127
830.457
831.767
832.028
831.232
829.398
826.573
822.836
818.294
813.073
807.304
801.121
794.644
787.984
781.237
774.484
767.799
761.251
754.904
748.826
743.084
737.749
732.892
728.586
724.898
721.891
719.617
718.116
717.413
741.942
743.119
745.31
748.469
752.528
757.406
763.009
769.237
775.985
783.15
790.634
798.339
806.174
814.05
821.881
829.579
837.049
844.188
850.881
857.009
862.448
867.077
870.789
873.497
875.138
875.678
875.108
873.438
870.702
866.962
862.306
856.843
850.692
843.979
836.823
829.34
821.633
813.8
805.931
798.114
790.441
783.008
775.914
769.261
763.155
757.701
753
749.145
746.215
744.273
743.361
743.499
744.684
746.89
750.07
754.156
759.064
764.7
770.96
777.739
784.933
792.439
800.159
807.999
815.866
823.675
831.332
838.739
845.79
852.367
858.349
863.611
868.036
871.519
873.98
875.363
875.642
874.81
872.884
869.906
865.943
861.09
855.458
849.169
842.347
835.11
827.57
819.828
811.976
804.103
796.293
788.637
781.228
774.163
767.542
761.469
756.047
751.376
747.546
744.637
742.709
741.805
764.175
765.612
768.284
772.125
777.047
782.942
789.688
797.154
805.205
813.71
822.539
831.566
840.675
849.754
858.699
867.409
875.778
883.697
891.051
897.725
903.6
908.567
912.529
915.407
917.147
917.716
917.105
915.324
912.404
908.401
903.394
897.48
890.769
883.38
875.43
867.034
858.304
849.346
840.265
831.169
822.173
813.399
804.975
797.035
789.713
783.146
777.465
772.79
769.227
766.861
765.748
765.916
767.362
770.05
773.913
778.863
784.79
791.568
799.065
807.146
815.675
824.52
833.554
842.657
851.716
860.624
869.276
877.565
885.379
892.601
899.113
904.8
909.552
913.277
915.902
917.377
917.678
916.8
914.757
911.588
907.353
902.137
896.04
889.176
881.662
873.613
865.144
856.362
847.371
838.274
829.175
820.189
811.433
803.035
795.125
787.836
781.302
775.652
771.005
767.464
765.112
764.007
783.903
785.591
788.725
793.224
798.978
805.854
813.704
822.371
831.692
841.507
851.658
861.996
872.377
882.667
892.745
902.494
911.797
920.539
928.603
935.872
942.235
947.589
951.843
954.925
956.783
957.387
956.727
954.813
951.676
947.366
941.958
935.54
928.219
920.106
911.318
901.973
892.191
882.09
871.79
861.417
851.11
841.018
831.294
822.099
813.599
805.955
799.328
793.863
789.69
786.914
785.607
785.805
787.503
790.653
795.176
800.96
807.869
815.753
824.452
833.801
843.638
853.802
864.14
874.507
884.766
894.795
904.474
913.683
922.305
930.222
937.316
943.478
948.606
952.614
955.434
957.02
957.348
956.412
954.229
950.833
946.282
940.654
934.042
926.552
918.298
909.397
899.965
890.118
879.972
869.645
859.262
848.96
838.882
829.183
820.018
811.551
803.943
797.348
791.913
787.764
785.004
783.705
800.818
802.738
806.3
811.408
817.931
825.718
834.594
844.379
854.887
865.932
877.334
888.92
900.523
911.99
923.18
933.961
944.205
953.788
962.587
970.485
977.373
983.149
987.728
991.039
993.031
993.675
992.961
990.898
987.516
982.867
977.02
970.063
962.097
953.233
943.59
933.292
922.465
911.242
899.758
888.159
876.605
865.266
854.321
843.955
834.356
825.712
818.207
812.01
807.273
804.118
802.631
802.856
804.787
808.367
813.5
820.055
827.876
836.789
846.607
857.144
868.211
879.623
891.205
902.789
914.218
925.35
936.051
946.189
955.639
964.279
971.99
978.665
984.205
988.527
991.566
993.277
993.635
992.634
990.292
986.642
981.741
975.663
968.499
960.353
951.336
941.567
931.169
920.267
908.99
897.473
885.859
874.306
862.981
852.06
841.725
832.161
823.555
816.085
809.92
805.208
802.071
800.593
814.631
816.756
820.694
826.337
833.537
842.123
851.903
862.674
874.232
886.37
898.891
911.6
924.316
936.865
949.091
960.845
971.988
982.384
991.905
1000.43
1007.85
1014.06
1018.97
1022.52
1024.66
1025.34
1024.57
1022.35
1018.72
1013.72
1007.42
999.92
991.313
981.713
971.243
960.034
948.224
935.957
923.385
910.671
897.994
885.541
873.511
862.107
851.539
842.016
833.739
826.899
821.665
818.176
816.531
816.78
818.916
822.873
828.543
835.777
844.401
854.218
865.026
876.613
888.774
901.305
914.01
926.703
939.21
951.372
963.039
974.067
984.32
993.671
1002
1009.19
1015.16
1019.8
1023.07
1024.91
1025.3
1024.23
1021.72
1017.81
1012.54
1006.01
998.289
989.49
979.727
969.121
957.804
945.911
933.585
920.976
908.245
895.568
883.129
871.124
859.754
849.224
839.739
831.5
824.694
819.487
816.018
814.383
825.075
827.368
831.614
837.695
845.449
854.689
865.206
876.783
889.199
902.234
915.676
929.318
942.966
956.434
969.549
982.149
994.082
1005.2
1015.37
1024.47
1032.38
1038.99
1044.22
1048
1050.27
1051
1050.17
1047.8
1043.93
1038.6
1031.89
1023.88
1014.69
1004.43
993.223
981.215
968.551
955.388
941.894
928.247
914.637
901.266
888.346
876.094
864.735
854.491
845.583
838.216
832.575
828.812
827.037
827.306
829.61
833.878
839.988
847.778
857.057
867.614
879.229
891.678
904.737
918.191
931.829
945.455
958.879
971.927
984.434
996.246
1007.22
1017.21
1026.1
1033.77
1040.13
1045.09
1048.57
1050.53
1050.95
1049.82
1047.15
1042.98
1037.38
1030.42
1022.19
1012.8
1002.36
991.014
978.891
966.14
952.915
939.383
925.719
912.11
898.755
885.862
873.645
862.326
852.124
843.256
835.925
830.313
826.571
824.806
831.929
834.345
838.818
845.218
853.375
863.089
874.139
886.296
899.33
913.012
927.119
941.439
955.771
969.921
983.705
996.948
1009.49
1021.17
1031.85
1041.4
1049.69
1056.63
1062.12
1066.08
1068.46
1069.22
1068.35
1065.86
1061.79
1056.2
1049.15
1040.75
1031.1
1020.32
1008.54
995.921
982.608
968.773
954.594
940.262
925.975
911.941
898.379
885.516
873.586
862.822
853.455
845.704
839.766
835.802
833.932
834.216
836.643
841.138
847.569
855.763
865.517
876.61
888.808
901.877
915.584
929.705
944.023
958.334
972.441
986.157
999.304
1011.72
1023.25
1033.74
1043.08
1051.13
1057.81
1063.01
1066.67
1068.73
1069.17
1067.99
1065.19
1060.82
1054.94
1047.64
1039
1029.14
1018.18
1006.26
993.525
980.123
966.226
952.009
937.662
923.377
909.361
895.828
883.002
871.114
860.393
851.069
843.356
837.448
833.506
831.646
834.908
837.403
842.02
848.621
857.026
867.024
878.389
890.882
904.266
918.307
932.78
947.471
962.176
976.703
990.86
1004.46
1017.35
1029.35
1040.33
1050.14
1058.67
1065.81
1071.46
1075.53
1077.98
1078.76
1077.87
1075.3
1071.11
1065.36
1058.11
1049.47
1039.54
1028.46
1016.36
1003.39
989.711
975.5
960.942
946.235
931.577
917.176
903.254
890.042
877.778
866.705
857.06
849.072
842.946
838.854
836.921
837.214
839.722
844.361
850.994
859.437
869.479
880.888
893.424
906.845
920.914
935.403
950.094
964.781
979.267
993.356
1006.86
1019.62
1031.47
1042.26
1051.86
1060.15
1067.01
1072.37
1076.13
1078.26
1078.72
1077.49
1074.61
1070.12
1064.07
1056.56
1047.68
1037.55
1026.28
1014.04
1000.95
987.181
972.91
958.317
943.596
928.943
914.562
900.671
887.498
875.279
864.251
854.65
846.701
840.606
836.536
834.615
)
;

boundaryField
{
    top
    {
        type            calculated;
        value           nonuniform List<scalar> 
102
(
835.182
837.71
842.386
849.067
857.57
867.679
879.165
891.785
905.301
919.477
934.085
948.911
963.753
978.423
992.72
1006.46
1019.47
1031.6
1042.69
1052.6
1061.22
1068.43
1074.14
1078.26
1080.74
1081.53
1080.62
1078.03
1073.79
1067.97
1060.65
1051.92
1041.89
1030.69
1018.47
1005.37
991.552
977.198
962.498
947.653
932.858
918.322
904.265
890.921
878.53
867.337
857.584
849.501
843.299
839.154
837.196
837.493
840.034
844.732
851.446
859.988
870.142
881.673
894.337
907.891
922.095
936.72
951.548
966.374
981.003
995.234
1008.88
1021.77
1033.73
1044.64
1054.34
1062.71
1069.65
1075.06
1078.87
1081.02
1081.48
1080.24
1077.33
1072.79
1066.68
1059.09
1050.11
1039.88
1028.5
1016.13
1002.91
989.005
974.592
959.858
945.001
930.212
915.696
901.671
888.368
876.022
864.876
855.167
847.124
840.954
836.832
834.885
)
;
    }
    bottom
    {
        type            calculated;
        value           nonuniform List<scalar> 
102
(
-38.8707
-41.9552
-47.7347
-56.1654
-67.2027
-80.8118
-96.9681
-115.642
-136.767
-160.208
-185.738
-213.013
-241.555
-270.726
-299.694
-327.483
-353.11
-375.679
-394.452
-409.113
-419.876
-427.233
-431.91
-434.656
-436.059
-436.473
-436.012
-434.559
-431.76
-427.024
-419.6
-408.759
-394.012
-375.146
-352.483
-326.766
-298.905
-269.905
-240.754
-212.288
-185.148
-159.816
-136.633
-115.826
-97.5255
-81.7967
-68.6687
-58.1664
-50.3239
-45.1829
-42.7822
-43.1452
-46.2677
-52.1213
-60.6654
-71.8592
-85.6717
-102.079
-121.046
-142.493
-166.267
-192.112
-219.652
-248.367
-277.567
-306.366
-333.757
-358.756
-380.483
-398.275
-411.963
-421.847
-428.491
-432.651
-435.048
-436.216
-436.445
-435.792
-434.08
-430.893
-425.588
-417.402
-405.651
-389.914
-370.09
-346.637
-320.352
-292.154
-263.04
-233.962
-205.697
-178.84
-153.831
-130.98
-110.49
-92.4737
-76.9848
-64.0494
-53.6936
-45.9557
-40.881
-38.5111
)
;
    }
    frontAndBack
    {
        type            empty;
    }
    left_cyc
    {
        type            cyclic;
    }
    right_cyc
    {
        type            cyclic;
    }
}


// ************************************************************************* //
