/*--------------------------------*- C++ -*----------------------------------*\
| =========                 |                                                 |
| \\      /  F ield         | OpenFOAM: The Open Source CFD Toolbox           |
|  \\    /   O peration     | Version:  2.3.0                                 |
|   \\  /    A nd           | Web:      www.OpenFOAM.org                      |
|    \\/     M anipulation  |                                                 |
\*---------------------------------------------------------------------------*/
FoamFile
{
    version     2.0;
    format      ascii;
    class       volScalarField;
    location    "13000";
    object      p_rgh;
}
// * * * * * * * * * * * * * * * * * * * * * * * * * * * * * * * * * * * * * //

dimensions      [0 2 -2 0 0 0 0];

internalField   nonuniform List<scalar> 
3060
(
-38.8707
-41.9552
-47.7347
-56.1654
-67.2027
-80.8118
-96.9681
-115.642
-136.767
-160.208
-185.738
-213.013
-241.555
-270.726
-299.694
-327.483
-353.11
-375.679
-394.452
-409.113
-419.876
-427.233
-431.91
-434.656
-436.059
-436.473
-436.012
-434.559
-431.76
-427.024
-419.6
-408.759
-394.012
-375.146
-352.483
-326.766
-298.905
-269.905
-240.754
-212.288
-185.148
-159.816
-136.633
-115.826
-97.5255
-81.7967
-68.6687
-58.1664
-50.3239
-45.1829
-42.7822
-43.1452
-46.2677
-52.1213
-60.6654
-71.8592
-85.6717
-102.079
-121.046
-142.493
-166.267
-192.112
-219.652
-248.367
-277.567
-306.366
-333.757
-358.756
-380.483
-398.275
-411.963
-421.847
-428.491
-432.651
-435.048
-436.216
-436.445
-435.792
-434.08
-430.893
-425.588
-417.402
-405.651
-389.914
-370.09
-346.637
-320.352
-292.154
-263.04
-233.962
-205.697
-178.84
-153.831
-130.98
-110.49
-92.4737
-76.9848
-64.0494
-53.6936
-45.9557
-40.881
-38.5111
-62.6856
-65.3961
-70.4955
-77.9829
-87.8627
-100.136
-114.788
-131.767
-150.966
-172.221
-195.288
-219.82
-245.325
-271.136
-296.517
-321.016
-344.413
-365.948
-384.35
-398.848
-409.652
-417.277
-422.38
-425.579
-427.326
-427.871
-427.286
-425.497
-422.252
-417.098
-409.416
-398.547
-383.978
-365.51
-343.926
-320.496
-295.975
-270.586
-244.81
-219.389
-194.994
-172.118
-151.11
-132.211
-115.588
-101.34
-89.5166
-80.1278
-73.1693
-68.6346
-66.5241
-66.843
-69.5898
-74.7599
-82.3552
-92.3826
-104.844
-119.722
-136.955
-156.426
-177.952
-201.265
-225.985
-251.571
-277.316
-302.497
-326.761
-349.812
-370.701
-388.179
-401.735
-411.71
-418.664
-423.262
-426.09
-427.547
-427.834
-426.986
-424.89
-421.243
-415.541
-407.144
-395.412
-379.878
-360.54
-338.399
-314.672
-289.925
-264.364
-238.561
-213.253
-189.065
-166.446
-145.711
-127.082
-110.707
-96.677
-85.0323
-75.7821
-68.923
-64.4513
-62.3702
-76.556
-79.3885
-84.6856
-92.3897
-102.414
-114.631
-128.869
-144.916
-162.552
-181.568
-201.789
-223.069
-245.292
-268.357
-292.045
-315.571
-337.634
-357.021
-373.405
-387.305
-398.5
-406.58
-412.11
-415.722
-417.792
-418.467
-417.761
-415.657
-412.008
-406.438
-398.316
-387.078
-373.141
-356.727
-337.321
-315.263
-291.78
-268.171
-245.214
-223.122
-201.995
-181.958
-163.161
-145.792
-130.064
-116.206
-104.426
-94.8924
-87.7285
-83.0165
-80.8109
-81.145
-84.0122
-89.3736
-97.1685
-107.305
-119.649
-134.019
-150.199
-167.963
-187.102
-207.438
-228.828
-251.156
-274.31
-297.99
-321.242
-342.705
-361.302
-377.022
-390.319
-400.729
-408.114
-413.128
-416.346
-418.075
-418.419
-417.382
-414.929
-410.861
-404.729
-395.865
-383.882
-369.357
-352.227
-332.053
-309.469
-285.792
-262.222
-239.364
-217.379
-196.364
-176.445
-157.773
-140.533
-124.94
-111.214
-99.5587
-90.1341
-83.0561
-78.4025
-76.2252
-57.8497
-60.8397
-66.4106
-74.4759
-84.9146
-97.5639
-112.215
-128.62
-146.51
-165.624
-185.736
-206.669
-228.308
-250.579
-273.321
-295.961
-317.738
-338.204
-356.728
-371.913
-383.635
-392.816
-399.29
-403.582
-406.124
-406.985
-406.104
-403.54
-399.224
-392.726
-383.526
-371.789
-356.599
-338.089
-317.645
-295.894
-273.298
-250.623
-228.444
-206.917
-186.12
-166.175
-147.269
-129.638
-113.55
-99.2789
-87.073
-77.1383
-69.6338
-64.6758
-62.3469
-62.7004
-65.7253
-71.3605
-79.5155
-90.0633
-102.833
-117.606
-134.126
-152.117
-171.317
-191.5
-212.497
-234.2
-256.528
-279.259
-301.707
-323.15
-343.178
-360.958
-375.147
-386.181
-394.681
-400.539
-404.371
-406.497
-406.923
-405.613
-402.63
-397.825
-390.659
-380.813
-368.301
-352.12
-332.974
-312.125
-290.06
-267.31
-244.668
-222.555
-201.093
-180.361
-160.493
-141.676
-124.151
-108.181
-94.0332
-81.9468
-72.1183
-64.6989
-59.7997
-57.4994
-27.4173
-30.4333
-36.0397
-44.1372
-54.5972
-67.2612
-81.9424
-98.433
-116.515
-135.975
-156.608
-178.222
-200.619
-223.562
-246.699
-269.488
-291.418
-312.534
-332.886
-351.045
-365.511
-376.145
-383.815
-389.154
-392.421
-393.564
-392.415
-389.141
-383.795
-376.124
-365.5
-351.052
-332.909
-312.568
-291.451
-269.51
-246.72
-223.61
-200.728
-178.424
-156.938
-136.474
-117.228
-99.4122
-83.2455
-68.9492
-56.7321
-46.7795
-39.2472
-34.2598
-31.9117
-32.2687
-35.3166
-40.9819
-49.1624
-59.7255
-72.5072
-87.3152
-103.936
-122.149
-141.734
-162.486
-184.207
-206.689
-229.672
-252.76
-275.363
-297.062
-318.007
-337.97
-355.232
-368.63
-378.38
-385.408
-390.192
-392.928
-393.48
-391.756
-387.957
-382.034
-373.678
-362.1
-346.592
-327.661
-307.044
-285.745
-263.568
-240.628
-217.495
-194.666
-172.454
-151.079
-130.735
-111.617
-93.932
-77.8962
-63.726
-51.6247
-41.7718
-34.3183
-29.3849
-27.0632
4.71329
1.58469
-4.21585
-12.5705
-23.3321
-36.3272
-51.3606
-68.2232
-86.702
-106.59
-127.69
-149.818
-172.785
-196.375
-220.304
-244.217
-267.602
-289.998
-310.918
-329.909
-346.226
-358.513
-367.154
-373.071
-376.929
-378.364
-376.941
-373.093
-367.195
-358.586
-346.333
-330.024
-311.012
-290.058
-267.633
-244.23
-220.316
-196.414
-172.876
-149.994
-127.987
-107.047
-87.3691
-69.1539
-52.6149
-37.9689
-25.4267
-15.183
-7.40894
-2.24752
0.188559
-0.182395
-3.34249
-9.20134
-17.6383
-28.5026
-41.6165
-56.7801
-73.7802
-92.4
-112.429
-133.668
-155.925
-179.005
-202.676
-226.625
-250.452
-273.638
-295.73
-316.2
-334.644
-349.954
-361.152
-368.967
-374.297
-377.573
-378.256
-376.119
-371.726
-365.178
-355.678
-342.301
-325.114
-305.596
-284.232
-261.536
-237.969
-214.013
-190.129
-166.675
-143.908
-122.033
-101.233
-81.6959
-63.6216
-47.2194
-32.7022
-20.2765
-10.1321
-2.43629
2.67161
5.08147
37.5823
34.3005
28.2314
19.5153
8.3224
-5.15254
-20.6987
-38.0985
-57.1375
-77.6127
-99.3367
-122.136
-145.839
-170.259
-195.163
-220.312
-245.258
-269.513
-292.454
-313.232
-330.73
-343.594
-351.945
-357.579
-361.191
-362.624
-361.223
-357.648
-352.062
-343.756
-330.902
-313.377
-292.559
-269.577
-245.286
-220.314
-195.157
-170.269
-145.889
-122.255
-99.5605
-77.9839
-57.7063
-38.9223
-21.8414
-6.68282
6.33306
16.995
25.1106
30.5136
33.07
32.6801
29.3661
23.2373
14.4365
3.13746
-10.4617
-26.1462
-43.6953
-62.8915
-83.5291
-105.418
-128.378
-152.233
-176.781
-201.772
-226.921
-251.76
-275.775
-298.274
-318.361
-334.767
-346.304
-353.737
-358.767
-361.836
-362.512
-360.421
-356.303
-350.076
-340.701
-326.535
-308.031
-286.597
-263.235
-238.748
-213.705
-188.583
-163.777
-139.525
-116.042
-93.5099
-72.0971
-51.9809
-33.3528
-16.4195
-1.39722
11.4973
22.0567
30.0918
35.44
37.9694
69.1993
65.7027
59.253
50.0208
38.2106
24.0514
7.78505
-10.347
-30.1154
-51.3117
-73.7543
-97.2863
-121.767
-147.056
-172.987
-199.385
-225.828
-251.805
-276.65
-299.473
-319.076
-333.625
-341.863
-346.022
-348.535
-349.505
-348.593
-346.143
-342.04
-333.83
-319.267
-299.627
-276.758
-251.865
-225.843
-199.364
-172.947
-147.019
-121.751
-97.3176
-73.8668
-51.5486
-30.529
-10.9992
6.82444
22.7058
36.3991
47.6613
56.2651
62.0109
64.736
64.3199
60.7893
54.2765
44.9547
33.0319
18.7406
2.32578
-15.9682
-35.9096
-57.2883
-79.9206
-103.646
-128.319
-153.788
-179.873
-206.346
-232.755
-258.55
-283.004
-305.162
-323.673
-336.567
-343.368
-346.913
-348.997
-349.425
-348.004
-345.133
-340.231
-330.413
-314.326
-293.727
-270.274
-245.053
-218.895
-192.415
-166.094
-140.325
-115.238
-90.9955
-67.7367
-45.6061
-24.7668
-5.40789
12.2563
27.9919
41.5562
52.7095
61.2283
66.916
69.6125
98.865
95.0803
88.1172
78.1858
65.5385
50.4547
33.2235
14.1267
-6.57724
-28.6647
-51.9538
-76.3043
-101.61
-127.783
-154.733
-182.318
-210.153
-237.728
-264.354
-289.106
-310.771
-327.672
-337.845
-341.825
-343.136
-343.586
-343.217
-341.978
-338.047
-327.887
-310.964
-289.258
-264.455
-237.772
-210.142
-182.258
-154.637
-127.67
-101.492
-76.2017
-51.8986
-28.7002
-6.75884
13.7316
32.5365
49.3878
63.9975
76.0738
85.3391
91.5474
94.4983
94.0475
90.226
83.1946
73.1666
60.3979
45.1715
27.7801
8.50767
-12.3854
-34.6749
-58.178
-82.753
-108.29
-134.693
-161.859
-189.588
-217.457
-244.912
-271.198
-295.319
-315.955
-331.266
-339.55
-342.432
-343.385
-343.542
-342.891
-341.178
-335.875
-323.81
-305.458
-282.841
-257.492
-230.534
-202.829
-175.011
-147.551
-120.807
-94.8588
-69.7978
-45.716
-22.7283
-0.985727
19.3185
37.9506
54.6446
69.1152
81.0742
90.2476
96.3929
99.3129
126.443
122.28
114.64
103.784
90.0277
73.7206
55.2193
34.8648
12.9616
-10.2379
-34.5433
-59.8269
-86.0168
-113.081
-141.006
-169.669
-198.731
-227.709
-255.923
-282.448
-306.085
-325.315
-338.367
-344.594
-346.41
-346.757
-346.5
-344.755
-338.569
-325.521
-306.266
-282.585
-256.003
-227.724
-198.677
-169.548
-140.825
-112.855
-85.7482
-59.5317
-34.2502
-9.99026
13.1048
34.8284
54.913
73.0414
88.8631
102.017
112.157
118.974
122.221
121.725
117.522
109.807
98.8445
84.9559
68.4939
49.8191
29.2749
7.16705
-16.2523
-40.7933
-66.3286
-92.7846
-120.123
-148.319
-177.186
-206.346
-235.264
-263.196
-289.144
-311.822
-329.616
-340.813
-345.492
-346.637
-346.724
-346.158
-343.529
-335.617
-320.786
-300.23
-275.699
-248.624
-220.127
-191.066
-162.065
-133.562
-105.868
-79.0346
-53.0805
-28.0462
-4.01737
18.8618
40.384
60.2821
78.24
93.9104
106.936
116.975
123.723
126.936
152.278
147.635
139.13
127.088
111.909
94.0304
73.8993
51.9368
28.5124
3.92198
-21.6234
-48.0012
-75.1697
-103.15
-131.999
-161.61
-191.704
-221.846
-251.386
-279.428
-304.815
-326.154
-341.936
-351.246
-355.149
-356.092
-355.235
-351.397
-342.12
-326.338
-304.971
-279.535
-251.428
-221.811
-191.583
-161.397
-131.695
-102.761
-74.6915
-47.4426
-21.0094
4.54782
29.0861
52.3734
74.0932
93.8589
111.236
125.773
137.032
144.626
148.248
147.695
143.007
134.418
122.26
106.934
88.8866
68.5672
46.4005
22.7567
-2.069
-27.8679
-54.5196
-81.9827
-110.273
-139.435
-169.299
-199.547
-229.686
-259.002
-286.529
-311.038
-331.081
-345.186
-352.832
-355.658
-356.022
-354.504
-349.408
-338.401
-321.022
-298.473
-272.26
-243.72
-213.943
-183.758
-153.752
-124.317
-95.701
-67.939
-40.9792
-14.8139
10.4951
34.8023
57.8737
79.3923
98.9729
116.184
130.579
141.726
149.243
152.828
176.927
171.693
162.119
148.611
131.665
111.833
89.6732
65.7099
40.396
14.0886
-12.9677
-40.6448
-68.9228
-97.8677
-127.593
-158.019
-188.937
-219.97
-250.518
-279.729
-306.501
-329.538
-347.5
-359.433
-365.584
-367.377
-365.659
-359.563
-347.655
-329.686
-306.615
-279.787
-250.502
-219.861
-188.719
-157.678
-127.12
-97.2585
-68.1669
-39.7434
-11.9415
15.1955
41.5134
66.7402
90.4923
112.293
131.602
147.853
160.496
169.048
173.132
172.508
167.224
157.557
143.918
126.81
106.793
84.4293
60.2468
34.6998
8.14401
-19.1792
-47.1461
-75.7394
-105.023
-135.086
-165.8
-196.913
-227.99
-258.367
-287.123
-313.093
-334.949
-351.385
-361.677
-366.469
-367.248
-364.453
-356.894
-343.338
-323.921
-299.769
-272.235
-242.574
-211.824
-180.77
-149.951
-119.694
-90.1767
-61.4158
-33.2997
-5.78061
21.0952
47.1692
72.1661
95.7017
117.301
136.428
152.521
165.04
173.506
177.547
201.011
195.074
184.226
168.962
149.9
127.723
103.123
76.748
49.1535
20.7738
-8.09712
-37.3124
-66.8632
-96.8512
-127.414
-158.529
-190.063
-221.707
-252.914
-282.887
-310.587
-334.798
-354.275
-368.039
-375.859
-378.338
-375.918
-368.138
-354.388
-334.895
-310.642
-282.877
-252.815
-221.495
-189.714
-158.018
-126.72
-95.9547
-65.7562
-35.9843
-6.56363
22.4673
50.929
78.4929
104.691
128.937
150.563
168.865
183.162
192.856
197.488
196.781
190.788
179.835
164.426
145.184
122.803
97.9823
71.3725
43.5318
14.8933
-14.2529
-43.7663
-73.6427
-103.984
-134.894
-166.316
-198.073
-229.795
-260.871
-290.439
-317.403
-340.521
-358.58
-370.743
-377.037
-378.161
-374.353
-365.005
-349.678
-328.843
-303.591
-275.18
-244.789
-213.398
-181.738
-150.29
-119.311
-88.8984
-59.0429
-29.588
-0.458209
28.303
56.5099
83.8305
109.796
133.823
155.248
173.376
187.533
197.13
201.714
225.112
218.365
206.047
188.756
167.244
142.349
114.916
85.7304
55.469
24.658
-6.34334
-37.3533
-68.3593
-99.4833
-130.866
-162.565
-194.527
-226.517
-258.03
-288.338
-316.473
-341.296
-361.633
-376.472
-385.31
-388.22
-385.348
-376.533
-361.695
-341.328
-316.451
-288.236
-257.82
-226.17
-194.009
-161.841
-129.901
-98.246
-66.8293
-35.5145
-4.20868
27.0404
58.0121
88.304
117.348
144.431
168.739
189.413
205.62
216.631
221.893
221.09
214.28
201.845
184.391
162.681
137.562
109.888
80.4526
49.9325
18.854
-12.4255
-43.7332
-75.0623
-106.535
-138.264
-170.276
-202.475
-234.557
-265.963
-295.903
-323.355
-347.157
-366.159
-379.434
-386.664
-388.014
-383.571
-373.146
-356.784
-335.159
-309.349
-280.535
-249.824
-218.122
-186.101
-154.19
-122.571
-91.2541
-60.1864
-29.1892
1.82509
32.8009
63.5084
93.5434
122.338
149.182
173.27
193.749
209.8
220.702
225.91
249.725
242.074
228.113
208.556
184.308
156.373
125.762
93.4168
60.1412
26.5637
-6.87263
-39.9319
-72.581
-104.94
-137.153
-169.359
-201.59
-233.712
-265.194
-295.413
-323.493
-348.382
-368.977
-384.286
-393.641
-396.782
-393.655
-384.302
-368.974
-348.334
-323.374
-295.194
-264.844
-233.196
-200.863
-168.374
-135.863
-103.3
-70.5559
-37.5015
-4.04883
29.7282
63.5494
96.9189
129.159
159.419
186.725
210.049
228.389
240.871
246.837
245.928
238.206
224.114
204.376
179.909
151.728
120.858
88.2446
54.6972
20.8436
-12.8675
-46.2157
-79.1738
-111.861
-144.403
-176.915
-209.39
-241.591
-272.971
-302.845
-330.284
-354.215
-373.547
-387.351
-395.079
-396.561
-391.779
-380.82
-364.04
-342.211
-316.375
-287.634
-257.003
-225.296
-193.114
-160.879
-128.675
-96.4341
-64.0183
-31.2681
1.90075
35.4068
68.954
102.053
134.025
164.026
191.09
214.198
232.364
244.724
250.629
275.249
266.614
250.872
228.867
201.667
170.453
136.411
100.64
64.0805
27.4559
-8.68388
-44.0225
-78.4954
-112.195
-145.271
-177.935
-210.283
-242.219
-273.376
-303.181
-330.839
-355.393
-375.816
-391.149
-400.645
-403.864
-400.633
-391.114
-375.74
-355.251
-330.604
-302.821
-272.855
-241.494
-209.301
-176.639
-143.6
-110.089
-75.9064
-40.9265
-5.09393
31.4789
68.4324
105.149
140.848
174.537
205.076
231.258
251.905
265.983
272.715
271.69
262.976
247.089
224.883
197.441
165.96
131.637
95.5817
58.7368
21.8205
-14.5799
-50.1919
-84.9497
-118.942
-152.316
-185.255
-217.812
-249.828
-280.887
-310.364
-337.42
-361.073
-380.306
-394.201
-402.099
-403.639
-398.744
-387.659
-370.905
-349.297
-323.827
-295.515
-265.284
-233.873
-201.805
-169.371
-136.612
-103.396
-69.5023
-34.8025
0.760844
37.0754
73.7383
110.169
145.583
178.991
209.264
235.209
255.662
269.604
276.268
301.991
292.308
274.692
250.13
219.863
185.249
147.647
108.314
68.3298
28.5491
-10.4076
-48.169
-84.5979
-119.731
-153.734
-186.87
-219.291
-250.964
-281.626
-310.789
-337.757
-361.672
-381.597
-396.626
-405.998
-409.188
-405.958
-396.536
-381.439
-361.421
-337.386
-310.263
-280.902
-249.993
-218.011
-185.215
-151.629
-117.104
-81.386
-44.3483
-5.99318
33.4919
73.6779
113.878
153.17
190.415
224.307
253.461
276.522
292.284
299.836
298.685
288.915
271.137
246.355
215.823
180.919
143.015
103.381
63.1026
23.039
-16.183
-54.2034
-90.8885
-126.272
-160.531
-193.902
-226.495
-258.228
-288.786
-317.634
-344.033
-367.103
-385.912
-399.583
-407.418
-408.968
-404.117
-393.197
-376.799
-355.733
-330.926
-303.301
-273.682
-242.715
-210.828
-178.223
-144.879
-110.61
-75.1383
-38.3528
-0.253787
38.967
78.8694
118.774
157.763
194.705
228.307
257.202
280.048
295.659
303.135
330.217
319.469
299.975
272.879
239.589
201.633
160.526
117.667
74.2616
31.2763
-10.5816
-50.863
-89.3529
-126.016
-161.037
-194.713
-227.24
-258.643
-288.744
-317.148
-343.265
-366.345
-385.555
-400.064
-409.138
-412.228
-409.067
-399.912
-385.305
-365.972
-342.739
-316.431
-287.787
-257.389
-225.621
-192.652
-158.449
-122.818
-85.4709
-46.2746
-5.30645
37.1644
80.6251
124.297
167.141
207.885
245.074
277.162
302.619
320.073
328.462
327.181
316.337
296.668
269.332
235.756
197.486
156.056
112.877
69.1672
25.8971
-16.2231
-56.7475
-95.4627
-132.33
-167.56
-201.426
-234.083
-265.516
-295.498
-323.591
-349.168
-371.459
-389.628
-402.867
-410.491
-412.017
-407.314
-396.75
-380.929
-360.618
-336.66
-309.873
-280.971
-250.497
-218.788
-185.968
-151.96
-116.54
-79.3945
-40.421
0.305246
42.5129
85.6861
129.05
171.572
211.99
248.867
280.672
305.896
323.185
331.49
360.155
348.396
327.136
297.672
261.569
220.502
176.12
129.941
83.2762
37.1878
-7.52845
-50.3376
-90.9372
-129.207
-165.348
-199.673
-232.4
-263.603
-293.173
-320.808
-346.023
-368.186
-386.573
-400.443
-409.121
-412.071
-409.015
-400.223
-386.22
-367.676
-345.322
-319.874
-291.952
-262.032
-230.403
-197.166
-162.238
-125.402
-86.3555
-44.9613
-1.38433
44.0161
90.6375
137.609
183.792
227.802
268.06
302.879
330.578
349.627
358.812
357.407
345.545
324.097
294.375
257.965
216.562
171.835
125.318
78.3341
31.9543
-13.0221
-56.0595
-96.8551
-135.284
-171.588
-206.053
-238.865
-270.062
-299.493
-326.817
-351.518
-372.942
-390.363
-403.058
-410.387
-411.873
-407.377
-397.276
-382.148
-362.696
-339.662
-313.753
-285.568
-255.545
-223.936
-190.8
-156.02
-119.348
-80.4599
-39.2611
4.08629
49.2233
95.5486
142.197
188.037
231.698
271.621
306.137
333.587
352.458
361.553
391.973
379.328
356.537
325.036
286.52
242.784
195.574
146.497
96.9412
48.0457
0.684671
-44.5223
-87.1812
-127.076
-164.419
-199.509
-232.568
-263.7
-292.852
-319.803
-344.17
-365.435
-382.989
-396.191
-404.439
-407.233
-404.296
-395.896
-382.523
-364.772
-343.273
-318.626
-291.339
-261.781
-230.163
-196.526
-160.762
-122.648
-81.8953
-38.3691
7.66925
55.7674
105.237
155.126
204.217
251.043
293.934
331.097
360.729
381.163
391.048
389.532
376.778
353.788
322.014
283.174
239.081
191.505
142.069
92.1786
42.9815
-4.6412
-50.0663
-92.8972
-132.913
-170.376
-205.559
-238.659
-269.746
-298.734
-325.37
-349.244
-369.819
-386.481
-398.602
-405.609
-407.049
-402.782
-393.179
-378.771
-360.179
-338.041
-312.948
-285.386
-255.697
-224.057
-190.475
-154.812
-116.82
-76.1887
-32.8363
12.9798
60.8103
109.971
159.518
208.245
254.701
297.236
334.078
363.445
383.692
393.481
425.784
412.456
388.504
355.476
315.164
269.437
220.102
168.808
116.989
65.8312
16.2673
-31.0092
-75.517
-116.943
-155.492
-191.423
-224.938
-256.147
-285.037
-311.454
-335.104
-355.575
-372.368
-384.943
-392.778
-395.418
-392.593
-384.565
-371.777
-354.744
-333.995
-310.016
-283.211
-253.859
-222.104
-187.95
-151.284
-111.903
-69.5579
-24.1322
24.0157
74.3463
126.098
178.261
229.569
278.509
323.363
362.274
393.358
414.847
425.274
423.672
410.23
386.071
352.759
312.108
266.008
216.287
164.616
112.444
60.9713
11.1399
-36.351
-81.0155
-122.536
-161.171
-197.156
-230.671
-261.8
-290.502
-316.598
-339.771
-359.595
-375.565
-387.15
-393.851
-395.249
-391.206
-382.078
-368.342
-350.53
-329.177
-304.762
-277.671
-248.159
-216.344
-182.203
-145.597
-106.303
-64.0534
-18.7891
29.1366
79.1901
130.617
182.419
233.342
281.893
326.374
364.949
395.757
417.051
427.379
461.656
447.929
423.327
389.474
348.214
301.439
250.964
198.437
145.29
92.7213
41.6929
-7.05156
-52.9588
-95.6281
-135.232
-171.961
-205.972
-237.361
-266.13
-292.171
-315.264
-335.085
-351.234
-363.267
-370.737
-373.238
-370.508
-362.8
-350.511
-334.076
-313.929
-290.46
-263.98
-234.698
-202.712
-168.013
-130.504
-90.0276
-46.406
0.440787
50.0676
101.866
155.025
208.51
261.043
311.113
357.002
396.842
428.717
450.803
461.551
459.896
446.053
421.24
387.097
345.488
298.328
247.453
194.531
141.015
88.1173
36.8116
-12.1494
-58.2073
-100.963
-140.634
-177.389
-211.368
-242.646
-271.207
-296.921
-319.552
-338.765
-354.154
-365.281
-371.717
-373.083
-369.24
-360.53
-347.371
-330.215
-309.496
-285.6
-258.823
-229.357
-197.278
-162.558
-125.079
-84.669
-41.1303
5.55591
54.9523
106.459
159.276
212.38
264.512
314.179
359.682
399.178
430.77
452.657
463.304
499.616
485.855
461.257
427.476
386.351
339.744
289.42
236.973
183.785
131.021
79.6321
30.3777
-16.1473
-59.478
-99.7243
-136.982
-171.343
-202.863
-231.538
-257.284
-279.928
-299.219
-314.833
-326.409
-333.569
-335.949
-333.295
-325.853
-313.977
-298.032
-278.372
-255.306
-229.078
-199.849
-167.695
-132.615
-94.5539
-53.4247
-9.14381
38.3074
88.4225
140.555
193.884
247.388
299.829
349.746
395.476
435.196
467.018
489.113
499.896
498.232
484.357
459.549
425.478
384.003
337.006
286.275
233.422
179.852
126.745
75.0674
25.5911
-21.0759
-64.5203
-104.834
-142.105
-176.413
-207.803
-236.255
-261.673
-283.871
-302.588
-317.5
-328.247
-334.465
-335.806
-332.137
-323.781
-311.107
-294.492
-274.291
-250.809
-224.278
-194.848
-162.579
-127.457
-89.4103
-48.3405
-4.14759
43.1315
93.0004
144.823
197.793
250.903
302.931
352.438
397.778
437.153
468.693
490.59
501.273
539.652
526.301
502.497
469.867
430.189
385.232
336.655
285.941
234.373
183.032
132.81
84.4364
38.5035
-4.50146
-44.5924
-81.7547
-115.996
-147.317
-175.685
-201.016
-223.164
-241.92
-257.023
-268.172
-275.044
-277.311
-274.728
-267.534
-256.046
-240.575
-221.412
-198.81
-172.966
-144.019
-112.048
-77.0823
-39.1241
1.82531
45.7367
92.5438
141.722
192.633
244.493
296.346
347.04
395.222
439.338
477.673
508.424
529.821
540.291
538.672
525.21
501.203
468.292
428.271
382.932
333.951
282.831
230.875
179.18
128.656
80.0478
33.9627
-9.19225
-49.365
-86.5411
-120.724
-151.907
-180.05
-205.06
-226.781
-245.001
-259.456
-269.847
-275.861
-277.181
-273.672
-265.645
-253.427
-237.336
-217.664
-194.661
-168.518
-139.366
-107.272
-72.2571
-34.3138
6.56648
50.367
96.9796
145.892
196.477
247.967
299.419
349.701
397.475
441.21
479.208
509.687
530.891
541.264
581.717
569.285
547.179
516.94
480.217
438.63
393.672
346.666
298.742
250.848
203.769
158.148
114.519
73.3328
34.6999
-1.25077
-34.4383
-64.7985
-92.2582
-116.715
-138.029
-156.014
-170.446
-181.067
-187.599
-189.74
-187.252
-180.369
-169.381
-154.558
-136.146
-114.363
-89.3848
-61.3469
-30.3479
3.53804
40.2412
79.6684
121.672
166.084
212.422
260.113
308.464
356.636
403.618
448.211
489.031
524.525
553.039
572.923
582.68
581.168
568.633
546.338
515.836
478.792
436.842
391.498
344.099
295.792
247.543
200.151
154.276
110.465
69.0947
30.3585
-5.61941
-38.7578
-68.9897
-96.2368
-120.392
-141.31
-158.802
-172.644
-182.581
-188.339
-189.622
-186.298
-178.664
-167.015
-151.625
-132.745
-110.589
-85.329
-57.0965
-25.9837
7.94134
44.6146
83.9486
125.804
169.994
216.047
263.404
311.384
359.164
405.747
449.953
490.412
525.59
553.85
573.556
583.223
625.73
614.776
595.356
568.859
536.745
500.422
461.17
420.099
378.145
336.081
294.533
254.007
214.917
177.603
142.318
109.289
78.6744
50.5963
25.1697
2.52034
-17.2038
-33.8276
-47.149
-56.9414
-62.9562
-64.9185
-62.5993
-56.2253
-46.0616
-32.3481
-15.303
4.87849
28.0271
53.9986
82.6683
113.918
147.617
183.592
221.591
261.34
302.469
344.534
386.988
429.155
470.21
509.158
544.827
575.886
600.889
618.371
626.976
625.64
614.595
595.008
568.278
535.878
499.229
459.626
418.193
375.881
333.474
291.612
250.814
211.503
173.979
138.566
105.488
74.8988
46.9232
21.6782
-0.707641
-20.0841
-36.2751
-49.0792
-58.2723
-63.6088
-64.8147
-61.7596
-54.7273
-43.9847
-29.7747
-12.3174
8.19169
31.585
57.7212
86.4787
117.743
151.385
187.234
225.04
264.541
305.378
347.115
389.216
431.019
471.71
510.307
545.654
576.432
601.21
618.535
627.06
671.582
662.687
646.981
625.632
599.846
570.766
539.409
506.638
473.16
439.537
406.203
373.484
341.615
310.757
281.293
253.514
227.621
203.77
182.101
162.752
145.875
131.635
120.215
111.815
106.652
104.973
106.987
112.484
121.227
133.006
147.626
164.911
184.699
206.841
231.196
257.622
285.95
315.962
347.337
379.715
412.91
446.659
480.604
514.271
547.054
578.196
606.783
631.749
651.918
666.073
673.068
671.979
663.011
647.168
625.627
599.604
570.253
538.602
505.523
471.733
437.802
404.172
371.176
339.053
307.973
278.364
250.508
224.607
200.816
179.277
160.13
143.528
129.635
118.633
110.72
106.113
105.058
107.678
113.714
122.927
135.107
150.056
167.599
187.571
209.828
234.23
260.634
288.875
318.73
349.872
381.991
414.904
448.355
481.99
515.344
547.82
578.67
606.99
631.725
651.71
665.736
672.665
719.136
712.877
701.897
687.075
669.304
649.407
628.097
605.96
583.45
560.901
538.539
516.488
494.779
473.33
452.615
432.923
414.446
397.329
381.7
367.682
355.406
345.01
336.644
330.47
326.664
325.426
326.932
331.005
337.451
346.098
356.791
369.382
383.734
399.72
417.213
436.081
456.169
477.264
499.04
521.1
543.493
566.169
588.979
611.668
633.866
655.082
674.689
691.937
705.971
715.887
720.819
720.048
713.736
702.657
687.697
669.754
649.659
628.133
605.765
583.016
560.223
537.612
515.307
493.331
471.674
450.807
431.016
412.491
395.379
379.808
365.904
353.797
343.627
335.541
329.701
326.281
325.486
327.42
331.866
338.632
347.546
358.45
371.197
385.65
401.683
419.169
437.977
457.951
478.872
500.396
522.213
544.365
566.802
589.372
611.825
633.797
654.799
674.213
691.294
705.194
715.018
719.903
768.266
765.176
759.855
752.83
744.612
735.657
726.334
716.924
707.615
698.512
689.637
680.931
672.228
663.229
654.365
645.844
637.777
630.238
623.289
616.994
611.421
606.647
602.759
599.852
598.037
597.442
598.188
600.153
603.211
607.256
612.194
617.942
624.423
631.57
639.318
647.603
656.342
665.407
674.557
683.448
692.366
701.458
710.769
720.256
729.794
739.17
748.078
756.12
762.822
767.658
770.106
769.72
766.6
761.226
754.125
745.814
736.751
727.308
717.767
708.318
699.064
690.025
681.13
672.199
663.025
654.021
645.388
637.235
629.636
622.657
616.361
610.817
606.104
602.308
599.526
597.868
597.468
598.397
600.51
603.684
607.814
612.805
618.575
625.049
632.158
639.841
648.032
656.647
665.549
674.468
683.171
691.924
700.865
710.034
719.387
728.799
738.057
746.86
754.812
761.441
766.227
768.65
818.751
819.295
820.446
822.305
824.942
828.384
832.615
837.58
843.189
849.321
855.826
862.516
869.135
875.27
881.121
886.687
891.915
896.742
901.108
904.958
908.25
910.949
913.036
914.503
915.356
915.624
915.342
914.473
912.992
910.892
908.182
904.883
901.031
896.669
891.852
886.643
881.102
875.276
869.141
862.57
855.97
849.588
843.609
838.179
833.412
829.395
826.172
823.749
822.088
821.111
820.709
820.765
821.307
822.455
824.31
826.941
830.375
834.595
839.545
845.132
851.232
857.689
864.306
870.801
876.836
882.587
888.045
893.157
897.86
902.092
905.803
908.95
911.501
913.439
914.758
915.469
915.604
915.186
914.173
912.544
910.294
907.436
903.994
900.003
895.511
890.571
885.247
879.597
873.661
867.386
860.731
854.076
847.656
841.651
836.203
831.424
827.398
824.169
821.742
820.077
819.097
818.695
)
;

boundaryField
{
    top
    {
        type            fixedFluxPressure;
        gradient        nonuniform List<scalar> 
102
(
1574.47
1693.55
1905.01
2194.31
2546.25
2946.35
3381.61
3840.95
4315.36
4797.96
5284.15
5772.28
6265.67
6777.74
7284.51
7774.98
8242.04
8679.92
9083.36
9447.36
9767.06
10037.7
10254.8
10414.1
10511.4
10542.9
10505.4
10402
10236.7
10013.5
9736.64
9410.58
9040.08
8630.05
8185.57
7712.06
7215.59
6703.95
6189.99
5693.55
5201.89
4712.6
4227.96
3753.15
3295.67
2865.15
2473.31
2133.7
1861.24
1671.2
1577.8
1592.29
1712.21
1925.26
2216.77
2571.43
2974.63
3413.24
3876.09
4354.1
4840.38
5330.46
5823.11
6322.95
6838.61
7347.4
7838.61
8305.11
8741.09
9141.25
9500.57
9814.18
10077.4
10285.8
10435.2
10521.7
10541.2
10492.1
10378.1
10203.2
9971.65
9687.65
9355.85
8981
8568.02
8121.98
7648.28
7153.03
6644.42
6136.91
5644.77
5156.75
4670.95
4189.8
3718.5
3264.48
2837.27
2448.48
2111.54
1841.22
1652.67
1560.03
)
;
        value           nonuniform List<scalar> 
102
(
844.992
847.52
852.196
858.877
867.38
877.489
888.975
901.595
915.111
929.287
943.895
958.721
973.563
988.233
1002.53
1016.27
1029.28
1041.41
1052.5
1062.41
1071.03
1078.24
1083.95
1088.07
1090.55
1091.34
1090.43
1087.84
1083.6
1077.78
1070.46
1061.73
1051.7
1040.5
1028.28
1015.18
1001.36
987.008
972.308
957.463
942.668
928.132
914.075
900.731
888.34
877.147
867.394
859.311
853.109
848.964
847.006
847.303
849.844
854.542
861.256
869.798
879.952
891.483
904.147
917.701
931.905
946.53
961.358
976.184
990.813
1005.04
1018.69
1031.58
1043.54
1054.45
1064.15
1072.52
1079.46
1084.87
1088.68
1090.83
1091.29
1090.05
1087.14
1082.6
1076.49
1068.9
1059.92
1049.69
1038.31
1025.94
1012.72
998.815
984.402
969.668
954.811
940.022
925.506
911.481
898.178
885.832
874.686
864.977
856.934
850.764
846.642
844.695
)
;
    }
    bottom
    {
        type            fixedFluxPressure;
        gradient        nonuniform List<scalar> 
102
(
0
0
0
0
0
0
0
0
0
0
0
0
0
0
0
0
0
0
0
0
0
0
0
0
0
0
0
0
0
0
0
0
0
0
0
0
0
0
0
0
0
0
0
0
0
0
0
0
0
0
0
0
0
0
0
0
0
0
0
0
0
0
0
0
0
0
0
0
0
0
0
0
0
0
0
0
0
0
0
0
0
0
0
0
0
0
0
0
0
0
0
0
0
0
0
0
0
0
0
0
0
-1.64492e-14
)
;
        value           nonuniform List<scalar> 
102
(
-38.8707
-41.9552
-47.7347
-56.1654
-67.2027
-80.8118
-96.9681
-115.642
-136.767
-160.208
-185.738
-213.013
-241.555
-270.726
-299.694
-327.483
-353.11
-375.679
-394.452
-409.113
-419.876
-427.233
-431.91
-434.656
-436.059
-436.473
-436.012
-434.559
-431.76
-427.024
-419.6
-408.759
-394.012
-375.146
-352.483
-326.766
-298.905
-269.905
-240.754
-212.288
-185.148
-159.816
-136.633
-115.826
-97.5255
-81.7967
-68.6687
-58.1664
-50.3239
-45.1829
-42.7822
-43.1452
-46.2677
-52.1213
-60.6654
-71.8592
-85.6717
-102.079
-121.046
-142.493
-166.267
-192.112
-219.652
-248.367
-277.567
-306.366
-333.757
-358.756
-380.483
-398.275
-411.963
-421.847
-428.491
-432.651
-435.048
-436.216
-436.445
-435.792
-434.08
-430.893
-425.588
-417.402
-405.651
-389.914
-370.09
-346.637
-320.352
-292.154
-263.04
-233.962
-205.697
-178.84
-153.831
-130.98
-110.49
-92.4737
-76.9848
-64.0494
-53.6936
-45.9557
-40.881
-38.5111
)
;
    }
    frontAndBack
    {
        type            empty;
    }