/*--------------------------------*- C++ -*----------------------------------*\
| =========                 |                                                 |
| \\      /  F ield         | OpenFOAM: The Open Source CFD Toolbox           |
|  \\    /   O peration     | Version:  2.3.0                                 |
|   \\  /    A nd           | Web:      www.OpenFOAM.org                      |
|    \\/     M anipulation  |                                                 |
\*---------------------------------------------------------------------------*/
FoamFile
{
    version     2.0;
    format      ascii;
    class       volScalarField;
    location    "13000";
    object      p_rgh;
}
// * * * * * * * * * * * * * * * * * * * * * * * * * * * * * * * * * * * * * //

dimensions      [0 2 -2 0 0 0 0];

internalField   nonuniform List<scalar> 
765
(
-71.5688
-85.5119
-111.028
-146.911
-191.488
-242.283
-295.443
-345.857
-389.738
-425.007
-447.03
-455.957
-458.283
-456.87
-449.899
-431.45
-398.377
-356.378
-307.131
-254.123
-202.365
-156.073
-117.978
-89.8882
-73.0981
-68.4964
-76.3992
-96.2982
-127.187
-167.658
-215.709
-268.277
-320.733
-368.419
-408.174
-438.136
-452.823
-457.865
-458.317
-454.789
-443.253
-417.069
-379.532
-333.633
-282.067
-229.048
-179.53
-136.958
-103.557
-80.8607
-69.9798
-113.913
-124.72
-144.075
-170.795
-203.626
-241.175
-282.092
-325.759
-367.155
-398.019
-419.001
-430.68
-434.088
-431.951
-422.581
-403.429
-375.064
-335.633
-291.715
-249.971
-211.489
-177.402
-149.113
-127.893
-114.939
-111.316
-117.51
-132.776
-155.992
-185.948
-221.337
-260.738
-303.233
-347.041
-383.78
-409.432
-426.33
-433.293
-434.002
-428.989
-414.613
-391.419
-357.607
-314.63
-271.506
-231.339
-194.842
-163.429
-138.451
-121.142
-112.66
-61.244
-72.7853
-93.2463
-121.255
-155.494
-194.791
-238.117
-284.713
-330.211
-365.898
-390.841
-403.692
-407.545
-405.01
-394.805
-372.286
-339.135
-295.172
-248.177
-204.016
-163.68
-128.152
-98.5567
-76.1759
-62.3794
-58.4653
-65.1321
-81.3496
-105.784
-137.076
-173.984
-215.42
-260.519
-307.547
-349.095
-379.447
-398.89
-406.424
-407.31
-401.836
-385.699
-358.045
-319.358
-272.786
-226.877
-184.473
-146.346
-113.561
-87.3228
-68.9776
-59.8845
7.76035
-5.63368
-29.0959
-60.7579
-98.8758
-142.004
-188.936
-238.562
-287.41
-331.018
-362.243
-376.25
-380.33
-377.717
-366.672
-339.323
-297.546
-249.57
-199.638
-152.034
-107.946
-68.5546
-35.2337
-9.66183
6.30226
10.8763
3.09696
-15.6147
-43.432
-78.523
-119.29
-164.436
-212.808
-262.756
-309.477
-348.451
-371.1
-379.273
-380.167
-374.237
-356.178
-320.779
-275.483
-225.916
-176.833
-130.745
-88.7586
-52.1172
-22.3439
-1.23561
9.35071
65.51
49.6655
22.3451
-13.6984
-56.0273
-102.947
-153.597
-207.756
-262.569
-313.066
-350.733
-368.555
-374.127
-370.454
-356.296
-322.921
-274.236
-219.889
-165.111
-113.792
-66.0232
-22.5399
15.1586
44.7839
63.6104
69.0474
59.8015
37.8163
5.77523
-33.6643
-78.4112
-127.21
-179.56
-234.622
-288.015
-333.853
-361.895
-372.501
-373.781
-365.921
-343.212
-301.075
-248.949
-193.872
-140.552
-90.7878
-44.9104
-3.96875
30.1365
54.8383
67.3986
118.486
98.884
65.5356
22.5972
-26.268
-78.6871
-133.843
-192.234
-251.737
-308.138
-354.191
-380.684
-389.31
-383.821
-361.92
-319.538
-264.608
-205.356
-146.426
-90.6943
-37.697
12.0988
56.6894
92.6697
115.913
122.643
111.182
84.1205
45.443
-0.824528
-51.6125
-105.357
-162.002
-221.282
-279.874
-332.481
-369.911
-386.828
-388.676
-376.154
-344.149
-294.49
-236.825
-177.328
-119.769
-65.2831
-13.6195
34.0412
74.9593
105.255
120.819
168.225
143.482
101.789
49.2034
-8.8798
-68.9533
-129.788
-191.969
-254.405
-313.949
-364.496
-397.638
-409.758
-402.046
-373.579
-326.172
-267.972
-205.844
-143.53
-82.5324
-22.3348
36.3685
90.6302
135.433
164.739
173.218
158.751
124.699
76.7817
20.9108
-38.3799
-98.7786
-160.113
-222.528
-284.035
-340.177
-383.305
-406.193
-408.777
-391.382
-353.059
-299.447
-238.769
-176.272
-114.496
-53.8369
5.93189
63.0565
113.482
151.5
171.156
218.369
187.228
135.182
70.5559
0.801845
-69.1198
-137.054
-202.53
-266.113
-325.947
-377.13
-412.444
-426.451
-417.455
-386.569
-338.261
-279.836
-216.869
-151.876
-84.6911
-15.2385
54.7827
121.15
176.906
213.749
224.418
206.196
163.462
104.058
36.1205
-34.0182
-102.967
-169.422
-233.9
-295.983
-352.378
-396.808
-422.221
-425.254
-405.502
-365.418
-311.41
-250.33
-186.273
-120.335
-51.7799
18.3662
87.427
149.694
197.295
222.051
271.517
233.076
169.676
92.0169
9.57065
-70.9655
-145.985
-214.528
-278.355
-336.88
-386.57
-421.517
-435.958
-426.63
-395.827
-348.874
-291.949
-229.218
-161.902
-88.6124
-9.30595
73.0503
152.524
220.23
265.566
278.866
256.214
203.805
131.918
50.8937
-31.1014
-108.982
-180.41
-246.407
-307.793
-362.579
-405.918
-431.54
-434.7
-414.543
-375.196
-322.783
-262.748
-197.865
-127.989
-51.3789
30.1138
112.149
187.252
245.443
276.118
330.272
285.009
211.468
122.295
28.4005
-62.1837
-144.369
-216.447
-280.801
-337.789
-385.204
-418.567
-432.633
-423.522
-394.043
-349.353
-294.283
-231.612
-161.519
-81.9435
6.86563
100.455
191.537
269.857
323.02
338.908
311.968
250.757
167.828
75.1542
-17.7733
-104.476
-181.141
-249.066
-309.795
-362.47
-403.681
-428.317
-431.412
-411.9
-374.43
-324.252
-265.356
-199.296
-125.16
-40.4156
51.6659
145.317
231.755
299.482
335.787
396.962
347.225
267.439
171.255
70.0438
-27.6074
-115.585
-191.379
-257.041
-313.249
-358.773
-390.451
-403.913
-395.185
-367.221
-324.521
-270.615
-207.19
-133.948
-49.0443
46.6575
147.573
245.773
330.577
388.779
406.478
376.596
309.82
220.179
120.282
20.0443
-73.2992
-154.696
-225.111
-286.006
-337.173
-376.398
-399.792
-402.762
-384.159
-348.551
-300.105
-241.531
-173.568
-95.1997
-4.18118
95.1253
196.063
289.377
363.043
403.128
473.454
423.724
344.849
250.074
149.899
52.2277
-36.9235
-114.471
-181.044
-236.85
-281.036
-311.348
-324.255
-315.891
-289.195
-247.958
-194.75
-130.731
-55.871
30.4476
126.479
226.576
323.381
407.092
465.085
483.005
452.872
386.55
298.171
199.603
99.9151
5.91475
-77.1073
-148.95
-210.093
-260.285
-298
-320.32
-323.167
-305.375
-271.224
-223.946
-165.431
-96.2241
-15.9774
75.877
174.858
274.556
366.492
439.467
479.717
561.345
518.249
450.774
370.118
284.47
199.571
119.618
47.4328
-15.3915
-67.993
-109.292
-137.419
-149.429
-141.65
-116.92
-78.4787
-28.4246
32.0159
102
180.197
264.167
349.986
432.381
503.847
553.919
569.649
543.306
486.257
410.947
327.004
241.234
158.454
82.3373
14.8521
-42.888
-90.0079
-125.088
-145.76
-148.408
-131.89
-100.159
-55.8556
-0.607063
64.6458
138.984
220.489
305.992
390.999
469.247
531.826
566.861
661.795
633.522
590.356
539.78
486.512
433.006
380.022
328.66
282.41
242.964
211.674
190.201
180.923
186.939
205.839
234.999
272.628
317.336
367.576
420.401
473.719
527.122
578.61
624.077
656.72
667.233
649.728
612.793
565.169
512.896
459.457
406.395
353.748
304.786
261.839
226.311
199.65
183.812
181.761
194.472
218.649
252.15
293.444
341.212
393.597
446.536
500.006
552.847
602.092
642.359
665.498
776.602
771.44
765.321
760.349
757.113
754.81
750.997
744.051
736.673
729.638
723.432
718.687
716.384
717.905
722.171
728.075
734.926
742.216
749.279
754.002
756.314
759.173
763.707
769.669
775.324
777.503
774.002
768
762.327
758.308
755.842
753.445
747.564
740.325
733.112
726.468
720.921
717.243
716.714
719.772
724.964
731.425
738.592
745.995
752.758
755.595
757.867
761.463
766.811
772.948
777.39
)
;

boundaryField
{
    top
    {
        type            fixedFluxPressure;
        gradient        nonuniform List<scalar> 
51
(
1974.59
2418.7
3108.66
3930.83
4813.79
5729.86
6705.85
7746.56
8724.74
9578.72
10260.6
10723.8
10918.9
10793.2
10386.9
9751.43
8933.72
7980.96
6950.4
5949.42
5025.54
4134.83
3293.99
2564.07
2048.95
1885.99
2158.49
2743.97
3511.84
4369.35
5266.4
6198.18
7228.46
8246.12
9168.08
9942.3
10522.4
10861
10903.6
10634
10110.1
9379.81
8489.25
7486.92
6438.84
5491.9
4587.39
3716.8
2919.86
2279.09
1917.4
)
;
        value           nonuniform List<scalar> 
51
(
842.422
852.064
868.943
891.377
917.572
945.805
974.525
1002.27
1027.5
1048.93
1065.45
1076.15
1080.35
1077.68
1068.4
1053.12
1032.72
1008.25
980.959
952.316
923.832
897
873.507
855.138
843.622
840.369
845.951
859.466
879.389
903.953
931.389
960.051
988.513
1015.2
1038.72
1057.88
1071.67
1079.28
1080.17
1074.24
1061.97
1044.09
1021.57
995.559
967.386
938.658
910.78
885.357
864.14
848.918
841.303
)
;
    }
    bottom
    {
        type            fixedFluxPressure;
        gradient        uniform 0;
        value           nonuniform List<scalar> 
51
(
-71.5688
-85.5119
-111.028
-146.911
-191.488
-242.283
-295.443
-345.857
-389.738
-425.007
-447.03
-455.957
-458.283
-456.87
-449.899
-431.45
-398.377
-356.378
-307.131
-254.123
-202.365
-156.073
-117.978
-89.8882
-73.0981
-68.4964
-76.3992
-96.2982
-127.187
-167.658
-215.709
-268.277
-320.733
-368.419
-408.174
-438.136
-452.823
-457.865
-458.317
-454.789
-443.253
-417.069
-379.532
-333.633
-282.067
-229.048
-179.53
-136.958
-103.557
-80.8607
-69.9798
)
;
    }
    frontAndBack
    {
        type            empty;
    }
    left_cyc
    {
        type            cyclic;
    }
    right_cyc
    {
        type            cyclic;
    }
}


// ************************************************************************* //
