/*--------------------------------*- C++ -*----------------------------------*\
| =========                 |                                                 |
| \\      /  F ield         | OpenFOAM: The Open Source CFD Toolbox           |
|  \\    /   O peration     | Version:  2.3.0                                 |
|   \\  /    A nd           | Web:      www.OpenFOAM.org                      |
|    \\/     M anipulation  |                                                 |
\*---------------------------------------------------------------------------*/
FoamFile
{
    version     2.0;
    format      ascii;
    class       surfaceScalarField;
    location    "13000";
    object      phi;
}
// * * * * * * * * * * * * * * * * * * * * * * * * * * * * * * * * * * * * * //

dimensions      [0 3 -1 0 0 0 0];

internalField   nonuniform List<scalar> 
1464
(
0.308002
0.00245279
0.312931
-0.00492978
0.326962
-0.0140304
0.349998
-0.0230356
0.37809
-0.0280926
0.401155
-0.0230652
0.401989
-0.000833931
0.358537
0.0434528
0.249923
0.108614
0.0714371
0.178486
-0.136283
0.20772
-0.293963
0.15768
-0.379844
0.0858806
-0.40638
0.0265366
-0.39604
-0.0103407
-0.369594
-0.0264456
-0.34222
-0.0273739
-0.321819
-0.0204007
-0.310816
-0.011003
-0.308509
-0.00230753
-0.312913
0.00440425
-0.321933
0.00901942
-0.334182
0.012249
-0.349027
0.0148453
-0.366481
0.0174542
-0.387151
0.0206699
-0.412224
0.0250727
-0.443055
0.0308316
-0.479452
0.0363971
-0.514976
0.0355239
-0.527785
0.0128085
-0.487776
-0.0400083
-0.39699
-0.0907868
-0.272352
-0.124638
-0.124882
-0.14747
0.0270438
-0.151925
0.178318
-0.151274
0.320115
-0.141797
0.433728
-0.113613
0.509611
-0.0758825
0.527145
-0.0175347
0.502496
0.0246499
0.465408
0.0370875
0.430988
0.0344199
0.402501
0.0284873
0.379252
0.0232484
0.359872
0.0193805
0.34339
0.0164819
0.329416
0.0139736
0.318146
0.0112701
0.00769181
0.547017
-0.00569589
0.561914
-0.0198277
0.583907
-0.0360229
0.610926
-0.0500547
0.63669
-0.0538566
0.648711
-0.0350863
0.626973
0.0209036
0.543969
0.126457
0.372243
0.280339
0.104955
0.445774
-0.200932
0.513607
-0.439883
0.396631
-0.580569
0.226567
-0.640425
0.0863923
-0.648278
-0.00248735
-0.629784
-0.0449395
-0.602458
-0.0546996
-0.576539
-0.0463199
-0.556703
-0.0308394
-0.544046
-0.0149642
-0.537735
-0.00190669
-0.536034
0.00731785
-0.536816
0.0130311
-0.53798
0.0160093
-0.537447
0.0169211
-0.532971
0.0161939
-0.52195
0.0140522
-0.501268
0.0101496
-0.467342
0.00247064
-0.416427
-0.0153903
-0.345689
-0.0579301
-0.261007
-0.12469
-0.178975
-0.172819
-0.109951
-0.193662
-0.0505823
-0.206839
0.0102404
-0.212748
0.0705496
-0.211584
0.131871
-0.203118
0.206368
-0.18811
0.291777
-0.161292
0.373308
-0.099066
0.437057
-0.0390994
0.481535
-0.00739035
0.510261
0.00569473
0.527031
0.0117163
0.53531
0.0149699
0.53802
0.0166706
0.537613
0.0168887
0.536242
0.0153447
0.535957
0.0115556
0.00478055
0.578205
-0.0202619
0.595771
-0.0373935
0.615469
-0.0557218
0.634516
-0.0691013
0.64714
-0.0664804
0.643275
-0.0312213
0.607126
0.0570528
0.516959
0.216624
0.349396
0.447902
0.0977251
0.697445
-0.187195
0.798528
-0.413974
0.62341
-0.554346
0.366939
-0.624235
0.156281
-0.64759
0.0208683
-0.644647
-0.047883
-0.62904
-0.0703059
-0.609274
-0.0660865
-0.590014
-0.0500994
-0.573324
-0.0316543
-0.559614
-0.0156161
-0.548292
-0.00400488
-0.537897
0.00263622
-0.526328
0.00444044
-0.510928
0.0015206
-0.488513
-0.00622066
-0.455549
-0.018912
-0.408991
-0.0364082
-0.348196
-0.0583245
-0.278535
-0.085051
-0.215674
-0.120791
-0.170406
-0.169957
-0.129853
-0.213372
-0.0850791
-0.238437
-0.0389748
-0.252943
0.00780149
-0.259524
0.054416
-0.258198
0.100285
-0.248987
0.143702
-0.231527
0.18343
-0.201019
0.236196
-0.151833
0.304259
-0.107162
0.372048
-0.0751797
0.427835
-0.0500923
0.46911
-0.0295588
0.497735
-0.013655
0.517102
-0.00269619
0.530657
0.00333332
0.541391
0.00461138
0.551758
0.00118812
-0.00710018
0.517165
-0.0333987
0.529958
-0.0501862
0.540901
-0.0666645
0.547281
-0.0754819
0.544682
-0.0638808
0.526284
-0.0128233
0.482121
0.101215
0.399253
0.299492
0.26374
0.583415
0.0728024
0.888383
-0.139044
1.01037
-0.313948
0.798313
-0.431312
0.484303
-0.500114
0.225083
-0.534687
0.0554406
-0.547103
-0.0354663
-0.546207
-0.0712022
-0.53795
-0.0743434
-0.526143
-0.0619069
-0.513071
-0.0447255
-0.499922
-0.0287658
-0.487011
-0.0169158
-0.47388
-0.0104946
-0.45922
-0.01022
-0.440882
-0.0168169
-0.415971
-0.0311321
-0.381172
-0.0537106
-0.333855
-0.0837248
-0.274382
-0.117798
-0.20977
-0.149663
-0.156248
-0.174313
-0.12223
-0.203976
-0.0936215
-0.24198
-0.0629412
-0.269117
-0.0293254
-0.286559
0.00582952
-0.294679
0.0406198
-0.292988
0.0732552
-0.281623
0.102691
-0.260963
0.131608
-0.229936
0.173189
-0.193413
0.232932
-0.166905
0.297132
-0.139379
0.352522
-0.105482
0.395044
-0.0720812
0.425801
-0.0444125
0.447872
-0.024767
0.464487
-0.0132818
0.478289
-0.00919004
0.491134
-0.0116568
-0.0199948
0.409212
-0.0401738
0.413207
-0.054181
0.412876
-0.066334
0.406147
-0.0687526
0.390285
-0.0480193
0.361702
0.01576
0.316109
0.146808
0.248919
0.366682
0.15659
0.675744
0.0420257
1.00295
-0.0794005
1.1318
-0.188357
0.90727
-0.272801
0.568747
-0.332793
0.285076
-0.372613
0.0952606
-0.396796
-0.0112835
-0.409433
-0.0585653
-0.413849
-0.0699273
-0.412571
-0.0631847
-0.407509
-0.0497874
-0.400049
-0.036226
-0.391054
-0.0259104
-0.380805
-0.0207445
-0.368854
-0.022171
-0.353913
-0.0317573
-0.333831
-0.0512139
-0.305859
-0.0816831
-0.267541
-0.122042
-0.218687
-0.166652
-0.164045
-0.204305
-0.115804
-0.222555
-0.0851857
-0.234594
-0.0634596
-0.263706
-0.0424425
-0.290134
-0.0198371
-0.309164
0.00387466
-0.318391
0.0273154
-0.316429
0.0493157
-0.303623
0.0701117
-0.281759
0.0932871
-0.253111
0.13035
-0.230476
0.183157
-0.219712
0.236819
-0.193041
0.282174
-0.150836
0.316589
-0.106496
0.34139
-0.0692136
0.359308
-0.0426847
0.372942
-0.0269161
0.384151
-0.020399
0.39392
-0.0214263
-0.0285114
0.266889
-0.0390071
0.261579
-0.0488712
0.251028
-0.0557828
0.234141
-0.0518654
0.209919
-0.0237979
0.177733
0.047946
0.137979
0.186562
0.0929024
0.411758
0.0480854
0.720562
0.0113953
1.03964
-0.0199674
1.16316
-0.0605249
0.947827
-0.106909
0.615131
-0.15115
0.329317
-0.188916
0.133027
-0.218734
0.0185346
-0.240593
-0.0367066
-0.255357
-0.0551631
-0.264108
-0.0544336
-0.267968
-0.0459278
-0.268025
-0.0361694
-0.265248
-0.0286867
-0.260361
-0.0256317
-0.253638
-0.0288944
-0.244691
-0.0407038
-0.232321
-0.0635838
-0.214587
-0.0994169
-0.189356
-0.147274
-0.155692
-0.200316
-0.115776
-0.244221
-0.0766425
-0.261688
-0.051606
-0.25963
-0.0371065
-0.278206
-0.0246804
-0.30256
-0.0116128
-0.322232
0.00220054
-0.332204
0.0158212
-0.33005
0.02853
-0.316332
0.0414365
-0.294665
0.059144
-0.270819
0.089539
-0.260871
0.129958
-0.260131
0.16795
-0.231034
0.198593
-0.181479
0.220962
-0.128865
0.236584
-0.0848365
0.247604
-0.0537044
0.255719
-0.0350313
0.261837
-0.026517
0.266098
-0.0256866
-0.0304691
0.100969
-0.030824
0.0884062
-0.0363081
0.0710024
-0.038379
0.0486254
-0.0294884
0.0217602
0.00306726
-0.00769109
0.0773973
-0.0356565
0.214527
-0.0542807
0.430382
-0.0510523
0.717333
-0.0159796
1.00457
0.033024
1.11416
0.0571425
0.923709
0.0510346
0.621239
0.0276777
0.352674
-0.00178531
0.16249
-0.030939
0.0476883
-0.0565772
-0.0110684
-0.0774237
-0.0343165
-0.0932746
-0.0385828
-0.1044
-0.0348021
-0.11135
-0.0292199
-0.114875
-0.0251618
-0.115818
-0.0246881
-0.1149
-0.0298121
-0.112441
-0.043163
-0.108137
-0.0678883
-0.101023
-0.106531
-0.0897646
-0.158532
-0.0734864
-0.216595
-0.0528733
-0.264834
-0.0311839
-0.283378
-0.0186385
-0.272175
-0.0131996
-0.283645
-0.00906284
-0.306697
-0.00442926
-0.326866
0.00077793
-0.337412
0.00583264
-0.335105
0.0101661
-0.320665
0.0146054
-0.299105
0.0230566
-0.27927
0.0394275
-0.277242
0.0604044
-0.281108
0.0790627
-0.249693
0.0933182
-0.195734
0.102977
-0.138523
0.109067
-0.0909274
0.112779
-0.0574159
0.114826
-0.0370782
0.115275
-0.0269663
0.113645
-0.0240568
-0.0259762
-0.0719271
-0.0182054
-0.088557
-0.0196783
-0.109153
-0.0177827
-0.133048
-0.00559401
-0.158337
0.0283561
-0.180874
0.0999349
-0.193174
0.226828
-0.182961
0.420169
-0.134188
0.66856
-0.0384666
0.908844
0.0760236
0.999669
0.156735
0.842997
0.190668
0.587306
0.19143
0.351913
0.174367
0.179553
0.150138
0.0719169
0.124874
0.0141962
0.101836
-0.0112787
0.0824163
-0.0191635
0.0670302
-0.019416
0.0555718
-0.0177615
0.0475475
-0.0171375
0.0421445
-0.0192851
0.0384172
-0.0260849
0.03557
-0.0403158
0.0331299
-0.0654481
0.0309123
-0.104313
0.0288468
-0.156466
0.026705
-0.214453
0.0242417
-0.262371
0.0213817
-0.280518
0.0159974
-0.266791
0.0100103
-0.277657
0.00557973
-0.302266
0.00225346
-0.323539
-0.000531327
-0.334627
-0.00345179
-0.332184
-0.007158
-0.316959
-0.0121632
-0.294099
-0.0186846
-0.272749
-0.0233845
-0.272542
-0.0265175
-0.277975
-0.0290565
-0.247154
-0.0310634
-0.193728
-0.0329699
-0.136617
-0.0350185
-0.0888788
-0.0373471
-0.0550873
-0.0402412
-0.0341841
-0.0442826
-0.0229249
-0.0503316
-0.0180078
-0.0169993
-0.233256
-0.00413015
-0.251083
-0.0018516
-0.272231
0.00336469
-0.295174
0.017349
-0.316451
0.049634
-0.329685
0.113168
-0.324373
0.221516
-0.285664
0.38146
-0.197461
0.580357
-0.0553486
0.766731
0.107395
0.836926
0.233173
0.717219
0.303519
0.516959
0.329256
0.326176
0.326885
0.181923
0.309977
0.088825
0.287519
0.0366546
0.264808
0.0114321
0.24455
0.00109477
0.22784
-0.00270587
0.214863
-0.00478489
0.205212
-0.00748606
0.19798
-0.012053
0.191947
-0.020052
0.185883
-0.0342521
0.178597
-0.0581617
0.168701
-0.0944177
0.154491
-0.142257
0.134164
-0.194125
0.107327
-0.235534
0.0768272
-0.250018
0.0512723
-0.241236
0.0336855
-0.260071
0.0206039
-0.289185
0.00912698
-0.312062
-0.00194243
-0.323557
-0.0131044
-0.321022
-0.0249721
-0.305091
-0.0395617
-0.27951
-0.0627095
-0.249601
-0.0913674
-0.243884
-0.120474
-0.248869
-0.144534
-0.223093
-0.162011
-0.176251
-0.174076
-0.124552
-0.182542
-0.0804132
-0.188996
-0.0486325
-0.194714
-0.0284663
-0.200851
-0.0167883
-0.208628
-0.0102306
-0.006446
-0.365255
0.00909938
-0.382134
0.0150275
-0.401834
0.0230647
-0.421982
0.0374973
-0.437749
0.0654011
-0.440807
0.116225
-0.418675
0.199384
-0.355812
0.318597
-0.238303
0.462848
-0.0661928
0.594622
0.126327
0.644406
0.282771
0.560775
0.381642
0.418089
0.429538
0.27828
0.441843
0.169618
0.433435
0.0972334
0.415442
0.0546474
0.39496
0.0319145
0.375909
0.0201452
0.36008
0.0131232
0.347946
0.00734928
0.339119
0.00134136
0.332449
-0.00538323
0.326235
-0.0138385
0.318685
-0.0267018
0.307889
-0.0473657
0.291429
-0.0779579
0.266442
-0.11727
0.230079
-0.157761
0.181727
-0.187182
0.127348
-0.195639
0.0847715
-0.19866
0.0588854
-0.234185
0.0374842
-0.267784
0.0169153
-0.291493
-0.0037202
-0.302922
-0.0243681
-0.300374
-0.045133
-0.284326
-0.0683182
-0.256325
-0.100473
-0.217446
-0.148304
-0.196054
-0.201844
-0.195328
-0.24604
-0.178897
-0.277841
-0.144449
-0.299238
-0.103155
-0.313174
-0.0664766
-0.322412
-0.0393942
-0.32916
-0.0217186
-0.335208
-0.010741
-0.34231
-0.0031278
0.00326881
-0.449445
0.0200817
-0.463539
0.0291214
-0.479688
0.0392136
-0.495102
0.0529114
-0.504259
0.0745574
-0.497963
0.109929
-0.463239
0.164661
-0.385332
0.240689
-0.253187
0.330703
-0.0701992
0.411633
0.13161
0.442596
0.300847
0.391539
0.415429
0.303506
0.478149
0.215559
0.502215
0.145552
0.502283
0.0971653
0.490242
0.066689
0.474061
0.0480951
0.458287
0.0359196
0.445057
0.0263529
0.43504
0.0173667
0.427945
0.00843542
0.42251
5.18763e-05
0.416586
-0.00791393
0.407895
-0.0180105
0.39395
-0.0334211
0.371647
-0.0556547
0.337799
-0.0834219
0.28962
-0.109582
0.22701
-0.124572
0.16385
-0.132479
0.11996
-0.15477
0.088095
-0.20232
0.0577297
-0.237418
0.0262925
-0.260056
-0.00590064
-0.270729
-0.03796
-0.268315
-0.0691249
-0.253161
-0.0996684
-0.225781
-0.131666
-0.185449
-0.182487
-0.145233
-0.250106
-0.127709
-0.308691
-0.120313
-0.351727
-0.101413
-0.381238
-0.0736444
-0.40022
-0.0474949
-0.411976
-0.0276377
-0.419421
-0.0142734
-0.424878
-0.00528385
-0.430586
0.00257976
0.011146
-0.466529
0.0278423
-0.475647
0.0382398
-0.485294
0.0488604
-0.49313
0.0607474
-0.494307
0.0757349
-0.480628
0.0962496
-0.440613
0.124647
-0.36163
0.161707
-0.235129
0.204202
-0.0654781
0.241983
0.120333
0.256785
0.278968
0.232904
0.390746
0.191727
0.456463
0.149842
0.486865
0.11515
0.49473
0.0892999
0.490676
0.0707432
0.481822
0.0569493
0.472128
0.045614
0.463353
0.0351273
0.45602
0.0246996
0.44999
0.0144654
0.444378
0.00566426
0.437435
-0.000971394
0.426995
-0.00757044
0.410219
-0.0166443
0.383632
-0.0290684
0.344955
-0.0447449
0.295211
-0.0598377
0.23989
-0.0692512
0.192856
-0.0854454
0.159753
-0.121667
0.122402
-0.164968
0.0811177
-0.196134
0.0370762
-0.216015
-0.00831271
-0.22534
-0.0534001
-0.223228
-0.0965873
-0.209974
-0.136189
-0.186179
-0.171132
-0.150506
-0.209353
-0.107012
-0.260393
-0.0766693
-0.314304
-0.0664009
-0.360282
-0.0554356
-0.394589
-0.0393376
-0.417395
-0.0246883
-0.431618
-0.0134152
-0.440598
-0.00529349
-0.446859
0.000977791
-0.452414
0.00813488
0.0174995
-0.41045
0.0304845
-0.411115
0.0389044
-0.409609
0.0473549
-0.404935
0.0560729
-0.394501
0.0653014
-0.373486
0.0752343
-0.334766
0.0859266
-0.270192
0.0971328
-0.174023
0.108032
-0.0488732
0.116833
0.0877364
0.120176
0.205803
0.114837
0.29248
0.105051
0.348456
0.0938658
0.380878
0.0827281
0.397937
0.0722416
0.406154
0.062526
0.409636
0.0534668
0.410404
0.0448465
0.409114
0.0364169
0.405858
0.0279556
0.400855
0.0194686
0.394772
0.0117476
0.388239
0.00556107
0.380606
6.2562e-05
0.369619
-0.00565694
0.352356
-0.0118053
0.32629
-0.0186788
0.293779
-0.0273273
0.263782
-0.0392536
0.236574
-0.0582381
0.20233
-0.0874231
0.156737
-0.119375
0.104221
-0.143618
0.0477039
-0.159497
-0.0106858
-0.16695
-0.0686544
-0.165259
-0.123966
-0.154663
-0.174337
-0.135807
-0.21635
-0.108494
-0.247614
-0.0757471
-0.273924
-0.0503602
-0.305576
-0.0347489
-0.336783
-0.0242278
-0.359731
-0.0163898
-0.374577
-0.00984251
-0.384142
-0.0038501
-0.391186
0.00175019
-0.397527
0.00731877
-0.403321
0.0139293
0.0219865
-0.35558
0.0187377
-0.339493
0.0228167
-0.319096
0.0269583
-0.294258
0.0312343
-0.264642
0.0356863
-0.229692
0.0402836
-0.188645
0.0448799
-0.140684
0.0491719
-0.0853508
0.052699
-0.0234687
0.0549511
0.0411315
0.0555754
0.10149
0.0544786
0.154724
0.0518174
0.200583
0.0480071
0.239738
0.0435726
0.273038
0.0389415
0.301194
0.03437
0.324696
0.0299649
0.343813
0.0257301
0.358621
0.021609
0.369043
0.017533
0.374958
0.0135538
0.376683
0.0100221
0.37514
0.00710409
0.370867
0.00433639
0.363708
0.00150156
0.353315
-0.00141227
0.339339
-0.00470262
0.321448
-0.00943605
0.299584
-0.0173895
0.272018
-0.0306726
0.233515
-0.0489201
0.182295
-0.0681553
0.122014
-0.0833369
0.0560569
-0.0935402
-0.0125335
-0.0983598
-0.0805281
-0.0972643
-0.144769
-0.0904226
-0.202189
-0.0783874
-0.249172
-0.0615107
-0.283071
-0.0418474
-0.308044
-0.025388
-0.328554
-0.014238
-0.345141
-0.0076417
-0.357924
-0.00360628
-0.367249
-0.00051758
-0.37346
0.00236111
-0.376887
0.00517693
-0.377517
0.00794872
-0.374598
0.0110105
0.0147157
-0.343366
-0.326052
-0.304337
-0.278029
-0.246884
-0.210682
-0.169341
-0.123097
-0.0727072
-0.0195615
0.0343748
0.0869296
0.136257
0.181143
0.220999
0.255705
0.285403
0.310333
0.330729
0.346764
0.358549
0.366255
0.370375
0.371565
0.370111
0.366146
0.359863
0.351287
0.339665
0.32279
0.296531
0.256681
0.202233
0.136347
0.062914
-0.0140513
-0.0902126
-0.161342
-0.223511
-0.272892
-0.307399
-0.329827
-0.344594
-0.355089
-0.362949
-0.368563
-0.371793
-0.372461
-0.370431
-0.365303
)
;

boundaryField
{
    top
    {
        type            calculated;
        value           nonuniform List<scalar> 
51
(
0.00569717
0.00550222
0.00524377
0.00492563
0.00454164
0.00408131
0.00353892
0.0029286
0.00230888
0.00180537
0.00163904
0.00192394
0.00248976
0.00312079
0.00371689
0.00423551
0.00467184
0.00503475
0.00533442
0.00557448
0.00574793
0.00584772
0.0059021
0.00591365
0.00579036
0.00546676
0.00487054
0.00387339
0.00218661
-0.000515032
-0.00441374
-0.00906946
-0.0137079
-0.0174504
-0.0201074
-0.0213945
-0.021103
-0.0192933
-0.0162179
-0.0121298
-0.00734025
-0.00296083
0.000529263
0.00285391
0.00425372
0.00509623
0.00559126
0.00584498
0.00591791
0.00588291
0.00581935
)
;
    }
    bottom
    {
        type            calculated;
        value           uniform 0;
    }
    frontAndBack
    {
        type            empty;
        value           nonuniform 0();
    }
    left_cyc
    {
        type            cyclic;
        value           nonuniform List<scalar> 
15
(
-0.310455
-0.538868
-0.563639
-0.504028
-0.402437
-0.268055
-0.109152
0.0593085
0.219181
0.352025
0.438463
0.458768
0.407808
0.367327
0.356407
)
;
    }
    right_cyc
    {
        type            cyclic;
        value           nonuniform List<scalar> 
15
(
0.310455
0.538868
0.563639
0.504028
0.402437
0.268055
0.109152
-0.0593085
-0.219181
-0.352025
-0.438463
-0.458768
-0.407808
-0.367327
-0.356407
)
;
    }
}


// ************************************************************************* //
