/*--------------------------------*- C++ -*----------------------------------*\
| =========                 |                                                 |
| \\      /  F ield         | OpenFOAM: The Open Source CFD Toolbox           |
|  \\    /   O peration     | Version:  2.3.0                                 |
|   \\  /    A nd           | Web:      www.OpenFOAM.org                      |
|    \\/     M anipulation  |                                                 |
\*---------------------------------------------------------------------------*/
FoamFile
{
    version     2.0;
    format      ascii;
    class       surfaceScalarField;
    location    "13000";
    object      phi;
}
// * * * * * * * * * * * * * * * * * * * * * * * * * * * * * * * * * * * * * //

dimensions      [0 3 -1 0 0 0 0];

internalField   nonuniform List<scalar> 
1464
(
0.0242753
-0.0215486
0.044769
-0.0204936
0.0632711
-0.0185021
0.0788433
-0.0155722
0.0904969
-0.0116536
0.0970516
-0.00655469
0.0969991
5.2423e-05
0.0889301
0.00806902
0.0732814
0.0156487
0.0523016
0.0209798
0.0302254
0.0220762
0.0107742
0.0194512
-0.00680637
0.0175805
-0.0256242
0.0188178
-0.0472663
0.0216421
-0.0690378
0.0217715
-0.0860836
0.0170458
-0.0960246
0.00994101
-0.0978116
0.00178693
-0.0926342
-0.00517734
-0.0820511
-0.0105831
-0.0673101
-0.0147411
-0.0494242
-0.0178859
-0.0293309
-0.0200932
-0.00796224
-0.0213687
0.0137502
-0.0217125
0.03487
-0.0211198
0.0544654
-0.0195954
0.0716059
-0.0171405
0.0853468
-0.0137409
0.0946344
-0.00928761
0.0981386
-0.00350423
0.0942854
0.00385327
0.0822713
0.0120141
0.0637484
0.0185229
0.0414346
0.0223138
0.0204444
0.0209902
0.00225936
0.018185
-0.0154996
0.0177589
-0.0357269
0.0202273
-0.0581039
0.022377
-0.0779399
0.0198361
-0.0918506
0.0139107
-0.0977884
0.00593775
-0.0960021
-0.00178629
-0.0880259
-0.0079762
-0.0752811
-0.0127447
-0.0588805
-0.0164007
-0.0397885
-0.019092
-0.0189407
-0.0208477
-0.0216675
0.0269297
-0.045455
0.0494858
-0.0430497
0.0696057
-0.0386221
0.0863584
-0.0323249
0.0989971
-0.0242924
0.107028
-0.0145859
0.110314
-0.00323331
0.108725
0.00965847
0.100142
0.0242311
0.0813703
0.0397518
0.0530666
0.05038
0.0202924
0.0522253
-0.0129388
0.0508118
-0.0459714
0.0518504
-0.0758514
0.0515221
-0.0970102
0.0429303
-0.107723
0.0277586
-0.110583
0.0128007
-0.108379
-0.000417104
-0.101443
-0.0121129
-0.0898447
-0.0221814
-0.0739992
-0.0305866
-0.054599
-0.037286
-0.0325319
-0.0421603
-0.00884566
-0.0450549
0.0152873
-0.0458454
0.0386531
-0.0444856
0.0601072
-0.0410495
0.0786425
-0.0356758
0.0934197
-0.0285181
0.103809
-0.0196773
0.109488
-0.00918315
0.110435
0.00290639
0.105918
0.0165318
0.0925831
0.0318574
0.0687884
0.0461085
0.0374904
0.0522882
0.00433056
0.0513448
-0.0288726
0.0509621
-0.0611018
0.0524565
-0.0872892
0.0485644
-0.103318
0.035865
-0.109722
0.0203146
-0.110008
0.00622326
-0.10552
-0.00627345
-0.096292
-0.0172047
-0.0825536
-0.0264832
-0.0648715
-0.0340828
-0.0440421
-0.0399214
-0.0210374
-0.0438524
-0.0457282
0.0255217
-0.0681137
0.0467715
-0.0642995
0.0655049
-0.0573554
0.0808199
-0.0476398
0.092048
-0.0355205
0.0987602
-0.0212982
0.100718
-0.00519102
0.0977139
0.0126625
0.0896118
0.0323332
0.0761492
0.0532144
0.0541564
0.0723727
0.0221821
0.0841997
-0.0142712
0.0872651
-0.0478945
0.0854737
-0.072328
0.0759555
-0.0872275
0.0578298
-0.0964926
0.0370237
-0.100662
0.0169699
-0.0998229
-0.00125601
-0.0941935
-0.0177423
-0.0839867
-0.0323881
-0.0695776
-0.0449957
-0.0515759
-0.0552878
-0.0308271
-0.0629091
-0.00839088
-0.0674912
0.0145135
-0.0687498
0.0366153
-0.0665874
0.0567299
-0.061164
0.0738516
-0.0527975
0.0871966
-0.0418631
0.0962192
-0.0287
0.100599
-0.0135627
0.100136
0.00336873
0.094621
0.0220472
0.0839911
0.0424873
0.0671094
0.0629902
0.0399217
0.0794759
0.00481488
0.0864517
-0.0312302
0.0870072
-0.0609639
0.0821901
-0.0802426
0.0678431
-0.0922442
0.0478667
-0.0990511
0.0271216
-0.100772
0.00794374
-0.0975894
-0.00945562
-0.0897036
-0.0250905
-0.0773906
-0.0387962
-0.0611383
-0.050335
-0.041675
-0.0593846
-0.0199577
-0.0655698
-0.0685488
0.0224478
-0.0880466
0.0410124
-0.0828642
0.057138
-0.073481
0.0699671
-0.060469
0.0788781
-0.0444316
0.0834713
-0.0258914
0.0835311
-0.00525078
0.0790223
0.0171713
0.0703062
0.0410494
0.0579069
0.0656136
0.0411169
0.0891628
0.0174194
0.107897
-0.0113354
0.11602
-0.0366754
0.110814
-0.0547119
0.093992
-0.0679725
0.0710904
-0.077553
0.0466042
-0.0830766
0.0224935
-0.084071
-0.000261579
-0.080512
-0.0213013
-0.0725759
-0.0403241
-0.0606143
-0.0569574
-0.0451921
-0.07071
-0.0271089
-0.0809923
-0.0073865
-0.0872136
0.0127906
-0.0889269
0.0321882
-0.0859851
0.0496565
-0.0786322
0.0642295
-0.0673705
0.0751708
-0.0528044
0.0819754
-0.0355046
0.0843418
-0.0159291
0.0821368
0.00557375
0.0754775
0.0287064
0.0649304
0.0530344
0.0505896
0.077331
0.0308592
0.0992062
0.0038663
0.113445
-0.0243175
0.115191
-0.0460012
0.103874
-0.0615125
0.0833545
-0.0729792
0.0593333
-0.080687
0.0348293
-0.084045
0.0113018
-0.0828219
-0.0106787
-0.0771065
-0.030806
-0.0671569
-0.0487457
-0.0534259
-0.0640661
-0.0365938
-0.0762168
-0.0175752
-0.0845884
-0.0886388
0.0181766
-0.10419
0.0330751
-0.0977627
0.0457636
-0.0861695
0.0554912
-0.0701965
0.0617449
-0.0506853
0.0642368
-0.0283832
0.0628764
-0.0038904
0.057774
0.0222736
0.0493447
0.0494787
0.0382777
0.0766807
0.0252412
0.102199
0.0101407
0.122998
-0.00657129
0.132732
-0.0221737
0.126416
-0.0356212
0.10744
-0.0471851
0.0826543
-0.0562761
0.0556952
-0.062188
0.0284053
-0.0644253
0.00197571
-0.0628213
-0.0229053
-0.057422
-0.0457235
-0.0484657
-0.0659137
-0.0364085
-0.0827671
-0.0219436
-0.0954573
-0.00598754
-0.10317
0.0103827
-0.105297
0.0260429
-0.101645
0.0399497
-0.0925391
0.0512423
-0.0786632
0.0592916
-0.0608537
0.063702
-0.039915
0.064288
-0.0165151
0.0610541
0.0088077
0.054242
0.0355185
0.0444318
0.0628446
0.0323344
0.0894284
0.0183706
0.11317
0.0022326
0.129583
-0.0142964
0.13172
-0.0288171
0.118395
-0.041395
0.0959324
-0.0518562
0.0697946
-0.0594972
0.0424703
-0.0636718
0.0154764
-0.0640558
-0.0102947
-0.0605943
-0.0342675
-0.0534256
-0.0559145
-0.0428916
-0.0746001
-0.0295646
-0.0895437
-0.0142535
-0.0998995
-0.104925
0.0131296
-0.115855
0.0237492
-0.108382
0.0325291
-0.0949494
0.0388788
-0.0765463
0.042439
-0.0542455
0.0430744
-0.0290186
0.0408575
-0.00167358
0.0360662
0.0270649
0.0292135
0.0563315
0.0210438
0.0848504
0.0125092
0.110734
0.00454159
0.130965
-0.00292185
0.140195
-0.0107246
0.134219
-0.0192048
0.11592
-0.0275528
0.0910023
-0.034778
0.0629204
-0.0400961
0.0337235
-0.0429377
0.00481729
-0.0429746
-0.0228684
-0.0400877
-0.0486104
-0.0343619
-0.0716395
-0.0261015
-0.0910275
-0.0158418
-0.105717
-0.00433209
-0.114679
0.00752605
-0.117155
0.0187869
-0.112906
0.0285806
-0.102333
0.0362109
-0.0862935
0.0412042
-0.065847
0.0433166
-0.0420274
0.0425185
-0.0157169
0.0389819
0.0123443
0.0330938
0.0414066
0.0254869
0.0704515
0.0169952
0.0979201
0.00863339
0.121532
0.000987452
0.137229
-0.00653977
0.139247
-0.0147165
0.126571
-0.0232648
0.104481
-0.0311817
0.0777115
-0.0375742
0.0488628
-0.0417505
0.0196527
-0.0432625
-0.00878272
-0.0418859
-0.0356441
-0.0375993
-0.060201
-0.0305928
-0.0816066
-0.0212841
-0.0988524
-0.0103192
-0.110864
-0.11671
0.00757041
-0.122583
0.0135301
-0.114342
0.0181562
-0.0995755
0.0210641
-0.0794542
0.0220734
-0.0552547
0.021207
-0.0281522
0.0186831
0.000850334
0.0149059
0.0308421
0.0104469
0.0607905
0.00602448
0.0892728
0.00248132
0.114277
0.000531349
0.132915
-0.000328711
0.141055
-0.0019264
0.135816
-0.00516237
0.119156
-0.00947095
0.0953109
-0.0139939
0.0674433
-0.0179873
0.0377169
-0.020844
0.00767397
-0.0221203
-0.0215921
-0.0215548
-0.0491759
-0.0190782
-0.0741161
-0.0148222
-0.0952835
-0.00912327
-0.111416
-0.00250631
-0.121296
0.00436877
-0.12403
0.0108017
-0.119339
0.0161609
-0.107692
0.0199682
-0.0901008
0.0219414
-0.0678202
0.022003
-0.0420891
0.0202743
-0.0139882
0.0170661
0.0155525
0.012864
0.0456087
0.00831481
0.0750007
0.0041935
0.102041
0.00135596
0.124369
0.000107388
0.138477
-0.00088301
0.140238
-0.00327709
0.128965
-0.00713741
0.108341
-0.0116492
0.0822233
-0.0160018
0.0532153
-0.0195108
0.0231618
-0.021648
-0.00664554
-0.0220547
-0.0352374
-0.0205613
-0.0616944
-0.0171953
-0.0849727
-0.0121892
-0.103859
-0.00597644
-0.117077
-0.123528
0.00168411
-0.124085
0.00276275
-0.115421
0.00313755
-0.0999503
0.00266327
-0.07898
0.00134605
-0.0539375
-0.000652448
-0.0261537
-0.00301672
0.0032146
-0.00529327
0.0331187
-0.00693796
0.0624352
-0.00736576
0.0897006
-0.00603021
0.112941
-0.00270374
0.129589
0.00175129
0.1366
0.00545576
0.132112
0.00723597
0.117376
0.00715519
0.0953917
0.00572895
0.0688696
0.00354025
0.0399056
0.00114784
0.0100664
-0.000970664
-0.0194736
-0.00246617
-0.0476804
-0.00314115
-0.0734411
-0.0029533
-0.0954713
-0.00201289
-0.112356
-0.000570876
-0.122738
0.00101581
-0.125617
0.00235555
-0.120679
0.00311426
-0.108451
0.0030763
-0.0900628
0.00217134
-0.0669152
0.000482799
-0.0404005
-0.00175083
-0.0117546
-0.00414287
0.0179445
-0.00619213
0.047658
-0.00732714
0.0761357
-0.00697097
0.101685
-0.00466487
0.122063
-0.000595806
0.134408
0.00373246
0.135909
0.00656583
0.126132
0.00739942
0.107507
0.00659996
0.0830227
0.00473402
0.0550813
0.00238236
0.0255135
6.86509e-05
-0.00433183
-0.00178478
-0.033384
-0.00290054
-0.0605786
-0.00315649
-0.0847167
-0.00258554
-0.104429
-0.00136942
-0.118293
-0.125079
-0.00437742
-0.120203
-0.00827485
-0.111523
-0.0121433
-0.0960818
-0.0158685
-0.0752547
-0.019263
-0.0505431
-0.0220589
-0.0233578
-0.0239031
0.00505883
-0.0243744
0.03359
-0.023037
0.0610978
-0.0195145
0.0861781
-0.0136087
0.107036
-0.00554811
0.121528
0.00357715
0.127475
0.0120057
0.123683
0.0184349
0.110946
0.0224822
0.0913443
0.0242805
0.0670712
0.0241782
0.0400079
0.0226057
0.0116389
0.0199922
-0.0168601
0.0167088
-0.044397
0.0130424
-0.0697747
0.00919767
-0.0916266
0.00530503
-0.108464
0.00142444
-0.118858
-0.00244576
-0.121747
-0.00633199
-0.116793
-0.0102215
-0.104561
-0.0140361
-0.0862483
-0.0176262
-0.0633251
-0.0207666
-0.0372602
-0.0231477
-0.00937347
-0.0243788
0.0191757
-0.0240258
0.0473049
-0.0216704
0.0737803
-0.017004
0.097019
-0.00998722
0.115046
-0.0012124
0.125633
0.00779992
0.126897
0.0153682
0.118564
0.0206575
0.102218
0.0235883
0.0800919
0.02442
0.0542496
0.0235533
0.0263802
0.0214249
-0.00220345
0.0184435
-0.0304025
0.0149408
-0.0570759
0.0111629
-0.0809389
0.00727815
-0.100545
0.00338262
-0.114398
-0.121201
-0.0104478
-0.11093
-0.0192848
-0.102686
-0.0272908
-0.0880758
-0.034086
-0.0684595
-0.0393146
-0.0453145
-0.0426366
-0.0200357
-0.0437158
0.00613799
-0.0422275
0.0321016
-0.0379028
0.0567732
-0.0306119
0.0788872
-0.0204919
0.0969156
-0.00813204
0.109168
0.00523381
0.114109
0.0179496
0.110968
0.0286434
0.100253
0.0365946
0.0833932
0.0415838
0.062082
0.0436942
0.0378975
0.0431723
0.0121608
0.0403351
-0.0140229
0.0355179
-0.0395798
0.0290577
-0.0633144
0.0213039
-0.0838728
0.0126293
-0.0997891
0.00342483
-0.109653
-0.00591959
-0.112402
-0.015022
-0.10769
-0.0234904
-0.0960926
-0.0309373
-0.0788014
-0.0369968
-0.0572656
-0.0413248
-0.0329322
-0.0435856
-0.00711267
-0.0434457
0.0190358
-0.0406009
0.0444601
-0.0348365
0.0680159
-0.0261326
0.0883151
-0.0148158
0.10373
-0.00177116
0.112589
0.0114927
0.113633
0.0233686
0.106688
0.0327962
0.0927905
0.0393254
0.0735627
0.0429033
0.0506717
0.043706
0.0255774
0.0420222
-0.000519673
0.0381826
-0.0265629
0.0325234
-0.0514167
0.0253863
-0.0738019
0.017133
-0.0922913
0.00814809
-0.105413
-0.111879
-0.0163095
-0.096449
-0.0298834
-0.0891123
-0.041805
-0.0761542
-0.0514376
-0.0588269
-0.0582742
-0.0384779
-0.0619295
-0.0163804
-0.06212
0.00632847
-0.0586569
0.0286386
-0.0514698
0.0495861
-0.0406846
0.068102
-0.0267363
0.0829673
-0.0104847
0.0929167
0.00673933
0.0968853
0.0233407
0.0943662
0.0378994
0.0856938
0.0494498
0.0718428
0.0574719
0.0540599
0.0617813
0.0335881
0.0624131
0.0115291
0.0595337
-0.0111435
0.0534045
-0.0334506
0.044384
-0.0542939
0.032947
-0.0724359
0.0196981
-0.0865402
0.00535823
-0.0953134
-0.00927906
-0.0977651
-0.0234046
-0.0935646
-0.0362387
-0.0832586
-0.0470883
-0.0679517
-0.055384
-0.0489699
-0.0606845
-0.0276318
-0.0626592
-0.00513794
-0.0610718
0.0174483
-0.0557844
0.0391728
-0.046809
0.0590406
-0.034405
0.075911
-0.0191979
0.0885225
-0.00227779
0.0956685
0.0148506
0.0965048
0.0306225
0.0909159
0.0438235
0.0795894
0.0537142
0.063672
0.0599516
0.0444344
0.0624706
0.0230584
0.0613779
0.000573091
0.0568853
-0.0220703
0.0492998
-0.0438312
0.0390351
-0.0635372
0.0266308
-0.079887
0.0127542
-0.0915362
-0.0972961
-0.0216761
-0.0772019
-0.0395662
-0.0712223
-0.0550259
-0.0606945
-0.0671866
-0.0466662
-0.0754114
-0.030253
-0.0792859
-0.012506
-0.0785929
0.00563545
-0.0732891
0.0233348
-0.0635055
0.0398025
-0.0496083
0.0542047
-0.0322814
0.0656405
-0.0125834
0.0732186
0.00807934
0.0762225
0.0281279
0.0743177
0.0460964
0.0677253
0.0608429
0.0570963
0.0716033
0.0432995
0.0779479
0.0272435
0.0797001
0.00977687
0.076867
-0.00831047
0.0696231
-0.0262068
0.058333
-0.0430038
0.0435769
-0.0576798
0.0261669
-0.0691301
0.00712951
-0.076276
-0.0123576
-0.078278
-0.0310728
-0.0748494
-0.0478697
-0.0664617
-0.061775
-0.0540464
-0.0720391
-0.0387058
-0.0781418
-0.021529
-0.0797724
-0.00350735
-0.076804
0.0144799
-0.0692728
0.0316416
-0.0574129
0.0471807
-0.0417329
0.0602311
-0.0230926
0.0698821
-0.00272739
0.0753033
0.0178422
0.0759352
0.0370571
0.0717009
0.0535922
0.0630544
0.0664887
0.0507756
0.0751529
0.0357702
0.079288
0.0189233
0.0788125
0.00104855
0.0738092
-0.017067
0.0645418
-0.0345638
0.0514784
-0.0504738
0.0353141
-0.0637228
0.0169735
-0.0731955
-0.0778936
-0.0261975
-0.0539393
-0.0477128
-0.049707
-0.0661318
-0.0422755
-0.0803964
-0.0324016
-0.0897672
-0.0208823
-0.0938097
-0.00846348
-0.0923647
0.00419049
-0.0855144
0.0164845
-0.0735646
0.0278527
-0.057083
0.0377231
-0.0369465
0.0455041
-0.0143577
0.0506298
0.0092097
0.0526551
0.032156
0.0513714
0.0529639
0.0469174
0.0703636
0.0396966
0.0834057
0.0302574
0.0914578
0.0191914
0.0941601
0.00707461
0.0913814
-0.00553183
0.0832213
-0.0180467
0.0700454
-0.0298278
0.0525166
-0.0401511
0.031615
-0.0482285
0.00862262
-0.0532836
-0.0149525
-0.0547029
-0.0375289
-0.0522731
-0.0576471
-0.0463435
-0.0741016
-0.0375919
-0.0859979
-0.0268095
-0.0927554
-0.0147715
-0.094083
-0.00217978
-0.0899477
0.0103446
-0.0805375
0.0222314
-0.0662775
0.0329207
-0.0478781
0.0418317
-0.026373
0.048377
-0.00310551
0.0520358
0.0203682
0.0524615
0.0424634
0.0496057
0.061768
0.0437498
0.0771627
0.0353808
0.0878552
0.0250777
0.0933512
0.0134273
0.0934052
0.000994602
0.0879898
-0.0116517
0.0773302
-0.0239041
0.0619346
-0.0350782
0.0426223
-0.0444105
0.0205289
-0.0511022
-0.0544298
-0.0294995
-0.0277448
-0.053656
-0.0255504
-0.0742268
-0.0217047
-0.090023
-0.0166054
-0.100237
-0.010668
-0.104422
-0.00427839
-0.102455
0.00222262
-0.0944973
0.00852723
-0.0809818
0.0143372
-0.0626192
0.0193606
-0.0404198
0.0233046
-0.0156848
0.0258948
0.0100536
0.0269167
0.0351559
0.0262691
0.0580537
0.0240196
0.0773877
0.0203626
0.0920817
0.0155634
0.10136
0.00991326
0.104731
0.00370383
0.10197
-0.00277103
0.093131
-0.00920784
0.0785809
-0.0152777
0.0590364
-0.0206066
0.0355925
-0.0247847
0.0097136
-0.0274046
-0.016848
-0.0281412
-0.0422407
-0.0268804
-0.0647755
-0.0238087
-0.0830831
-0.0192843
-0.0961713
-0.0137213
-0.103421
-0.00752232
-0.104551
-0.00104882
-0.0995886
0.00538167
-0.0888253
0.0114681
-0.0728244
0.0169198
-0.0524382
0.0214454
-0.0288186
0.0247574
-0.00338708
0.0266043
0.0222554
0.0268191
0.0464831
0.0253779
0.067816
0.0224169
0.085026
0.0181708
0.0971821
0.0129216
0.103648
0.00696139
0.104062
0.000580939
0.0983279
-0.00591798
0.0866482
-0.0122244
0.0695564
-0.0179865
0.0479544
-0.0228085
0.0231256
-0.0262733
-0.0279993
-0.0312455
-0.0567959
-0.0785006
-0.095106
-0.105774
-0.110052
-0.10783
-0.0993025
-0.0849653
-0.0656048
-0.0423002
-0.0164054
0.0105113
0.0367805
0.0608001
0.0811626
0.096726
0.106639
0.110343
0.107572
0.0983643
0.0830866
0.06248
0.0376953
0.0102907
-0.0178505
-0.0447309
-0.0685396
-0.0878239
-0.101545
-0.109067
-0.110116
-0.104735
-0.0932665
-0.0763467
-0.0549013
-0.0301439
-0.00353954
0.0232795
0.0486574
0.0710744
0.0892452
0.102167
0.109128
0.109709
0.103791
0.0915668
0.0735803
0.0507718
0.0244986
)
;

boundaryField
{
    top
    {
        type            calculated;
        value           nonuniform List<scalar> 
51
(
0
0
0
0
0
0
0
0
0
0
0
0
0
0
0
0
0
0
0
0
0
0
0
0
4.33681e-19
0
0
0
0
0
0
0
0
0
0
0
0
0
0
0
0
0
0
0
0
0
0
0
0
0
0
)
;
    }
    bottom
    {
        type            calculated;
        value           uniform 0;
    }
    frontAndBack
    {
        type            empty;
        value           nonuniform 0();
    }
    left_cyc
    {
        type            cyclic;
        value           nonuniform List<scalar> 
15
(
-0.00272671
-0.00302338
-0.00286293
-0.00251484
-0.002033
-0.00146529
-0.000841487
-0.000182303
0.00049556
0.00117395
0.00182899
0.00242898
0.00293494
0.00330491
0.00350075
)
;
    }
    right_cyc
    {
        type            cyclic;
        value           nonuniform List<scalar> 
15
(
0.00272671
0.00302338
0.00286293
0.00251484
0.002033
0.00146529
0.000841487
0.000182303
-0.00049556
-0.00117395
-0.00182899
-0.00242898
-0.00293494
-0.00330491
-0.00350075
)
;
    }
}


// ************************************************************************* //
