/*--------------------------------*- C++ -*----------------------------------*\
| =========                 |                                                 |
| \\      /  F ield         | OpenFOAM: The Open Source CFD Toolbox           |
|  \\    /   O peration     | Version:  2.3.0                                 |
|   \\  /    A nd           | Web:      www.OpenFOAM.org                      |
|    \\/     M anipulation  |                                                 |
\*---------------------------------------------------------------------------*/
FoamFile
{
    version     2.0;
    format      ascii;
    class       surfaceScalarField;
    location    "13000";
    object      phi;
}
// * * * * * * * * * * * * * * * * * * * * * * * * * * * * * * * * * * * * * //

dimensions      [0 3 -1 0 0 0 0];

internalField   nonuniform List<scalar> 
5988
(
3.59635e-08
-3.17728e-08
6.71935e-08
-3.123e-08
9.74227e-08
-3.02292e-08
1.26226e-07
-2.88031e-08
1.53219e-07
-2.69936e-08
1.7807e-07
-2.48507e-08
2.00498e-07
-2.24281e-08
2.20274e-07
-1.97758e-08
2.372e-07
-1.69256e-08
2.5107e-07
-1.38707e-08
2.61619e-07
-1.05484e-08
2.68457e-07
-6.83852e-09
2.71042e-07
-2.58441e-09
2.68691e-07
2.35019e-09
2.60713e-07
7.97792e-09
2.46662e-07
1.40519e-08
2.26619e-07
2.00423e-08
2.01326e-07
2.52934e-08
1.72278e-07
2.90483e-08
1.41491e-07
3.0787e-08
1.10921e-07
3.05693e-08
8.21619e-08
2.87595e-08
5.60235e-08
2.61384e-08
3.24212e-08
2.36023e-08
1.05861e-08
2.1835e-08
-1.06192e-08
2.12053e-08
-3.24427e-08
2.18235e-08
-5.60213e-08
2.35785e-08
-8.2122e-08
2.61008e-08
-1.10827e-07
2.87051e-08
-1.4132e-07
3.04925e-08
-1.71999e-07
3.06795e-08
-2.00899e-07
2.88996e-08
-2.25995e-07
2.50964e-08
-2.45787e-07
1.97915e-08
-2.59525e-07
1.37387e-08
-2.67127e-07
7.60152e-09
-2.69046e-07
1.91902e-09
-2.65984e-07
-3.06143e-09
-2.58627e-07
-7.35728e-09
-2.47521e-07
-1.11063e-08
-2.33058e-07
-1.44627e-08
-2.15516e-07
-1.75421e-08
-1.95114e-07
-2.04019e-08
-1.72069e-07
-2.30447e-08
-1.46632e-07
-2.54369e-08
-1.19104e-07
-2.75284e-08
-8.98374e-08
-2.92666e-08
-5.92338e-08
-3.06036e-08
-2.77343e-08
-3.14995e-08
4.18982e-09
-3.19241e-08
3.60494e-08
-3.18596e-08
6.73587e-08
-3.13093e-08
9.76532e-08
-3.02946e-08
1.26501e-07
-2.88482e-08
1.53514e-07
-2.70126e-08
1.78351e-07
-2.48372e-08
2.00726e-07
-2.23748e-08
2.20399e-07
-1.96729e-08
2.37157e-07
-1.67577e-08
2.5077e-07
-1.36135e-08
2.60937e-07
-1.01673e-08
2.67227e-07
-6.29015e-09
2.69053e-07
-1.82504e-09
2.65707e-07
3.34596e-09
2.56523e-07
9.1835e-09
2.41163e-07
1.53605e-08
2.19876e-07
2.12862e-08
1.93606e-07
2.62706e-08
1.64036e-07
2.957e-08
1.33222e-07
3.08139e-08
1.03072e-07
3.01505e-08
7.50086e-08
2.80629e-08
4.96107e-08
2.5398e-08
2.65865e-08
2.30241e-08
5.04259e-09
2.1544e-08
-1.62085e-08
2.12511e-08
-3.84071e-08
2.21986e-08
-6.26229e-08
2.42158e-08
-8.94756e-08
2.68527e-08
-1.18825e-07
2.93496e-08
-1.49631e-07
3.08059e-08
-1.8016e-07
3.05293e-08
-2.08407e-07
2.82469e-08
-2.32436e-07
2.40286e-08
-2.50948e-07
1.85123e-08
-2.63388e-07
1.24397e-08
-2.6983e-07
6.44215e-09
-2.70814e-07
9.83789e-10
-2.6705e-07
-3.76389e-09
-2.5919e-07
-7.85968e-09
-2.47737e-07
-1.14535e-08
-2.33041e-07
-1.46962e-08
-2.15347e-07
-1.76938e-08
-1.94854e-07
-2.04933e-08
-1.71764e-07
-2.30893e-08
-1.46321e-07
-2.54436e-08
-1.18817e-07
-2.7504e-08
-8.95995e-08
-2.92173e-08
-5.90642e-08
-3.05352e-08
-2.76459e-08
-3.14183e-08
-3.18366e-08
5.43256e-08
-7.97795e-08
1.01951e-07
-7.88552e-08
1.48872e-07
-7.71508e-08
1.94795e-07
-7.47257e-08
2.39449e-07
-7.16476e-08
2.82568e-07
-6.79701e-08
3.23849e-07
-6.37085e-08
3.62893e-07
-5.882e-08
3.99162e-07
-5.31949e-08
4.31949e-07
-4.66572e-08
4.60368e-07
-3.89671e-08
4.8335e-07
-2.98203e-08
4.99623e-07
-1.88575e-08
5.07684e-07
-5.71083e-09
5.05848e-07
9.8138e-09
4.92518e-07
2.73817e-08
4.66609e-07
4.59507e-08
4.28016e-07
6.38865e-08
3.78267e-07
7.87972e-08
3.20653e-07
8.84016e-08
2.59071e-07
9.21516e-08
1.97193e-07
9.06368e-08
1.37532e-07
8.57994e-08
8.09248e-08
8.02098e-08
2.67421e-08
7.60178e-08
-2.65241e-08
7.44715e-08
-8.06623e-08
7.59616e-08
-1.37179e-07
8.00952e-08
-1.967e-07
8.56216e-08
-2.58381e-07
9.03868e-08
-3.19702e-07
9.18131e-08
-3.76973e-07
8.79511e-08
-4.26283e-07
7.82094e-08
-4.64341e-07
6.3154e-08
-4.89633e-07
4.50837e-08
-5.02283e-07
2.6389e-08
-5.03395e-07
8.71336e-09
-4.94585e-07
-6.89134e-09
-4.77551e-07
-2.00957e-08
-4.53806e-07
-3.11016e-08
-4.24636e-07
-4.02768e-08
-3.9112e-07
-4.7979e-08
-3.54151e-07
-5.45105e-08
-3.14443e-07
-6.01103e-08
-2.72535e-07
-6.49523e-08
-2.28829e-07
-6.91435e-08
-1.83634e-07
-7.27231e-08
-1.37227e-07
-7.56733e-08
-8.98903e-08
-7.79406e-08
-4.19292e-08
-7.94606e-08
6.32676e-09
-8.01801e-08
5.45383e-08
-8.00711e-08
1.02367e-07
-7.91381e-08
1.49489e-07
-7.74165e-08
1.95605e-07
-7.49641e-08
2.40437e-07
-7.18449e-08
2.83705e-07
-6.81054e-08
3.25081e-07
-6.375e-08
3.6413e-07
-5.87223e-08
4.0027e-07
-5.28975e-08
4.32741e-07
-4.60843e-08
4.606e-07
-3.80271e-08
4.82718e-07
-2.84075e-08
4.97752e-07
-1.6859e-08
5.04129e-07
-3.03074e-09
5.00133e-07
1.31791e-08
4.84242e-07
3.12511e-08
4.55558e-07
4.99703e-08
4.1432e-07
6.7509e-08
3.62553e-07
8.13366e-08
3.03833e-07
8.95337e-08
2.42097e-07
9.18869e-08
1.80804e-07
8.93558e-08
1.22058e-07
8.41443e-08
6.62716e-08
7.88101e-08
1.25276e-08
7.52879e-08
-4.08088e-08
7.45875e-08
-9.55068e-08
7.68966e-08
-1.52906e-07
8.16146e-08
-2.13299e-07
8.7246e-08
-2.75403e-07
9.14537e-08
-3.36329e-07
9.17322e-08
-3.92251e-07
8.64508e-08
-4.39332e-07
7.53281e-08
-4.74664e-07
5.93607e-08
-4.97209e-07
4.10572e-08
-5.07387e-07
2.26173e-08
-5.06456e-07
5.51149e-09
-4.96079e-07
-9.39356e-09
-4.77907e-07
-2.19357e-08
-4.53381e-07
-3.23851e-08
-4.23718e-07
-4.11164e-08
-3.89938e-07
-4.8477e-08
-3.52877e-07
-5.47542e-08
-3.13199e-07
-6.01713e-08
-2.71401e-07
-6.48871e-08
-2.27851e-07
-6.89936e-08
-1.82839e-07
-7.25169e-08
-1.36626e-07
-7.54295e-08
-8.94899e-08
-7.76716e-08
-4.17323e-08
-7.91759e-08
-7.98879e-08
6.08883e-08
-1.33584e-07
1.14196e-07
-1.32163e-07
1.66572e-07
-1.29526e-07
2.17581e-07
-1.25735e-07
2.66787e-07
-1.20853e-07
3.13738e-07
-1.14921e-07
3.57962e-07
-1.07933e-07
3.98961e-07
-9.98187e-08
4.36211e-07
-9.04445e-08
4.69178e-07
-7.96241e-08
4.97342e-07
-6.71315e-08
5.20235e-07
-5.27131e-08
5.37477e-07
-3.61e-08
5.48785e-07
-1.70189e-08
5.53753e-07
4.84577e-09
5.51198e-07
2.9937e-08
5.38591e-07
5.85576e-08
5.12719e-07
8.97589e-08
4.71157e-07
1.20359e-07
4.13864e-07
1.45694e-07
3.44339e-07
1.61677e-07
2.6825e-07
1.66725e-07
1.90397e-07
1.63652e-07
1.13405e-07
1.57202e-07
3.78096e-08
1.51613e-07
-3.71549e-08
1.49436e-07
-1.12672e-07
1.51479e-07
-1.89507e-07
1.5693e-07
-2.67121e-07
1.63236e-07
-3.42888e-07
1.66154e-07
-4.12003e-07
1.60928e-07
-4.68799e-07
1.44747e-07
-5.09795e-07
1.19205e-07
-5.35059e-07
8.84178e-08
-5.47043e-07
5.70681e-08
-5.4898e-07
2.83259e-08
-5.43385e-07
3.11843e-09
-5.31416e-07
-1.88605e-08
-5.13468e-07
-3.80437e-08
-4.89832e-07
-5.47375e-08
-4.609e-07
-6.92089e-08
-4.27156e-07
-8.17228e-08
-3.89135e-07
-9.25314e-08
-3.47385e-07
-1.0186e-07
-3.02444e-07
-1.09894e-07
-2.54823e-07
-1.16765e-07
-2.05007e-07
-1.22539e-07
-1.5346e-07
-1.2722e-07
-1.00631e-07
-1.30769e-07
-4.69665e-08
-1.33125e-07
7.08755e-09
-1.34234e-07
6.10829e-08
-1.34066e-07
1.14572e-07
-1.32627e-07
1.67108e-07
-1.29953e-07
2.18246e-07
-1.26102e-07
2.67532e-07
-1.21131e-07
3.14499e-07
-1.15072e-07
3.58654e-07
-1.07906e-07
3.99479e-07
-9.95472e-08
4.36432e-07
-8.985e-08
4.68964e-07
-7.86167e-08
4.96551e-07
-6.56137e-08
5.18727e-07
-5.05841e-08
5.35131e-07
-3.32622e-08
5.45478e-07
-1.33783e-08
5.49258e-07
9.39899e-09
5.44981e-07
3.55281e-08
5.29824e-07
6.51274e-08
5.00603e-07
9.67306e-08
4.55336e-07
1.26603e-07
3.94825e-07
1.50045e-07
3.23415e-07
1.63297e-07
2.46778e-07
1.65993e-07
1.69208e-07
1.61714e-07
9.27357e-08
1.55282e-07
1.74678e-08
1.50556e-07
-5.75512e-08
1.49606e-07
-1.33476e-07
1.52822e-07
-2.10821e-07
1.58959e-07
-2.8856e-07
1.64985e-07
-3.63461e-07
1.66355e-07
-4.30301e-07
1.58573e-07
-4.83651e-07
1.39801e-07
-5.20965e-07
1.12642e-07
-5.43058e-07
8.14542e-08
-5.52718e-07
5.0717e-08
-5.53108e-07
2.30072e-08
-5.46407e-07
-1.18951e-09
-5.33513e-07
-2.22877e-08
-5.14755e-07
-4.06937e-08
-4.90435e-07
-5.67044e-08
-4.6096e-07
-7.05914e-08
-4.26816e-07
-8.26211e-08
-3.8853e-07
-9.3041e-08
-3.46633e-07
-1.02068e-07
-3.01644e-07
-1.09876e-07
-2.54056e-07
-1.16582e-07
-2.04333e-07
-1.2224e-07
-1.52922e-07
-1.2684e-07
-1.00259e-07
-1.30335e-07
-4.67785e-08
-1.32657e-07
-1.3375e-07
6.3706e-08
-1.89876e-07
1.19361e-07
-1.87818e-07
1.7382e-07
-1.83985e-07
2.26528e-07
-1.78443e-07
2.76934e-07
-1.71259e-07
3.24494e-07
-1.62481e-07
3.68675e-07
-1.52115e-07
4.08967e-07
-1.4011e-07
4.44887e-07
-1.26365e-07
4.75998e-07
-1.10735e-07
5.01912e-07
-9.30461e-08
5.22306e-07
-7.31068e-08
5.36916e-07
-5.071e-08
5.45513e-07
-2.56154e-08
5.47845e-07
2.51364e-09
5.43628e-07
3.4154e-08
5.32561e-07
6.96244e-08
5.13863e-07
1.08457e-07
4.84929e-07
1.49293e-07
4.41254e-07
1.89369e-07
3.80261e-07
2.2267e-07
3.04454e-07
2.42533e-07
2.20186e-07
2.4792e-07
1.32738e-07
2.4465e-07
4.46272e-08
2.39724e-07
-4.34766e-08
2.3754e-07
-1.31484e-07
2.39486e-07
-2.18731e-07
2.44176e-07
-3.02706e-07
2.47212e-07
-3.78144e-07
2.41592e-07
-4.38706e-07
2.2149e-07
-4.81915e-07
1.87955e-07
-5.10374e-07
1.47665e-07
-5.28585e-07
1.06629e-07
-5.39128e-07
6.76106e-08
-5.42771e-07
3.19688e-08
-5.39815e-07
1.62891e-10
-5.30547e-07
-2.81287e-08
-5.15218e-07
-5.33723e-08
-4.94064e-07
-7.58916e-08
-4.67357e-07
-9.59165e-08
-4.35433e-07
-1.13647e-07
-3.98694e-07
-1.2927e-07
-3.57597e-07
-1.42957e-07
-3.1264e-07
-1.5485e-07
-2.64355e-07
-1.6505e-07
-2.13293e-07
-1.73601e-07
-1.60016e-07
-1.80498e-07
-1.05092e-07
-1.85694e-07
-4.90919e-08
-1.89125e-07
7.40955e-09
-1.90736e-07
6.38353e-08
-1.90492e-07
1.19609e-07
-1.884e-07
1.74156e-07
-1.845e-07
2.26908e-07
-1.78853e-07
2.77297e-07
-1.7152e-07
3.24762e-07
-1.62538e-07
3.68757e-07
-1.51901e-07
4.08759e-07
-1.39549e-07
4.44277e-07
-1.25368e-07
4.7487e-07
-1.09209e-07
5.0015e-07
-9.08942e-08
5.19799e-07
-7.02335e-08
5.3356e-07
-4.70225e-08
5.41197e-07
-2.10155e-08
5.42448e-07
8.14805e-09
5.37027e-07
4.09493e-08
5.24592e-07
7.75619e-08
5.04049e-07
1.17274e-07
4.72165e-07
1.58487e-07
4.2448e-07
1.9773e-07
3.59544e-07
2.28234e-07
2.81223e-07
2.44313e-07
1.95994e-07
2.46943e-07
1.08405e-07
2.42872e-07
2.03508e-08
2.3861e-07
-6.77671e-08
2.37724e-07
-1.5582e-07
2.40875e-07
-2.42784e-07
2.45924e-07
-3.2545e-07
2.47651e-07
-3.97915e-07
2.3882e-07
-4.54371e-07
2.15028e-07
-4.93766e-07
1.79196e-07
-5.19612e-07
1.38487e-07
-5.36155e-07
9.79973e-08
-5.45385e-07
5.99472e-08
-5.47855e-07
2.54769e-08
-5.4385e-07
-5.19412e-09
-5.33652e-07
-3.24864e-08
-5.17499e-07
-5.68461e-08
-4.95627e-07
-7.85767e-08
-4.68312e-07
-9.79058e-08
-4.35898e-07
-1.15036e-07
-3.98784e-07
-1.30155e-07
-3.57422e-07
-1.4343e-07
-3.12302e-07
-1.54996e-07
-2.63942e-07
-1.64943e-07
-2.12877e-07
-1.73304e-07
-1.59655e-07
-1.80062e-07
-1.04828e-07
-1.85162e-07
-4.89513e-08
-1.88533e-07
-1.90116e-07
6.428e-08
-2.46672e-07
1.20335e-07
-2.43873e-07
1.75001e-07
-2.38652e-07
2.27643e-07
-2.31085e-07
2.77642e-07
-2.21259e-07
3.24407e-07
-2.09246e-07
3.6738e-07
-1.95087e-07
4.06049e-07
-1.78778e-07
4.39954e-07
-1.6027e-07
4.68692e-07
-1.39473e-07
4.91917e-07
-1.16271e-07
5.09333e-07
-9.05228e-08
5.2069e-07
-6.20669e-08
5.25782e-07
-3.07077e-08
5.24489e-07
3.80698e-09
5.16877e-07
4.1766e-08
5.03206e-07
8.32953e-08
4.8358e-07
1.28083e-07
4.57473e-07
1.754e-07
4.23035e-07
2.23807e-07
3.75806e-07
2.69899e-07
3.11213e-07
3.07126e-07
2.30842e-07
3.2829e-07
1.41315e-07
3.34178e-07
4.79548e-08
3.33084e-07
-4.6362e-08
3.31857e-07
-1.39613e-07
3.32737e-07
-2.28936e-07
3.33499e-07
-3.09032e-07
3.27308e-07
-3.73306e-07
3.05865e-07
-4.20188e-07
2.68372e-07
-4.54257e-07
2.22024e-07
-4.79961e-07
1.73369e-07
-4.99139e-07
1.25807e-07
-5.12306e-07
8.07777e-08
-5.19351e-07
3.90135e-08
-5.20015e-07
8.26783e-10
-5.14238e-07
-3.39057e-08
-5.02147e-07
-6.54627e-08
-4.83955e-07
-9.40834e-08
-4.59921e-07
-1.19951e-07
-4.30351e-07
-1.43217e-07
-3.95607e-07
-1.64014e-07
-3.5611e-07
-1.82454e-07
-3.12341e-07
-1.98619e-07
-2.64834e-07
-2.12557e-07
-2.14169e-07
-2.24266e-07
-1.60959e-07
-2.33707e-07
-1.05845e-07
-2.40808e-07
-4.94799e-08
-2.4549e-07
7.4689e-09
-2.47684e-07
6.43295e-08
-2.47353e-07
1.20431e-07
-2.44502e-07
1.75109e-07
-2.39179e-07
2.27713e-07
-2.31457e-07
2.77608e-07
-2.21415e-07
3.2419e-07
-2.0912e-07
3.66889e-07
-1.946e-07
4.05184e-07
-1.77844e-07
4.3861e-07
-1.58794e-07
4.66761e-07
-1.3736e-07
4.89291e-07
-1.13424e-07
5.05906e-07
-8.68481e-08
5.16358e-07
-5.74749e-08
5.20452e-07
-2.51094e-08
5.18097e-07
1.05028e-08
5.09417e-07
4.96292e-08
4.94679e-07
9.22995e-08
4.73874e-07
1.38079e-07
4.46238e-07
1.86123e-07
4.09361e-07
2.34607e-07
3.58178e-07
2.79417e-07
2.89292e-07
3.13199e-07
2.06107e-07
3.30128e-07
1.15362e-07
3.33617e-07
2.16203e-08
3.32352e-07
-7.26453e-08
3.3199e-07
-1.65353e-07
3.33583e-07
-2.53113e-07
3.33684e-07
-3.29903e-07
3.2444e-07
-3.89783e-07
2.987e-07
-4.33078e-07
2.58323e-07
-4.65022e-07
2.1114e-07
-4.89324e-07
1.62789e-07
-5.07369e-07
1.16042e-07
-5.19474e-07
7.20526e-08
-5.25447e-07
3.14499e-08
-5.2506e-07
-5.58119e-09
-5.18306e-07
-3.92409e-08
-5.05335e-07
-6.98169e-08
-4.86367e-07
-9.7545e-08
-4.61662e-07
-1.2261e-07
-4.3153e-07
-1.45168e-07
-3.96332e-07
-1.65353e-07
-3.56485e-07
-1.83276e-07
-3.12464e-07
-1.99017e-07
-2.64793e-07
-2.12613e-07
-2.14041e-07
-2.24057e-07
-1.60806e-07
-2.33297e-07
-1.05713e-07
-2.40255e-07
-4.93993e-08
-2.44847e-07
-2.46999e-07
6.30912e-08
-3.02416e-07
1.18022e-07
-2.98804e-07
1.71432e-07
-2.92062e-07
2.22635e-07
-2.82288e-07
2.70975e-07
-2.69599e-07
3.15836e-07
-2.54107e-07
3.56654e-07
-2.35905e-07
3.92923e-07
-2.15048e-07
4.24206e-07
-1.91553e-07
4.50128e-07
-1.65396e-07
4.70379e-07
-1.36522e-07
4.84703e-07
-1.04846e-07
4.92896e-07
-7.02606e-08
4.9482e-07
-3.26311e-08
4.90435e-07
8.19163e-09
4.79872e-07
5.23295e-08
4.63429e-07
9.97379e-08
4.41453e-07
1.50059e-07
4.14219e-07
2.02634e-07
3.81559e-07
2.56467e-07
3.41669e-07
3.09789e-07
2.90021e-07
3.58774e-07
2.21865e-07
3.96446e-07
1.38916e-07
4.17128e-07
4.77403e-08
4.24259e-07
-4.58387e-08
4.25436e-07
-1.36922e-07
4.2382e-07
-2.1971e-07
4.16287e-07
-2.8766e-07
3.95258e-07
-3.39065e-07
3.57271e-07
-3.78673e-07
3.0798e-07
-4.11006e-07
2.54358e-07
-4.37863e-07
2.00225e-07
-4.59403e-07
1.47347e-07
-4.75348e-07
9.6723e-08
-4.85351e-07
4.90162e-08
-4.89113e-07
4.58879e-09
-4.86511e-07
-3.65082e-08
-4.77588e-07
-7.43856e-08
-4.62492e-07
-1.09179e-07
-4.41434e-07
-1.41009e-07
-4.14682e-07
-1.69969e-07
-3.82563e-07
-1.96133e-07
-3.45468e-07
-2.19548e-07
-3.03859e-07
-2.40228e-07
-2.58264e-07
-2.58151e-07
-2.09273e-07
-2.73257e-07
-1.57525e-07
-2.85454e-07
-1.03701e-07
-2.94632e-07
-4.85093e-08
-3.00682e-07
7.32287e-09
-3.03516e-07
6.30583e-08
-3.03088e-07
1.17962e-07
-2.99405e-07
1.71309e-07
-2.92526e-07
2.22399e-07
-2.82546e-07
2.7056e-07
-2.69577e-07
3.15165e-07
-2.53724e-07
3.55639e-07
-2.35074e-07
3.91471e-07
-2.13676e-07
4.22219e-07
-1.89542e-07
4.47507e-07
-1.62648e-07
4.67025e-07
-1.32942e-07
4.8052e-07
-1.00343e-07
4.87796e-07
-6.47511e-08
4.88728e-07
-2.60408e-08
4.83308e-07
1.59227e-08
4.71712e-07
6.12253e-08
4.54266e-07
1.09746e-07
4.31309e-07
1.61035e-07
4.03072e-07
2.1436e-07
3.69105e-07
2.68574e-07
3.26954e-07
3.21568e-07
2.71484e-07
3.68669e-07
1.99167e-07
4.02445e-07
1.13542e-07
4.19241e-07
2.13125e-08
4.24581e-07
-7.21143e-08
4.25417e-07
-1.61768e-07
4.23236e-07
-2.41398e-07
4.13314e-07
-3.05066e-07
3.88107e-07
-3.53047e-07
3.46681e-07
-3.90717e-07
2.95994e-07
-4.2187e-07
2.42294e-07
-4.47741e-07
1.8866e-07
-4.68295e-07
1.36597e-07
-4.83229e-07
8.69857e-08
-4.92193e-07
4.04142e-08
-4.94925e-07
-2.84896e-09
-4.91346e-07
-4.28205e-08
-4.81525e-07
-7.96375e-08
-4.65622e-07
-1.13448e-07
-4.43854e-07
-1.44378e-07
-4.16491e-07
-1.72531e-07
-3.83859e-07
-1.97985e-07
-3.46349e-07
-2.20786e-07
-3.04417e-07
-2.40949e-07
-2.58585e-07
-2.58446e-07
-2.09431e-07
-2.73211e-07
-1.57582e-07
-2.85145e-07
-1.03705e-07
-2.94133e-07
-4.84916e-08
-3.0006e-07
-3.02838e-07
6.04565e-08
-3.5583e-07
1.13015e-07
-3.51362e-07
1.63977e-07
-3.43024e-07
2.12631e-07
-3.30941e-07
2.58304e-07
-3.15272e-07
3.00378e-07
-2.96181e-07
3.38294e-07
-2.73822e-07
3.71567e-07
-2.4832e-07
3.99781e-07
-2.19767e-07
4.22597e-07
-1.88212e-07
4.39741e-07
-1.53666e-07
4.51004e-07
-1.16109e-07
4.56237e-07
-7.54941e-08
4.55369e-07
-3.17631e-08
4.4843e-07
1.51313e-08
4.35586e-07
6.5173e-08
4.1714e-07
1.18185e-07
3.93455e-07
1.73744e-07
3.64911e-07
2.31178e-07
3.31819e-07
2.89559e-07
2.94025e-07
3.47583e-07
2.49675e-07
4.03124e-07
1.94326e-07
4.51795e-07
1.24561e-07
4.86893e-07
4.35054e-08
5.05315e-07
-4.14683e-08
5.10409e-07
-1.22465e-07
5.04817e-07
-1.92126e-07
4.85948e-07
-2.47325e-07
4.50457e-07
-2.91473e-07
4.01419e-07
-3.29014e-07
3.45522e-07
-3.61801e-07
2.87145e-07
-3.89984e-07
2.28408e-07
-4.13249e-07
1.70612e-07
-4.31215e-07
1.14689e-07
-4.43516e-07
6.13173e-08
-4.49853e-07
1.09256e-08
-4.50062e-07
-3.62991e-08
-4.44119e-07
-8.03287e-08
-4.32104e-07
-1.21195e-07
-4.14172e-07
-1.5894e-07
-3.90547e-07
-1.93594e-07
-3.61517e-07
-2.25164e-07
-3.27442e-07
-2.53623e-07
-2.88758e-07
-2.78912e-07
-2.45979e-07
-3.00931e-07
-1.99686e-07
-3.1955e-07
-1.50525e-07
-3.34615e-07
-9.91943e-08
-3.45963e-07
-4.64289e-08
-3.53448e-07
7.00908e-09
-3.56954e-07
6.03454e-08
-3.56425e-07
1.12808e-07
-3.51867e-07
1.6364e-07
-3.43358e-07
2.12114e-07
-3.31021e-07
2.57547e-07
-3.15009e-07
2.99306e-07
-2.95484e-07
3.36828e-07
-2.72596e-07
3.6962e-07
-2.46467e-07
3.97265e-07
-2.17187e-07
4.19423e-07
-1.84806e-07
4.35822e-07
-1.49341e-07
4.46258e-07
-1.10779e-07
4.50592e-07
-6.9085e-08
4.48768e-07
-2.42171e-08
4.40844e-07
2.38464e-08
4.27023e-07
7.50463e-08
4.0763e-07
1.29139e-07
3.83038e-07
1.85628e-07
3.53625e-07
2.43773e-07
3.19641e-07
3.02558e-07
2.80657e-07
3.60552e-07
2.34119e-07
4.15207e-07
1.75227e-07
4.61337e-07
1.02025e-07
4.92443e-07
1.92242e-08
5.07382e-07
-6.54848e-08
5.10126e-07
-1.44215e-07
5.01966e-07
-2.10215e-07
4.79314e-07
-2.62166e-07
4.40059e-07
-3.04458e-07
3.88973e-07
-3.40942e-07
3.32478e-07
-3.72855e-07
2.74207e-07
-4.0016e-07
2.15964e-07
-4.22506e-07
1.58943e-07
-4.39515e-07
1.03995e-07
-4.50832e-07
5.17316e-08
-4.56187e-07
2.50563e-09
-4.5545e-07
-4.35573e-08
-4.48622e-07
-8.64653e-08
-4.35798e-07
-1.26272e-07
-4.17141e-07
-1.63035e-07
-3.92877e-07
-1.96795e-07
-3.63298e-07
-2.27564e-07
-3.28762e-07
-2.55322e-07
-2.89703e-07
-2.80008e-07
-2.46626e-07
-3.01522e-07
-2.00107e-07
-3.1973e-07
-1.5078e-07
-3.34472e-07
-9.93278e-08
-3.45585e-07
-4.64718e-08
-3.52916e-07
-3.56352e-07
5.66496e-08
-4.05879e-07
1.05827e-07
-4.00539e-07
1.5338e-07
-3.90577e-07
1.98593e-07
-3.76154e-07
2.40796e-07
-3.57475e-07
2.79381e-07
-3.34766e-07
3.13811e-07
-3.08252e-07
3.43626e-07
-2.78136e-07
3.68446e-07
-2.44588e-07
3.8797e-07
-2.07735e-07
4.01968e-07
-1.67664e-07
4.10283e-07
-1.24424e-07
4.12827e-07
-7.80378e-08
4.09588e-07
-2.85245e-08
4.0065e-07
2.4069e-08
3.86208e-07
7.96152e-08
3.66561e-07
1.37832e-07
3.42077e-07
1.98228e-07
3.13163e-07
2.60092e-07
2.80227e-07
3.22495e-07
2.43564e-07
3.84245e-07
2.02945e-07
4.43743e-07
1.56514e-07
4.98226e-07
1.00892e-07
5.42516e-07
3.56594e-08
5.70547e-07
-3.36528e-08
5.79722e-07
-9.8853e-08
5.70017e-07
-1.54403e-07
5.41497e-07
-2.00707e-07
4.96761e-07
-2.41147e-07
4.41859e-07
-2.77579e-07
3.81953e-07
-3.10231e-07
3.19797e-07
-3.38807e-07
2.56983e-07
-3.62895e-07
1.947e-07
-3.82087e-07
1.33882e-07
-3.96016e-07
7.52458e-08
-4.04382e-07
1.92916e-08
-4.06994e-07
-3.36869e-08
-4.03774e-07
-8.35484e-08
-3.9474e-07
-1.30229e-07
-3.79989e-07
-1.73691e-07
-3.59692e-07
-2.13891e-07
-3.34093e-07
-2.50763e-07
-3.03513e-07
-2.84203e-07
-2.68355e-07
-3.14069e-07
-2.29105e-07
-3.40181e-07
-1.86326e-07
-3.62329e-07
-1.40653e-07
-3.80288e-07
-9.2782e-08
-3.93835e-07
-4.34532e-08
-4.02776e-07
6.55995e-09
-4.06968e-07
5.64696e-08
-4.06334e-07
1.0549e-07
-4.00888e-07
1.52856e-07
-3.90723e-07
1.97835e-07
-3.76e-07
2.39748e-07
-3.56922e-07
2.77977e-07
-3.33713e-07
3.11978e-07
-3.06597e-07
3.41288e-07
-2.75778e-07
3.65526e-07
-2.41424e-07
3.84389e-07
-2.0367e-07
3.97655e-07
-1.62607e-07
4.05171e-07
-1.18295e-07
4.0686e-07
-7.07738e-08
4.02727e-07
-2.00842e-08
3.92879e-07
3.36947e-08
3.77537e-07
9.03884e-08
3.57022e-07
1.49654e-07
3.31716e-07
2.10934e-07
3.02033e-07
2.73456e-07
2.68368e-07
3.36223e-07
2.30949e-07
3.97971e-07
1.89245e-07
4.56911e-07
1.40831e-07
5.09751e-07
8.25377e-08
5.50736e-07
1.55253e-08
5.74395e-07
-5.3493e-08
5.79144e-07
-1.16517e-07
5.64991e-07
-1.69457e-07
5.32254e-07
-2.14054e-07
4.84655e-07
-2.53545e-07
4.28465e-07
-2.89244e-07
3.68176e-07
-3.2116e-07
3.06123e-07
-3.48952e-07
2.43756e-07
-3.72204e-07
1.82195e-07
-3.90517e-07
1.22309e-07
-4.03539e-07
6.47531e-08
-4.10993e-07
9.96015e-09
-4.12717e-07
-4.18338e-08
-4.08653e-07
-9.05294e-08
-3.98833e-07
-1.36092e-07
-3.83366e-07
-1.78503e-07
-3.62426e-07
-2.17735e-07
-3.3626e-07
-2.5373e-07
-3.05193e-07
-2.8639e-07
-2.69623e-07
-3.15578e-07
-2.30032e-07
-3.41113e-07
-1.86977e-07
-3.62785e-07
-1.41082e-07
-3.80367e-07
-9.30303e-08
-3.93636e-07
-4.35502e-08
-4.02396e-07
-4.06502e-07
5.18932e-08
-4.51725e-07
9.68732e-08
-4.45519e-07
1.40245e-07
-4.33949e-07
1.81305e-07
-4.17214e-07
2.19402e-07
-3.95572e-07
2.53954e-07
-3.69318e-07
2.84455e-07
-3.38752e-07
3.10481e-07
-3.04162e-07
3.31694e-07
-2.658e-07
3.47836e-07
-2.23878e-07
3.58731e-07
-1.78559e-07
3.64275e-07
-1.29968e-07
3.64439e-07
-7.82019e-08
3.59271e-07
-2.33566e-08
3.48904e-07
3.44362e-08
3.33563e-07
9.49562e-08
3.13559e-07
1.57835e-07
2.8927e-07
2.22517e-07
2.61121e-07
2.88241e-07
2.29578e-07
3.54037e-07
1.95117e-07
4.18707e-07
1.58122e-07
4.80739e-07
1.18454e-07
5.37893e-07
7.48557e-08
5.86114e-07
2.63718e-08
6.19031e-07
-2.45128e-08
6.30606e-07
-7.2972e-08
6.18477e-07
-1.16507e-07
5.85033e-07
-1.56062e-07
5.36317e-07
-1.92898e-07
4.78694e-07
-2.27152e-07
4.16207e-07
-2.58437e-07
3.51082e-07
-2.86275e-07
2.84821e-07
-3.102e-07
2.18625e-07
-3.29783e-07
1.53465e-07
-3.44649e-07
9.01111e-08
-3.54485e-07
2.91282e-08
-3.5907e-07
-2.9102e-08
-3.58275e-07
-8.43436e-08
-3.52058e-07
-1.36446e-07
-3.40458e-07
-1.85291e-07
-3.2359e-07
-2.30759e-07
-3.01648e-07
-2.72705e-07
-2.74907e-07
-3.10944e-07
-2.43729e-07
-3.45247e-07
-2.08563e-07
-3.75348e-07
-1.69941e-07
-4.00951e-07
-1.28473e-07
-4.21756e-07
-8.48352e-08
-4.37473e-07
-3.97557e-08
-4.47856e-07
6.00174e-09
-4.52725e-07
5.16566e-08
-4.51989e-07
9.64311e-08
-4.45663e-07
1.39569e-07
-4.33861e-07
1.80354e-07
-4.16785e-07
2.18127e-07
-3.94694e-07
2.52296e-07
-3.67882e-07
2.82351e-07
-3.36652e-07
3.07865e-07
-3.01292e-07
3.28501e-07
-2.6206e-07
3.44003e-07
-2.19172e-07
3.542e-07
-1.72804e-07
3.58996e-07
-1.23091e-07
3.58373e-07
-7.01512e-08
3.52395e-07
-1.41064e-08
3.41215e-07
4.48751e-08
3.25079e-07
1.06524e-07
3.04317e-07
1.70415e-07
2.79322e-07
2.35929e-07
2.50534e-07
3.02245e-07
2.18424e-07
3.68333e-07
1.83464e-07
4.3293e-07
1.45968e-07
4.94407e-07
1.05533e-07
5.50186e-07
6.06989e-08
5.9557e-07
1.11968e-08
6.23897e-07
-3.95074e-08
6.29848e-07
-8.67772e-08
6.1226e-07
-1.29177e-07
5.74654e-07
-1.68069e-07
5.23547e-07
-2.04421e-07
4.64816e-07
-2.38162e-07
4.01917e-07
-2.6886e-07
3.36821e-07
-2.96039e-07
2.70935e-07
-3.19243e-07
2.05398e-07
-3.38056e-07
1.41122e-07
-3.52117e-07
7.88146e-08
-3.61137e-07
1.89796e-08
-3.64913e-07
-3.80572e-08
-3.63337e-07
-9.21054e-08
-3.56382e-07
-1.43047e-07
-3.44096e-07
-1.90789e-07
-3.26601e-07
-2.3523e-07
-3.04095e-07
-2.76235e-07
-2.76857e-07
-3.13628e-07
-2.45247e-07
-3.47187e-07
-2.09711e-07
-3.76649e-07
-1.70776e-07
-4.0172e-07
-1.29043e-07
-4.221e-07
-8.51787e-08
-4.37501e-07
-3.98981e-08
-4.47677e-07
-4.52448e-07
4.63702e-08
-4.92689e-07
8.6497e-08
-4.85646e-07
1.2507e-07
-4.72522e-07
1.61413e-07
-4.53557e-07
1.9491e-07
-4.29069e-07
2.25015e-07
-3.99423e-07
2.51264e-07
-3.65001e-07
2.73277e-07
-3.26175e-07
2.90763e-07
-2.83287e-07
3.03517e-07
-2.36632e-07
3.11415e-07
-1.86457e-07
3.14411e-07
-1.32964e-07
3.12534e-07
-7.63247e-08
3.05888e-07
-1.6711e-08
2.94657e-07
4.56674e-08
2.79104e-07
1.1051e-07
2.59565e-07
1.77373e-07
2.36445e-07
2.45637e-07
2.10205e-07
3.14481e-07
1.8137e-07
3.82872e-07
1.50541e-07
4.49537e-07
1.18392e-07
5.12887e-07
8.55572e-08
5.70728e-07
5.22343e-08
6.19437e-07
1.81242e-08
6.53141e-07
-1.64778e-08
6.65208e-07
-5.0563e-08
6.52562e-07
-8.38279e-08
6.18297e-07
-1.16566e-07
5.69055e-07
-1.48578e-07
5.10706e-07
-1.79225e-07
4.46855e-07
-2.0783e-07
3.79687e-07
-2.33793e-07
3.10784e-07
-2.56587e-07
2.41418e-07
-2.75747e-07
1.72625e-07
-2.9087e-07
1.05235e-07
-3.0162e-07
3.98783e-08
-3.07735e-07
-2.29869e-08
-3.09037e-07
-8.30424e-08
-3.05425e-07
-1.40057e-07
-2.9688e-07
-1.93836e-07
-2.8346e-07
-2.44179e-07
-2.65304e-07
-2.90862e-07
-2.42636e-07
-3.33612e-07
-2.1577e-07
-3.72113e-07
-1.85108e-07
-4.06009e-07
-1.51143e-07
-4.34917e-07
-1.14445e-07
-4.58453e-07
-7.56576e-08
-4.7626e-07
-3.54785e-08
-4.88035e-07
5.35592e-09
-4.93559e-07
4.60912e-08
-4.92724e-07
8.59757e-08
-4.85547e-07
1.24281e-07
-4.72167e-07
1.60322e-07
-4.52827e-07
1.93474e-07
-4.27846e-07
2.23185e-07
-3.97593e-07
2.48987e-07
-3.62454e-07
2.70499e-07
-3.22804e-07
2.87432e-07
-2.78993e-07
2.99584e-07
-2.31325e-07
3.06838e-07
-1.80057e-07
3.09156e-07
-1.2541e-07
3.06581e-07
-6.75754e-08
2.9923e-07
-6.75579e-09
2.87305e-07
5.68002e-08
2.71087e-07
1.22742e-07
2.50933e-07
1.9057e-07
2.27261e-07
2.59601e-07
2.00551e-07
3.28955e-07
1.71348e-07
3.97536e-07
1.40275e-07
4.64003e-07
1.08021e-07
5.26661e-07
7.51531e-08
5.83054e-07
4.17017e-08
6.29022e-07
7.40332e-09
6.58195e-07
-2.7161e-08
6.64413e-07
-6.10456e-08
6.46145e-07
-9.42198e-08
6.07828e-07
-1.2692e-07
5.56247e-07
-1.58791e-07
4.96687e-07
-1.89159e-07
4.32286e-07
-2.17368e-07
3.65029e-07
-2.42837e-07
2.96405e-07
-2.65059e-07
2.2762e-07
-2.83587e-07
1.5965e-07
-2.98036e-07
9.32628e-08
-3.08085e-07
2.90287e-08
-3.13492e-07
-3.26496e-08
-3.14097e-07
-9.15012e-08
-3.09813e-07
-1.47331e-07
-3.00631e-07
-1.99971e-07
-2.86619e-07
-2.49243e-07
-2.67919e-07
-2.94934e-07
-2.44762e-07
-3.36786e-07
-2.17459e-07
-3.7449e-07
-1.86414e-07
-4.07694e-07
-1.52114e-07
-4.36021e-07
-1.15122e-07
-4.59091e-07
-7.60736e-08
-4.76549e-07
-3.56561e-08
-4.88095e-07
-4.93511e-07
4.02281e-08
-5.28225e-07
7.4974e-08
-5.20392e-07
1.08255e-07
-5.05803e-07
1.39439e-07
-4.84741e-07
1.67956e-07
-4.57586e-07
1.93308e-07
-4.24775e-07
2.15081e-07
-3.86774e-07
2.32947e-07
-3.44041e-07
2.46668e-07
-2.97007e-07
2.56092e-07
-2.46056e-07
2.6115e-07
-1.91515e-07
2.61853e-07
-1.33667e-07
2.58287e-07
-7.27588e-08
2.50612e-07
-9.03545e-09
2.39059e-07
5.72201e-08
2.23934e-07
1.25635e-07
2.05611e-07
1.95697e-07
1.84525e-07
2.66723e-07
1.61182e-07
3.37825e-07
1.36163e-07
4.0789e-07
1.10151e-07
4.75549e-07
8.3951e-08
5.39087e-07
5.8462e-08
5.96217e-07
3.43891e-08
6.4351e-07
1.17309e-08
6.75799e-07
-1.03379e-08
6.87277e-07
-3.29733e-08
6.75197e-07
-5.69973e-08
6.42321e-07
-8.24066e-08
5.94465e-07
-1.08491e-07
5.3679e-07
-1.34349e-07
4.72713e-07
-1.59171e-07
4.04509e-07
-1.82275e-07
3.33888e-07
-2.03076e-07
2.62219e-07
-2.21069e-07
1.90619e-07
-2.35817e-07
1.19982e-07
-2.46945e-07
5.10066e-08
-2.54151e-07
-1.57813e-08
-2.57204e-07
-7.9989e-08
-2.55951e-07
-1.4131e-07
-2.50314e-07
-1.99473e-07
-2.40293e-07
-2.542e-07
-2.25972e-07
-3.05183e-07
-2.0752e-07
-3.52064e-07
-1.85196e-07
-3.94437e-07
-1.59351e-07
-4.31854e-07
-1.30425e-07
-4.63843e-07
-9.89408e-08
-4.89938e-07
-6.54934e-08
-5.09708e-07
-3.07357e-08
-5.22793e-07
4.63975e-09
-5.28935e-07
3.99217e-08
-5.28006e-07
7.44018e-08
-5.20027e-07
1.07396e-07
-5.05161e-07
1.38265e-07
-4.83695e-07
1.6643e-07
-4.56012e-07
1.91392e-07
-4.22554e-07
2.12731e-07
-3.83793e-07
2.30122e-07
-3.40195e-07
2.43329e-07
-2.922e-07
2.52206e-07
-2.40201e-07
2.5669e-07
-1.84542e-07
2.56804e-07
-1.25523e-07
2.52644e-07
-6.34158e-08
2.44385e-07
1.50298e-09
2.32276e-07
6.89092e-08
2.16639e-07
1.38379e-07
1.97865e-07
2.09344e-07
1.76408e-07
2.81058e-07
1.52794e-07
3.52569e-07
1.27629e-07
4.22701e-07
1.01628e-07
4.90004e-07
7.56341e-08
5.52655e-07
5.05395e-08
6.08149e-07
2.69174e-08
6.52644e-07
4.53452e-09
6.80578e-07
-1.75789e-08
6.86526e-07
-4.05556e-08
6.69122e-07
-6.50367e-08
6.32309e-07
-9.07967e-08
5.82007e-07
-1.17033e-07
5.22923e-07
-1.42858e-07
4.58111e-07
-1.67498e-07
3.89669e-07
-1.90301e-07
3.19208e-07
-2.10708e-07
2.48026e-07
-2.28231e-07
1.77174e-07
-2.42451e-07
1.07483e-07
-2.53012e-07
3.959e-08
-2.59628e-07
-2.60339e-08
-2.62085e-07
-8.90442e-08
-2.60243e-07
-1.49173e-07
-2.54036e-07
-2.06178e-07
-2.43473e-07
-2.59805e-07
-2.28645e-07
-3.09762e-07
-2.09726e-07
-3.55706e-07
-1.86977e-07
-3.97238e-07
-1.60749e-07
-4.33921e-07
-1.3148e-07
-4.6529e-07
-9.96867e-08
-4.90885e-07
-6.59578e-08
-5.10278e-07
-3.09374e-08
-5.23115e-07
-5.29139e-07
3.35854e-08
-5.57892e-07
6.25261e-08
-5.49333e-07
9.01233e-08
-5.334e-07
1.15803e-07
-5.10421e-07
1.39054e-07
-4.80836e-07
1.59434e-07
-4.45156e-07
1.76588e-07
-4.03928e-07
1.90245e-07
-3.57698e-07
2.00222e-07
-3.06985e-07
2.06424e-07
-2.52257e-07
2.08835e-07
-1.93927e-07
2.07521e-07
-1.32353e-07
2.02621e-07
-6.78587e-08
1.94345e-07
-7.59195e-10
1.82972e-07
6.85936e-08
1.68846e-07
1.3976e-07
1.52376e-07
2.12167e-07
1.3403e-07
2.85069e-07
1.14343e-07
3.57512e-07
9.39262e-08
4.28307e-07
7.34855e-08
4.9599e-07
5.3832e-08
5.58741e-07
3.58398e-08
6.14209e-07
2.0187e-08
6.59163e-07
6.77756e-09
6.89209e-07
-5.67091e-09
6.99726e-07
-1.90626e-08
6.88589e-07
-3.46776e-08
6.57936e-07
-5.26075e-08
6.12394e-07
-7.21688e-08
5.56351e-07
-9.2484e-08
4.93028e-07
-1.12739e-07
4.24765e-07
-1.32228e-07
3.53377e-07
-1.50337e-07
2.80328e-07
-1.66529e-07
2.06811e-07
-1.80335e-07
1.33788e-07
-1.91347e-07
6.20186e-08
-1.9922e-07
-7.90781e-09
-2.03679e-07
-7.55304e-08
-2.04517e-07
-1.40472e-07
-2.01603e-07
-2.02387e-07
-1.94882e-07
-2.60921e-07
-1.84382e-07
-3.15684e-07
-1.70215e-07
-3.66232e-07
-1.52583e-07
-4.12069e-07
-1.31778e-07
-4.52658e-07
-1.08182e-07
-4.87439e-07
-8.22564e-08
-5.15863e-07
-5.45374e-08
-5.37427e-07
-2.56185e-08
-5.51711e-07
3.86701e-09
-5.5842e-07
3.32668e-08
-5.57406e-07
6.19313e-08
-5.48692e-07
8.92357e-08
-5.32465e-07
1.146e-07
-5.0906e-07
1.37506e-07
-4.78919e-07
1.57513e-07