/*--------------------------------*- C++ -*----------------------------------*\
| =========                 |                                                 |
| \\      /  F ield         | OpenFOAM: The Open Source CFD Toolbox           |
|  \\    /   O peration     | Version:  2.3.0                                 |
|   \\  /    A nd           | Web:      www.OpenFOAM.org                      |
|    \\/     M anipulation  |                                                 |
\*---------------------------------------------------------------------------*/
FoamFile
{
    version     2.0;
    format      ascii;
    class       volScalarField;
    location    "13000";
    object      T;
}
// * * * * * * * * * * * * * * * * * * * * * * * * * * * * * * * * * * * * * //

dimensions      [0 0 0 1 0 0 0];

internalField   nonuniform List<scalar> 
765
(
40.0052
40.0647
40.0165
39.9136
39.8355
39.8857
40.1476
40.4322
40.8157
41.3278
41.6192
41.1489
40.6636
40.3116
40.0259
39.8374
39.8418
39.9397
40.0332
40.0523
39.9498
39.7611
39.5154
39.213
38.843
38.3864
37.8169
37.1026
36.2119
35.1207
33.8091
32.1942
30.7106
29.6073
28.8355
28.4993
28.5856
29.0698
29.9702
31.1927
32.8255
34.3152
35.5445
36.5605
37.3832
38.0406
38.5654
38.9877
39.3314
39.6128
39.8394
33.0364
33.2227
33.2959
33.3029
33.3315
33.5068
33.9229
34.7412
36.0933
37.8843
38.8685
37.288
35.5948
34.4299
33.7732
33.4045
33.2903
33.2811
33.2603
33.1535
32.9264
32.5312
32.0133
31.3978
30.6889
29.8773
28.9399
27.83
26.4681
24.7372
22.6537
20.6906
19.0853
17.7595
16.7353
16.1846
16.3267
17.0708
18.2202
19.6379
21.3525
23.4588
25.4242
27.0033
28.2608
29.3005
30.1886
30.9615
31.637
32.2197
32.7004
28.1361
28.4575
28.7061
28.9102
29.1224
29.4329
29.995
31.1747
33.1574
35.7686
37.1771
34.8999
32.4078
30.6848
29.7232
29.2867
29.0232
28.8202
28.6042
28.3318
27.9811
27.5484
26.9936
26.3301
25.5757
24.7319
23.8022
22.7778
21.6358
20.3662
18.9063
17.2765
15.5915
14.0057
12.7282
12.0254
12.2038
13.1519
14.5748
16.222
17.9053
19.4843
20.8638
22.0818
23.174
24.1598
25.0578
25.8684
26.5912
27.2209
27.7328
26.0197
26.3951
26.7382
27.0509
27.3434
27.6681
28.2442
29.4569
31.613
34.5483
36.1234
33.5707
30.7829
28.9453
27.9748
27.5336
27.2318
26.9344
26.6109
26.2561
25.8687
25.449
24.9977
24.5126
23.9977
23.46
22.8784
22.2084
21.3813
20.3043
18.878
17.0958
15.102
13.1266
11.5077
10.6235
10.8417
12.0407
13.8379
15.8616
17.8039
19.4624
20.7486
21.7193
22.4767
23.1059
23.6657
24.1946
24.6997
25.1713
25.6116
25.9999
26.3361
26.6665
26.9666
27.2151
27.4487
27.89
28.9211
30.9803
33.9183
35.4797
32.9433
30.1711
28.4741
27.6912
27.3552
27.1318
26.8658
26.5525
26.2175
25.8828
25.5604
25.2545
24.9628
24.6751
24.3683
23.9967
23.4869
22.736
21.6177
20.0125
17.9077
15.4943
13.0678
11.0689
9.98898
10.2488
11.7204
13.9358
16.4068
18.7373
20.6699
22.0838
23.0503
23.6977
24.1453
24.4851
24.7801
25.0667
25.3619
25.673
26.9176
27.194
27.4622
27.6814
27.8202
27.9339
28.1831
29.0121
30.9037
33.6689
35.1003
32.7638
30.1507
28.6333
28.0555
27.89
27.7824
27.6164
27.3768
27.1023
26.8307
26.5857
26.3759
26.1964
26.0279
25.8323
25.5463
25.0761
24.2988
23.0747
21.2748
18.857
16.0291
13.1607
10.7894
9.51709
9.81791
11.5563
14.1808
17.0916
19.798
21.9979
23.5757
24.6207
25.2704
25.6605
25.904
26.0833
26.2518
26.44
26.6619
28.0563
28.2712
28.4549
28.5674
28.5919
28.5986
28.77
29.5178
31.1927
33.5819
34.8239
32.8136
30.5405
29.1805
28.6676
28.6019
28.5934
28.5417
28.4028
28.2053
27.9895
27.7875
27.6164
27.4764
27.3485
27.1888
26.9218
26.4382
25.6026
24.2706
22.307
19.6409
16.4626
13.2056
10.498
9.04393
9.38496
11.3702
14.3599
17.6568
20.6758
23.0863
24.8068
25.9426
26.6348
27.0261
27.2437
27.385
27.5134
27.6632
27.8462
29.0984
29.2436
29.3411
29.381
29.3934
29.4055
29.6088
30.2699
31.6309
33.5392
34.5845
32.9347
31.1163
29.9884
29.5058
29.3914
29.3888
29.3755
29.3185
29.2042
29.0496
28.8801
28.7163
28.5663
28.4187
28.2327
27.9292
27.3912
26.4804
25.056
22.9764
20.1482
16.7082
13.1419
10.1511
8.52536
8.90818
11.1147
14.4041
18.006
21.2542
23.8024
25.6232
26.8433
27.6036
28.0432
28.2941
28.4602
28.6064
28.7617
28.93
29.9113
30.0235
30.1056
30.1621
30.2006
30.2782
30.5124
31.0686
32.1037
33.5285
34.3734
33.0891
31.7284
30.8494
30.4142
30.2458
30.1912
30.1492
30.086
29.9957
29.8746
29.7275
29.5616
29.3788
29.1683
28.8947
28.4878
27.8434
26.8394
25.3486
23.2166
20.2885
16.6609
12.8942
9.70757
7.935
8.35828
10.7372
14.2248
18.0318
21.4375
24.0566
25.9293
27.2261
28.0874
28.6352
28.986
29.2326
29.432
29.6097
29.771
30.4673
30.6169
30.7416
30.8474
30.9523
31.0938
31.3394
31.7877
32.5341
33.5334
34.1809
33.2416
32.2813
31.6288
31.2541
31.05
30.9258
30.8235
30.7134
30.581
30.4234
30.2396
30.0269
29.7772
29.4726
29.0759
28.5237
27.7296
26.5996
25.0308
22.8588
19.8753
16.1699
12.3554
9.09742
7.23705
7.68912
10.1554
13.6965
17.5431
21.0236
23.6967
25.6222
27.0172
28.0178
28.7175
29.2081
29.5684
29.8521
30.0887
30.2918
30.5031
30.7586
30.9925
31.2101
31.4211
31.6454
31.9189
32.2955
32.829
33.4985
33.9641
33.3229
32.6691
32.1823
31.8416
31.5873
31.3694
31.1573
30.935
30.6943
30.4307
30.1406
29.8196
29.4461
29.0012
28.4464
27.7245
26.7667
25.5088
23.8734
21.6772
18.7066
15.1155
11.447
8.27261
6.40764
6.8688
9.30848
12.7251
16.4029
19.8176
22.5119
24.4716
25.9558
27.1012
27.9697
28.6275
29.1399
29.5575
29.9118
30.2221
29.4189
29.859
30.2743
30.6704
31.0525
31.4271
31.806
32.2092
32.6568
33.1338
33.4568
33.0287
32.5447
32.107
31.7108
31.3329
30.9554
30.5682
30.1656
29.7423
29.2921
28.8092
28.2913
27.7427
27.1243
26.4036
25.5354
24.4646
23.1409
21.4986
19.3574
16.5809
13.3675
10.0734
7.17091
5.41686
5.85746
8.12334
11.2215
14.5205
17.6147
20.1619
22.0854
23.5969
24.8261
25.8203
26.6328
27.3151
27.9083
28.4426
28.9478
26.0944
26.7474
27.3712
27.9749
28.5647
29.1428
29.707
30.2516
30.7644
31.2102
31.4556
31.123
30.646
30.1174
29.5627
28.9912
28.4072
27.8116
27.2009
26.5675
25.9022
25.1987
24.4621
23.7105
22.96
22.1407
21.2368
20.2111
19.002
17.5258
15.6793
13.4032
10.801
8.11572
5.71382
4.22659
4.60554
6.50712
9.05604
11.737
14.2388
16.3497
18.044
19.4118
20.5463
21.5227
22.3921
23.1842
23.9306
24.6789
25.4046
19.201
19.9102
20.597
21.2673
21.9243
22.5668
23.1882
23.7743
24.2992
24.7122
24.8934
24.6318
24.1766
23.6268
23.0252
22.3938
21.7442
21.0814
20.4048
19.7101
18.991
18.2441
17.478
16.7099
15.9506
15.2351
14.5126
13.7361
12.8627
11.8245
10.5481
9.009
7.26877
5.4682
3.83516
2.80071
3.06739
4.37752
6.09963
7.8919
9.56604
11.0048
12.1854
13.1552
13.9875
14.7425
15.4535
16.1788
16.9379
17.7044
18.4643
7.71188
8.10416
8.49258
8.87856
9.26148
9.63729
9.99748
10.3282
10.6091
10.8116
10.8878
10.7722
10.5438
10.2448
9.90229
9.53487
9.15498
8.76971
8.38198
7.99157
7.59682
7.19821
6.80281
6.41834
6.04427
5.68297
5.34414
5.02421
4.69487
4.32791
3.89602
3.382
2.78744
2.14239
1.52568
1.11673
1.22385
1.73359
2.37162
3.00155
3.56654
4.04772
4.45239
4.80167
5.12295
5.44366
5.79191
6.15616
6.5319
6.91876
7.31509
)
;

boundaryField
{
    top
    {
        type            fixedValue;
        value           uniform 0;
    }
    bottom
    {
        type            fixedValue;
        value           uniform 43.8;
    }
    frontAndBack
    {
        type            empty;
    }
    left_cyc
    {
        type            cyclic;
    }
    right_cyc
    {
        type            cyclic;
    }
}


// ************************************************************************* //
