/*--------------------------------*- C++ -*----------------------------------*\
| =========                 |                                                 |
| \\      /  F ield         | OpenFOAM: The Open Source CFD Toolbox           |
|  \\    /   O peration     | Version:  2.3.0                                 |
|   \\  /    A nd           | Web:      www.OpenFOAM.org                      |
|    \\/     M anipulation  |                                                 |
\*---------------------------------------------------------------------------*/
FoamFile
{
    version     2.0;
    format      ascii;
    class       volVectorField;
    location    "13000";
    object      U;
}
// * * * * * * * * * * * * * * * * * * * * * * * * * * * * * * * * * * * * * //

dimensions      [0 1 -1 0 0 0 0];

internalField   nonuniform List<vector> 
3060
(
(1.67596 0 -2.33426)
(4.2815 0 -2.24439)
(6.76335 0 -2.07505)
(9.04708 0 -1.82594)
(11.0606 0 -1.49818)
(12.7377 0 -1.09803)
(14.024 0 -0.643217)
(14.888 0 -0.170677)
(15.3347 0 0.261652)
(15.4197 0 0.591937)
(15.2363 0 0.784806)
(14.8815 0 0.85202)
(14.3992 0 0.83571)
(13.795 0 0.775848)
(13.0405 0 0.697422)
(12.1042 0 0.617722)
(10.9724 0 0.566811)
(9.65397 0 0.563445)
(8.17552 0 0.575783)
(6.61464 0 0.554365)
(5.08794 0 0.490437)
(3.69636 0 0.397855)
(2.50674 0 0.29807)
(1.53403 0 0.212229)
(0.739007 0 0.154948)
(0.0455249 0 0.133197)
(-0.639509 0 0.148971)
(-1.41031 0 0.200816)
(-2.34676 0 0.282721)
(-3.4951 0 0.381265)
(-4.8488 0 0.47584)
(-6.34686 0 0.544515)
(-7.89254 0 0.57238)
(-9.36826 0 0.562737)
(-10.6875 0 0.561298)
(-11.8176 0 0.604969)
(-12.7465 0 0.679929)
(-13.4843 0 0.754242)
(-14.0608 0 0.807712)
(-14.5023 0 0.815205)
(-14.8047 0 0.738734)
(-14.9264 0 0.539646)
(-14.7765 0 0.209543)
(-14.2701 0 -0.217085)
(-13.3545 0 -0.680744)
(-12.0271 0 -1.12467)
(-10.3211 0 -1.51258)
(-8.29189 0 -1.82692)
(-6.00699 0 -2.06125)
(-3.53975 0 -2.21411)
(-0.966214 0 -2.28542)
(1.63626 0 -2.27486)
(4.18979 0 -2.18258)
(6.6173 0 -2.00874)
(8.84327 0 -1.75357)
(10.7954 0 -1.41936)
(12.4085 0 -1.01471)
(13.6319 0 -0.56127)
(14.44 0 -0.100957)
(14.8474 0 0.306133)
(14.9181 0 0.603943)
(14.7428 0 0.768863)
(14.4023 0 0.819859)
(13.9265 0 0.797242)
(13.312 0 0.736378)
(12.5269 0 0.659657)
(11.546 0 0.589461)
(10.3651 0 0.558039)
(9.00081 0 0.566782)
(7.49618 0 0.569803)
(5.95134 0 0.530301)
(4.48254 0 0.453065)
(3.1779 0 0.35534)
(2.0858 0 0.259349)
(1.19812 0 0.184256)
(0.457826 0 0.141385)
(-0.220308 0 0.135286)
(-0.931545 0 0.166528)
(-1.76626 0 0.232113)
(-2.79316 0 0.323269)
(-4.03852 0 0.423306)
(-5.47263 0 0.510383)
(-7.01915 0 0.564448)
(-8.56922 0 0.574235)
(-10.0106 0 0.56068)
(-11.2823 0 0.57554)
(-12.3633 0 0.637187)
(-13.2502 0 0.718733)
(-13.9619 0 0.793833)
(-14.5327 0 0.845258)
(-14.9832 0 0.844029)
(-15.2992 0 0.747752)
(-15.4233 0 0.518053)
(-15.2508 0 0.155829)
(-14.6982 0 -0.293169)
(-13.7222 0 -0.765865)
(-12.3294 0 -1.20902)
(-10.5584 0 -1.59133)
(-8.46734 0 -1.89883)
(-6.12465 0 -2.12708)
(-3.60315 0 -2.27559)
(-0.977669 0 -2.34469)
(1.38416 0 -3.65746)
(3.54988 0 -3.55235)
(5.65204 0 -3.35689)
(7.65711 0 -3.07646)
(9.54021 0 -2.72106)
(11.2891 0 -2.30791)
(12.9073 0 -1.86415)
(14.4133 0 -1.42661)
(15.8307 0 -1.03355)
(17.17 0 -0.706654)
(18.4081 0 -0.434568)
(19.4848 0 -0.175411)
(20.3262 0 0.121441)
(20.8608 0 0.497679)
(21.0186 0 0.971265)
(20.7204 0 1.51251)
(19.8735 0 2.02252)
(18.4569 0 2.40894)
(16.5128 0 2.63931)
(14.1383 0 2.69314)
(11.5149 0 2.58239)
(8.85183 0 2.32578)
(6.33291 0 1.98644)
(4.06003 0 1.65797)
(2.02776 0 1.42242)
(0.145122 0 1.3288)
(-1.72302 0 1.39408)
(-3.71494 0 1.60581)
(-5.93134 0 1.92021)
(-8.39329 0 2.2594)
(-11.0147 0 2.52823)
(-13.6195 0 2.65625)
(-15.9996 0 2.62075)
(-17.9649 0 2.40668)
(-19.4068 0 2.03097)
(-20.2801 0 1.52352)
(-20.5942 0 0.970562)
(-20.4391 0 0.477361)
(-19.8968 0 0.0809385)
(-19.04 0 -0.233401)
(-17.9425 0 -0.505662)
(-16.6801 0 -0.784911)
(-15.3137 0 -1.11183)
(-13.868 0 -1.49823)
(-12.3358 0 -1.92447)
(-10.6957 0 -2.35402)
(-8.93118 0 -2.75099)
(-7.04023 0 -3.08855)
(-5.0363 0 -3.34946)
(-2.94522 0 -3.52367)
(-0.801129 0 -3.60582)
(1.35761 0 -3.59365)
(3.49164 0 -3.48749)
(5.56328 0 -3.2903)
(7.54017 0 -3.00845)
(9.39926 0 -2.65358)
(11.1309 0 -2.2452)
(12.7412 0 -1.81276)
(14.2492 0 -1.39354)
(15.6748 0 -1.0217)
(17.0186 0 -0.709651)
(18.2454 0 -0.436794)
(19.2881 0 -0.158217)
(20.0711 0 0.17413)
(20.5205 0 0.595685)
(20.5633 0 1.11083)
(20.112 0 1.6639)
(19.0889 0 2.14225)
(17.5065 0 2.47866)
(15.4196 0 2.64725)
(12.9606 0 2.63871)
(10.3322 0 2.4703)
(7.73767 0 2.17507)
(5.33492 0 1.83328)
(3.18211 0 1.53924)
(1.23375 0 1.36247)
(-0.624557 0 1.33811)
(-2.53399 0 1.47106)
(-4.6223 0 1.7366)
(-6.96224 0 2.0767)
(-9.53181 0 2.40283)
(-12.2032 0 2.62581)
(-14.7823 0 2.69564)
(-17.0595 0 2.59564)
(-18.872 0 2.32242)
(-20.144 0 1.89962)
(-20.8415 0 1.36982)
(-21.0121 0 0.839102)
(-20.7493 0 0.390325)
(-20.128 0 0.0376124)
(-19.2184 0 -0.244975)
(-18.0923 0 -0.502666)
(-16.8231 0 -0.785973)
(-15.4628 0 -1.13067)
(-14.024 0 -1.53846)
(-12.491 0 -1.98146)
(-10.8397 0 -2.42038)
(-9.0553 0 -2.82057)
(-7.13848 0 -3.15765)
(-5.10515 0 -3.41657)
(-2.98284 0 -3.58875)
(-0.806722 0 -3.66969)
(1.31563 0 -5.81849)
(3.38001 0 -5.67093)
(5.39979 0 -5.39853)
(7.35204 0 -5.01252)
(9.21955 0 -4.5314)
(10.9914 0 -3.98283)
(12.6616 0 -3.40398)
(14.2236 0 -2.83676)
(15.6632 0 -2.31467)
(16.9543 0 -1.84536)
(18.0629 0 -1.4046)
(18.9593 0 -0.949747)
(19.6267 0 -0.440208)
(20.0625 0 0.153723)
(20.2763 0 0.849128)
(20.2812 0 1.65316)
(20.061 0 2.57439)
(19.5239 0 3.61169)
(18.5157 0 4.62987)
(16.8812 0 5.31602)
(14.5677 0 5.54025)
(11.7529 0 5.36233)
(8.73866 0 4.90409)
(5.76984 0 4.36083)
(2.94417 0 3.93414)
(0.22986 0 3.75645)
(-2.47046 0 3.87581)
(-5.25891 0 4.25712)
(-8.18258 0 4.78116)
(-11.1684 0 5.2532)
(-13.9923 0 5.46871)
(-16.3519 0 5.29519)
(-18.044 0 4.66388)
(-19.092 0 3.66414)
(-19.6473 0 2.61063)
(-19.8677 0 1.6667)
(-19.8552 0 0.840713)
(-19.6316 0 0.122871)
(-19.1848 0 -0.493162)
(-18.5049 0 -1.02268)
(-17.5941 0 -1.49351)
(-16.4695 0 -1.94427)
(-15.1611 0 -2.41571)
(-13.7031 0 -2.93139)
(-12.1231 0 -3.48509)
(-10.4367 0 -4.04522)
(-8.6525 0 -4.57119)
(-6.77814 0 -5.02654)
(-4.82574 0 -5.38399)
(-2.81332 0 -5.62534)
(-0.764147 0 -5.73986)
(1.29524 0 -5.72287)
(3.33739 0 -5.57504)
(5.3364 0 -5.30251)
(7.27019 0 -4.91777)
(9.12227 0 -4.44121)
(10.8819 0 -3.90261)
(12.5419 0 -3.34025)
(14.0925 0 -2.79404)
(15.5151 0 -2.29048)
(16.7795 0 -1.8277)
(17.8514 0 -1.37579)
(18.7039 0 -0.893108)
(19.3234 0 -0.343403)
(19.7112 0 0.298022)
(19.8797 0 1.04337)
(19.8367 0 1.89852)
(19.5433 0 2.87471)
(18.8762 0 3.93961)
(17.6751 0 4.87269)
(15.8028 0 5.38263)
(13.2968 0 5.4463)
(10.4028 0 5.14916)
(7.41675 0 4.64275)
(4.52658 0 4.13932)
(1.76843 0 3.81762)
(-0.925103 0 3.7747)
(-3.66031 0 4.02425)
(-6.52378 0 4.49687)
(-9.51971 0 5.03872)
(-12.5099 0 5.43984)
(-15.2213 0 5.52326)
(-17.3672 0 5.18303)
(-18.8262 0 4.38355)
(-19.6968 0 3.33456)
(-20.1377 0 2.32287)
(-20.2942 0 1.43329)
(-20.2353 0 0.657818)
(-19.9651 0 -0.0103997)
(-19.4694 0 -0.580403)
(-18.7415 0 -1.07255)
(-17.7875 0 -1.51962)
(-16.628 0 -1.9641)
(-15.295 0 -2.44618)
(-13.8213 0 -2.98213)
(-12.2301 0 -3.55624)
(-10.5328 0 -4.13113)
(-8.73507 0 -4.66523)
(-6.84405 0 -5.1237)
(-4.87217 0 -5.48142)
(-2.83829 0 -5.72195)
(-0.766558 0 -5.83571)
(1.25874 0 -7.90421)
(3.23705 0 -7.72878)
(5.18092 0 -7.40621)
(7.07191 0 -6.95141)
(8.89438 0 -6.38676)
(10.6347 0 -5.74201)
(12.2789 0 -5.05226)
(13.8083 0 -4.35251)
(15.1976 0 -3.66826)
(16.4156 0 -3.00559)
(17.4334 0 -2.34852)
(18.2316 0 -1.66741)
(18.8021 0 -0.932037)
(19.1454 0 -0.119157)
(19.2672 0 0.786358)
(19.1732 0 1.79521)
(18.8673 0 2.91688)
(18.3662 0 4.14475)
(17.6762 0 5.44401)
(16.695 0 6.75516)
(15.1625 0 7.83763)
(12.8895 0 8.25451)
(9.99019 0 8.03638)
(6.78951 0 7.50436)
(3.53272 0 7.00736)
(0.294736 0 6.7856)
(-2.93461 0 6.92703)
(-6.17149 0 7.36823)
(-9.36306 0 7.89307)
(-12.2962 0 8.16195)
(-14.6428 0 7.83781)
(-16.2485 0 6.82033)
(-17.2627 0 5.51154)
(-17.9578 0 4.19844)
(-18.4556 0 2.95079)
(-18.7579 0 1.80527)
(-18.8463 0 0.771884)
(-18.7165 0 -0.158128)
(-18.3636 0 -0.994678)
(-17.7824 0 -1.75128)
(-16.9726 0 -2.44926)
(-15.9426 0 -3.1169)
(-14.712 0 -3.7822)
(-13.3097 0 -4.46048)
(-11.767 0 -5.1463)
(-10.1107 0 -5.81538)
(-8.3606 0 -6.43389)
(-6.53216 0 -6.96763)
(-4.6401 0 -7.38765)
(-2.7008 0 -7.67236)
(-0.733025 0 -7.80786)
(1.24262 0 -7.78773)
(3.20497 0 -7.61292)
(5.13381 0 -7.29176)
(7.01096 0 -6.84007)
(8.82062 0 -6.28145)
(10.5482 0 -5.64651)
(12.1774 0 -4.97004)
(13.6868 0 -4.28444)
(15.048 0 -3.60987)
(16.2294 0 -2.94616)
(17.2041 0 -2.27354)
(17.9554 0 -1.56288)
(18.4774 0 -0.787268)
(18.7722 0 0.0724889)
(18.8454 0 1.02832)
(18.7011 0 2.09014)
(18.3458 0 3.26446)
(17.8005 0 4.53307)
(17.041 0 5.85568)
(15.9033 0 7.13225)
(14.1079 0 7.99215)
(11.5837 0 8.13826)
(8.55273 0 7.76828)
(5.33647 0 7.23582)
(2.1007 0 6.85741)
(-1.12853 0 6.80933)
(-4.37197 0 7.11604)
(-7.62678 0 7.65064)
(-10.7802 0 8.13612)
(-13.5437 0 8.21521)
(-15.6238 0 7.60643)
(-16.9844 0 6.4208)
(-17.8714 0 5.10184)
(-18.5083 0 3.81707)
(-18.961 0 2.61419)
(-19.2125 0 1.5222)
(-19.2506 0 0.541047)
(-19.0717 0 -0.33948)
(-18.6696 0 -1.13065)
(-18.0395 0 -1.84951)
(-17.1828 0 -2.52144)
(-16.1103 0 -3.17754)
(-14.8446 0 -3.84524)
(-13.4159 0 -4.5351)
(-11.8543 0 -5.23526)
(-10.1834 0 -5.91673)
(-8.42029 0 -6.54372)
(-6.5785 0 -7.08219)
(-4.67203 0 -7.50421)
(-2.71723 0 -7.78939)
(-0.733264 0 -7.92472)
(1.19741 0 -9.83488)
(3.08055 0 -9.63863)
(4.93396 0 -9.278)
(6.74065 0 -8.76949)
(8.48452 0 -8.13662)
(10.1494 0 -7.40863)
(11.717 0 -6.61751)
(13.1651 0 -5.79272)
(14.4667 0 -4.95424)
(15.593 0 -4.10673)
(16.5192 0 -3.23928)
(17.2288 0 -2.33185)
(17.7148 0 -1.36402)
(17.9772 0 -0.320184)
(18.0199 0 0.809057)
(17.8495 0 2.02832)
(17.4758 0 3.34066)
(16.9133 0 4.74946)
(16.1706 0 6.25157)
(15.2489 0 7.81392)
(14.1113 0 9.32498)
(12.5415 0 10.5355)
(10.2004 0 11.0115)
(7.1803 0 10.8147)
(3.81915 0 10.4228)
(0.335416 0 10.2172)
(-3.14997 0 10.3359)
(-6.5228 0 10.6814)
(-9.59194 0 10.9112)
(-12.031 0 10.5388)
(-13.6778 0 9.39925)
(-14.8403 0 7.90147)
(-15.7664 0 6.32864)
(-16.5109 0 4.8046)
(-17.0719 0 3.3708)
(-17.4426 0 2.03272)
(-17.6082 0 0.787442)
(-17.559 0 -0.367815)
(-17.2888 0 -1.43655)
(-16.7941 0 -2.42653)
(-16.0751 0 -3.35146)
(-15.1392 0 -4.22994)
(-14.0029 0 -5.08046)
(-12.691 0 -5.91318)
(-11.2325 0 -6.72365)
(-9.65521 0 -7.49271)
(-7.9823 0 -8.19189)
(-6.23309 0 -8.79022)
(-4.42474 0 -9.2595)
(-2.57405 0 -9.57733)
(-0.698426 0 -9.72861)
(1.18402 0 -9.70613)
(3.05494 0 -9.51098)
(4.89636 0 -9.15241)
(6.69108 0 -8.64749)
(8.42234 0 -8.02031)
(10.0726 0 -7.30014)
(11.6218 0 -6.51792)
(13.0453 0 -5.70039)
(14.3147 0 -4.86329)
(15.4016 0 -4.007)
(16.2827 0 -3.11839)
(16.9442 0 -2.17824)
(17.3809 0 -1.16891)
(17.5937 0 -0.0782294)
(17.5868 0 1.10015)
(17.367 0 2.36918)
(16.9457 0 3.73193)
(16.3375 0 5.19039)
(15.5453 0 6.73396)
(14.5701 0 8.30294)
(13.3159 0 9.74659)
(11.4801 0 10.7152)
(8.84663 0 10.8918)
(5.67174 0 10.5862)
(2.25679 0 10.2764)
(-1.23826 0 10.2409)
(-4.70338 0 10.5166)
(-8.00365 0 10.9032)
(-10.8801 0 10.9663)
(-13.0071 0 10.2744)
(-14.4308 0 8.94715)
(-15.4999 0 7.40708)
(-16.3758 0 5.85315)
(-17.0713 0 4.37389)
(-17.5862 0 2.99016)
(-17.9082 0 1.70219)
(-18.0238 0 0.506432)
(-17.9243 0 -0.600226)
(-17.6039 0 -1.62336)
(-17.0594 0 -2.57393)
(-16.2923 0 -3.46905)
(-15.3119 0 -4.32972)
(-14.1371 0 -5.1745)
(-12.7945 0 -6.0106)
(-11.3128 0 -6.82905)
(-9.71778 0 -7.60671)
(-8.03062 0 -8.31284)
(-6.26877 0 -8.91577)
(-4.44826 0 -9.38756)
(-2.58537 0 -9.70642)
(-0.697404 0 -9.85782)
(1.12882 0 -11.6747)
(2.90398 0 -11.4586)
(4.65097 0 -11.0608)
(6.35287 0 -10.4983)
(7.99269 0 -9.79426)
(9.55256 0 -8.97651)
(11.0125 0 -8.07406)
(12.3497 0 -7.113)
(13.5388 0 -6.11151)
(14.5548 0 -5.07639)
(15.3764 0 -4.00311)
(15.9899 0 -2.8799)
(16.3887 0 -1.69332)
(16.5721 0 -0.432261)
(16.5432 0 0.910473)
(16.3074 0 2.33794)
(15.8729 0 3.84947)
(15.2517 0 5.43998)
(14.4591 0 7.09839)
(13.5109 0 8.80912)
(12.4114 0 10.5382)
(11.1102 0 12.1679)
(9.38865 0 13.3981)
(6.90127 0 13.8895)
(3.77249 0 13.8599)
(0.346203 0 13.7624)
(-3.0962 0 13.7932)
(-6.27838 0 13.8151)
(-8.87309 0 13.4013)
(-10.679 0 12.25)
(-12.01 0 10.6418)
(-13.1172 0 8.90376)
(-14.0678 0 7.17427)
(-14.8612 0 5.49351)
(-15.482 0 3.87784)
(-15.9149 0 2.33937)
(-16.1475 0 0.884169)
(-16.1716 0 -0.486081)
(-15.982 0 -1.77313)
(-15.5762 0 -2.98254)
(-14.9552 0 -4.12367)
(-14.1255 0 -5.20823)
(-13.1012 0 -6.24659)
(-11.9035 0 -7.24247)
(-10.5576 0 -8.189)
(-9.08941 0 -9.06845)
(-7.5225 0 -9.85556)
(-5.87771 0 -10.5223)
(-4.17377 0 -11.042)
(-2.42837 0 -11.3928)
(-0.658914 0 -11.5595)
(1.11706 0 -11.5348)
(2.882 0 -11.3196)
(4.6184 0 -10.9236)
(6.30883 0 -10.3637)
(7.93544 0 -9.66333)
(9.47905 0 -8.84976)
(10.9181 0 -7.95081)
(12.2284 0 -6.99025)
(13.3838 0 -5.9832)
(14.3597 0 -4.93361)
(15.1366 0 -3.83553)
(15.7026 0 -2.67777)
(16.0525 0 -1.44896)
(16.1866 0 -0.140674)
(16.1082 0 1.25162)
(15.823 0 2.72877)
(15.3402 0 4.28814)
(14.6733 0 5.92217)
(13.838 0 7.61739)
(12.848 0 9.35506)
(11.6951 0 11.0795)
(10.2746 0 12.6096)
(8.28115 0 13.577)
(5.49905 0 13.8318)
(2.22253 0 13.7755)
(-1.24178 0 13.7773)
(-4.61873 0 13.8885)
(-7.6177 0 13.8296)
(-9.89202 0 13.141)
(-11.4711 0 11.767)
(-12.7076 0 10.0912)
(-13.7665 0 8.36075)
(-14.6754 0 6.66167)
(-15.4249 0 5.01932)
(-15.9989 0 3.44836)
(-16.3826 0 1.95821)
(-16.5652 0 0.552646)
(-16.5392 0 -0.768622)
(-16.2998 0 -2.00968)
(-15.8447 0 -3.17877)
(-15.1761 0 -4.28786)
(-14.3021 0 -5.35041)
(-13.2387 0 -6.37686)
(-12.0084 0 -7.36902)
(-10.6368 0 -8.31696)
(-9.14867 0 -9.19999)
(-7.56608 0 -9.99079)
(-5.90835 0 -10.6603)
(-4.19302 0 -11.1817)
(-2.43701 0 -11.5332)
(-0.657308 0 -11.7)
(1.05104 0 -13.3976)
(2.70303 0 -13.162)
(4.32683 0 -12.7278)
(5.90512 0 -12.1117)
(7.42026 0 -11.3362)
(8.85365 0 -10.4276)
(10.1853 0 -9.41289)
(11.3934 0 -8.31626)
(12.4554 0 -7.1555)
(13.35 0 -5.93974)
(14.0596 0 -4.66965)
(14.5722 0 -3.33996)
(14.882 0 -1.94324)
(14.9878 0 -0.472904)
(14.8922 0 1.07502)
(14.6002 0 2.70099)
(14.1192 0 4.40176)
(13.46 0 6.17001)
(12.6358 0 7.993)
(11.6619 0 9.85165)
(10.5526 0 11.7191)
(9.31124 0 13.552)
(7.86187 0 15.2219)
(5.96089 0 16.4193)
(3.3618 0 16.9732)
(0.32298 0 17.0947)
(-2.7446 0 16.9595)
(-5.43266 0 16.4439)
(-7.4291 0 15.3134)
(-8.91786 0 13.6704)
(-10.171 0 11.8319)
(-11.2851 0 9.94942)
(-12.2621 0 8.07121)
(-13.0882 0 6.22474)
(-13.7482 0 4.42992)
(-14.2287 0 2.70067)
(-14.5188 0 1.04542)
(-14.611 0 -0.531399)
(-14.5005 0 -2.02881)
(-14.1852 0 -3.44916)
(-13.6663 0 -4.79732)
(-12.9499 0 -6.07911)
(-12.0481 0 -7.29843)
(-10.9784 0 -8.45379)
(-9.7626 0 -9.53575)
(-8.42361 0 -10.5268)
(-6.9838 0 -11.4033)
(-5.46397 0 -12.1392)
(-3.88347 0 -12.7096)
(-2.26069 0 -13.0932)
(-0.613551 0 -13.2752)
(1.04018 0 -13.2482)
(2.68276 0 -13.0133)
(4.29638 0 -12.5799)
(5.86305 0 -11.9647)
(7.3642 0 -11.19)
(8.78013 0 -10.2816)
(10.0896 0 -9.26504)
(11.27 0 -8.16277)
(12.2984 0 -6.99032)
(13.1539 0 -5.75497)
(13.8203 0 -4.45649)
(14.2871 0 -3.09016)
(14.5496 0 -1.65019)
(14.6074 0 -0.132245)
(14.4636 0 1.46522)
(14.1236 0 3.14032)
(13.5956 0 4.88767)
(12.8912 0 6.69757)
(12.0247 0 8.55452)
(11.011 0 10.4368)
(9.863 0 12.3145)
(8.56432 0 14.1251)
(6.97873 0 15.6672)
(4.799 0 16.6298)
(1.97412 0 17.021)
(-1.12466 0 17.0897)
(-4.08922 0 16.8821)
(-6.51352 0 16.1708)
(-8.26321 0 14.8189)
(-9.6433 0 13.0835)
(-10.8482 0 11.2348)
(-11.9236 0 9.36655)
(-12.8599 0 7.51482)
(-13.6426 0 5.70428)
(-14.2566 0 3.95239)
(-14.6892 0 2.27033)
(-14.9307 0 0.664263)
(-14.9742 0 -0.86353)
(-14.8153 0 -2.31445)
(-14.4524 0 -3.69324)
(-13.8876 0 -5.00693)
(-13.1283 0 -6.2627)
(-12.1881 0 -7.46462)
(-11.0858 0 -8.60998)
(-9.8433 0 -9.68728)
(-8.48308 0 -10.6768)
(-7.02646 0 -11.5532)
(-5.49308 0 -12.2894)
(-3.9012 0 -12.8599)
(-2.26836 0 -13.2434)
(-0.611852 0 -13.4251)
(0.964027 0 -14.9896)
(2.47795 0 -14.7344)
(3.96316 0 -14.263)
(5.402 0 -13.5919)
(6.77651 0 -12.7431)
(8.06821 0 -11.7421)
(9.25788 0 -10.6146)
(10.3257 0 -9.38416)
(11.2522 0 -8.06929)
(12.0194 0 -6.68166)
(12.613 0 -5.22629)
(13.023 0 -3.70311)
(13.2446 0 -2.10957)
(13.2767 0 -0.442972)
(13.1218 0 1.29767)
(12.7847 0 3.11025)
(12.2726 0 4.98891)
(11.5953 0 6.92358)
(10.7646 0 8.89948)
(9.79445 0 10.8973)
(8.69823 0 12.8938)
(7.49007 0 14.8614)
(6.16695 0 16.7462)
(4.62816 0 18.3825)
(2.65733 0 19.4792)
(0.27068 0 19.8675)
(-2.1491 0 19.5317)
(-4.19832 0 18.4899)
(-5.78539 0 16.8836)
(-7.12552 0 14.995)
(-8.34015 0 13.0137)
(-9.44162 0 10.9995)
(-10.4156 0 8.98068)
(-11.2489 0 6.9801)
(-11.9278 0 5.01768)
(-12.4402 0 3.10922)
(-12.7763 0 1.26598)
(-12.9289 0 -0.504832)
(-12.8933 0 -2.19959)
(-12.6673 0 -3.81763)
(-12.252 0 -5.35996)
(-11.6525 0 -6.82758)
(-10.8787 0 -8.21922)
(-9.94535 0 -9.52894)
(-8.87042 0 -10.7446)
(-7.6739 0 -11.8479)
(-6.37619 0 -12.8156)
(-4.99721 0 -13.6228)
(-3.5562 0 -14.2454)
(-2.07183 0 -14.6628)
(-0.562475 0 -14.8605)
(0.95364 0 -14.8311)
(2.45831 0 -14.5759)
(3.93329 0 -14.104)
(5.36015 0 -13.4318)
(6.72009 0 -12.5808)
(7.99369 0 -11.5758)
(9.16087 0 -10.4415)
(10.2012 0 -9.20007)
(11.0951 0 -7.86828)
(11.8252 0 -6.45664)
(12.378 0 -4.96967)
(12.7448 0 -3.40782)
(12.9217 0 -1.76991)
(12.9084 0 -0.0552171)
(12.708 0 1.73496)
(12.3256 0 3.59608)
(11.7691 0 5.51992)
(11.0491 0 7.49407)
(10.1781 0 9.50155)
(9.16993 0 11.5215)
(8.03771 0 13.5305)
(6.79508 0 15.4961)
(5.4085 0 17.338)
(3.72087 0 18.8222)
(1.54702 0 19.6874)
(-0.905202 0 19.8362)
(-3.21383 0 19.2591)
(-5.0545 0 17.9983)
(-6.52024 0 16.2704)
(-7.80903 0 14.3553)
(-8.98963 0 12.3765)
(-10.0544 0 10.3772)
(-10.9896 0 8.38283)
(-11.7816 0 6.41575)
(-12.417 0 4.4942)
(-12.8843 0 2.6317)
(-13.1745 0 0.837172)
(-13.2811 0 -0.884518)
(-13.1996 0 -2.53217)
(-12.9287 0 -4.10735)
(-12.4701 0 -5.61289)
(-11.8301 0 -7.05095)
(-11.0198 0 -8.42047)
(-10.0546 0 -9.71481)
(-8.95305 0 -10.9204)
(-7.73484 0 -12.0173)
(-6.41969 0 -12.9811)
(-5.02661 0 -13.7857)
(-3.57393 0 -14.4065)
(-2.07951 0 -14.8226)
(-0.56099 0 -15.0194)
(0.868364 0 -16.4365)
(2.23056 0 -16.1612)
(3.5637 0 -15.6519)
(4.85002 0 -14.925)
(6.07174 0 -14.0024)
(7.21106 0 -12.909)
(8.25011 0 -11.6705)
(9.17132 0 -10.3106)
(9.95811 0 -8.84921)
(10.5958 0 -7.3005)
(11.073 0 -5.6732)
(11.382 0 -3.9715)
(11.5191 0 -2.1969)
(11.484 0 -0.350125)
(11.2796 0 1.56705)
(10.911 0 3.55018)
(10.3855 0 5.59115)
(9.71246 0 7.6777)
(8.90327 0 9.79307)
(7.9712 0 11.9165)
(6.93048 0 14.0247)
(5.79704 0 16.0944)
(4.59291 0 18.0917)
(3.30904 0 19.92)
(1.86143 0 21.3099)
(0.204699 0 21.8781)
(-1.47323 0 21.4061)
(-2.95652 0 20.0685)
(-4.25706 0 18.2471)
(-5.46676 0 16.2369)
(-6.60505 0 14.1504)
(-7.65038 0 12.0232)
(-8.58608 0 9.87767)
(-9.398 0 7.73656)
(-10.0728 0 5.62115)
(-10.5991 0 3.54916)
(-10.9673 0 1.53413)
(-11.1701 0 -0.414402)
(-11.2024 0 -2.29041)
(-11.0617 0 -4.09044)
(-10.7482 0 -5.81209)
(-10.2657 0 -7.45231)
(-9.62198 0 -9.00557)
(-8.82875 0 -10.4622)
(-7.90086 0 -11.8073)
(-6.85535 0 -13.021)
(-5.71035 0 -14.08)
(-4.48438 0 -14.9592)
(-3.19602 0 -15.6349)
(-1.86379 0 -16.0869)
(-0.506183 0 -16.3007)
(0.858294 0 -16.269)
(2.21114 0 -15.9929)
(3.53386 0 -15.4817)
(4.80794 0 -14.7515)
(6.01485 0 -13.8236)
(7.13602 0 -12.7224)
(8.15296 0 -11.4726)
(9.04774 0 -10.0971)
(9.80379 0 -8.61428)
(10.4069 0 -7.03778)
(10.8465 0 -5.37605)
(11.1157 0 -3.63382)
(11.2116 0 -1.81379)
(11.135 0 0.0814933)
(10.8889 0 2.0481)
(10.4792 0 4.07912)
(9.91357 0 6.16399)
(9.20216 0 8.28808)
(8.35694 0 10.4326)
(7.39154 0 12.5757)
(6.32032 0 14.6946)
(5.16188 0 16.7662)
(3.93388 0 18.7441)
(2.59703 0 20.4757)
(1.05469 0 21.6239)
(-0.642957 0 21.8275)
(-2.25461 0 21.0127)
(-3.64905 0 19.4732)
(-4.90715 0 17.5836)
(-6.09463 0 15.562)
(-7.20592 0 13.4797)
(-8.2198 0 11.3651)
(-9.12124 0 9.24142)
(-9.8962 0 7.13146)
(-10.5319 0 5.05509)
(-11.0173 0 3.0279)
(-11.3438 0 1.06104)
(-11.5044 0 -0.838388)
(-11.4947 0 -2.66675)
(-11.3127 0 -4.42269)
(-10.9593 0 -6.10546)
(-10.4394 0 -7.71303)
(-9.76149 0 -9.24017)
(-8.9381 0 -10.6768)
(-7.98447 0 -12.0071)
(-6.91752 0 -13.2102)
(-5.75496 0 -14.2614)
(-4.51464 0 -15.1352)
(-3.21437 0 -15.807)
(-1.87192 0 -16.2564)
(-0.505072 0 -16.4686)
(0.764942 0 -17.7253)
(1.96331 0 -17.4297)
(3.13282 0 -16.8825)
(4.25601 0 -16.1)
(5.31574 0 -15.1043)
(6.29529 0 -13.9205)
(7.17849 0 -12.5749)
(7.95011 0 -11.0923)
(8.59636 0 -9.4939)
(9.10561 0 -7.79666)
(9.46908 0 -6.01249)
(9.68132 0 -4.14916)
(9.74021 0 -2.21162)
(9.64672 0 -0.203588)
(9.40446 0 1.87061)
(9.01931 0 4.0043)
(8.49916 0 6.1874)
(7.85383 0 8.40567)
(7.09507 0 10.6404)
(6.23676 0 12.869)
(5.29515 0 15.0657)
(4.29009 0 17.2033)
(3.25159 0 19.248)
(2.21471 0 21.116)
(1.1852 0 22.567)
(0.14401 0 23.1792)
(-0.900016 0 22.6744)
(-1.93169 0 21.2728)
(-2.96666 0 19.4074)
(-4.00436 0 17.3494)
(-5.01142 0 15.1951)
(-5.9557 0 12.9793)
(-6.81652 0 10.728)
(-7.57733 0 8.46669)
(-8.22408 0 6.21866)
(-8.74486 0 4.00356)
(-9.12973 0 1.8369)
(-9.37076 0 -0.269705)
(-9.46206 0 -2.30797)
(-9.40004 0 -4.27189)
(-9.18379 0 -6.15602)
(-8.81549 0 -7.95386)
(-8.3007 0 -9.65625)
(-7.64839 0 -11.2502)
(-6.87046 0 -12.7181)
(-5.98114 0 -14.0385)
(-4.99621 0 -15.1866)
(-3.93249 0 -16.1372)
(-2.80745 0 -16.866)
(-1.63899 0 -17.3527)
(-0.445306 0 -17.5826)
(0.755221 0 -17.5485)
(1.94417 0 -17.2515)
(3.10319 0 -16.7009)
(4.21416 0 -15.9128)
(5.25926 0 -14.909)
(6.22116 0 -13.714)
(7.08327 0 -12.3534)
(7.83014 0 -10.851)
(8.44807 0 -9.22755)
(8.92585 0 -7.49938)
(9.25537 0 -5.67843)
(9.43195 0 -3.77302)
(9.45424 0 -1.78925)
(9.32388 0 0.267465)
(9.04509 0 2.3907)
(8.6243 0 4.57135)
(8.06999 0 6.79682)
(7.39258 0 9.0505)
(6.60452 0 11.3117)
(5.72047 0 13.5564)
(4.75773 0 15.7589)
(3.73918 0 17.8926)
(2.69999 0 19.9145)
(1.66757 0 21.695)
(0.633525 0 22.9067)
(-0.411841 0 23.1233)
(-1.44907 0 22.2524)
(-2.47873 0 20.6576)
(-3.51817 0 18.7291)
(-4.55161 0 16.6554)
(-5.54248 0 14.4995)
(-6.46414 0 12.2918)
(-7.29801 0 10.059)
(-8.02848 0 7.82624)
(-8.64227 0 5.61525)
(-9.12811 0 3.44353)
(-9.4767 0 1.32421)
(-9.68066 0 -0.733578)
(-9.73466 0 -2.72391)
(-9.63575 0 -4.64277)
(-9.38372 0 -6.48627)
(-8.98155 0 -8.24888)
(-8.43558 0 -9.92183)
(-7.75538 0 -11.4919)
(-6.95322 0 -12.9411)
(-6.04335 0 -14.2469)
(-5.04128 0 -15.3841)
(-3.96333 0 -16.3264)
(-2.82637 0 -17.0492)
(-1.64762 0 -17.5319)
(-0.444618 0 -17.7597)
(0.654687 0 -18.8445)
(1.67869 0 -18.5291)
(2.67478 0 -17.9446)
(3.62625 0 -17.108)
(4.51703 0 -16.0417)
(5.33183 0 -14.7718)
(6.0564 0 -13.3253)
(6.67786 0 -11.7286)
(7.18508 0 -10.0048)
(7.56914 0 -8.17327)
(7.82385 0 -6.24894)
(7.94589 0 -4.24265)
(7.93493 0 -2.16233)
(7.79334 0 -0.0144111)
(7.52593 0 2.19441)
(7.13967 0 4.45541)
(6.64344 0 6.75653)
(6.04803 0 9.08163)
(5.36622 0 11.4099)
(4.61329 0 13.7159)
(3.80782 0 15.9702)
(2.97356 0 18.1386)
(2.14468 0 20.1768)
(1.36932 0 21.996)
(0.688956 0 23.3774)
(0.0970609 0 23.9515)
(-0.487645 0 23.4766)
(-1.15378 0 22.1433)
(-1.91754 0 20.3308)
(-2.74063 0 18.2833)
(-3.57316 0 16.1004)
(-4.3786 0 13.8278)
(-5.13214 0 11.499)
(-5.81468 0 9.14394)
(-6.41063 0 6.78857)
(-6.90696 0 4.45474)
(-7.29274 0 2.15999)
(-7.55896 0 -0.0821121)
(-7.69858 0 -2.26115)
(-7.70675 0 -4.36873)
(-7.58108 0 -6.39668)
(-7.32196 0 -8.33545)
(-6.93276 0 -10.1727)
(-6.41988 0 -11.8925)
(-5.7925 0 -13.4746)
(-5.06217 0 -14.8953)
(-4.24231 0 -16.1287)
(-3.34783 0 -17.148)
(-2.3947 0 -17.9285)
(-1.39978 0 -18.4491)
(-0.380464 0 -18.6949)
(0.64548 0 -18.6585)
(1.66021 0 -18.3409)
(2.64603 0 -17.7517)
(3.58565 0 -16.9076)
(4.46243 0 -15.8306)
(5.26063 0 -14.5465)
(5.96569 0 -13.0817)
(6.56461 0 -11.4619)
(7.04642 0 -9.71005)
(7.40262 0 -7.84512)
(7.62756 0 -5.88217)
(7.71866 0 -3.8327)
(7.67627 0 -1.70575)
(7.50344 0 0.490608)
(7.20562 0 2.74762)
(6.79039 0 5.05414)
(6.26723 0 7.39559)
(5.64761 0 9.75335)
(4.94516 0 12.1044)
(4.17626 0 14.4217)
(3.36119 0 16.6747)
(2.52703 0 18.8278)
(1.71442 0 20.8278)
(0.973706 0 22.5472)
(0.333512 0 23.6951)
(-0.242605 0 23.8992)
(-0.852231 0 23.0799)
(-1.55918 0 21.5537)
(-2.35318 0 19.6637)
(-3.18752 0 17.5858)
(-4.01697 0 15.3913)
(-4.81078 0 13.1203)
(-5.54681 0 10.8055)
(-6.20747 0 8.47557)
(-6.77819 0 6.15463)
(-7.24672 0 3.86227)
(-7.60277 0 1.61355)
(-7.83795 0 -0.580465)
(-7.94584 0 -2.71168)
(-7.92223 0 -4.77365)
(-7.76542 0 -6.75969)
(-7.47652 0 -8.66123)
(-7.05959 0 -10.4664)
(-6.52159 0 -12.1592)
(-5.87205 0 -13.7192)
(-5.12261 0 -15.1222)
(-4.28654 0 -16.3415)
(-3.37839 0 -17.3501)
(-2.41368 0 -18.1228)
(-1.40867 0 -18.6382)
(-0.380173 0 -18.8812)
(0.538456 0 -19.7842)
(1.37896 0 -19.4498)
(2.19332 0 -18.83)
(2.96608 0 -17.9423)
(3.68263 0 -16.8099)
(4.32944 0 -15.4599)
(4.89434 0 -13.921)
(5.36677 0 -12.221)
(5.73809 0 -10.3852)
(6.00193 0 -8.43546)
(6.15442 0 -6.38926)
(6.19435 0 -4.26027)
(6.12314 0 -2.05908)
(5.94467 0 0.205387)
(5.66513 0 2.52424)
(5.2927 0 4.88674)
(4.83742 0 7.27898)
(4.31122 0 9.68279)
(3.72808 0 12.075)
(3.1046 0 14.4272)
(2.461 0 16.705)
(1.8229 0 18.8671)
(1.2248 0 20.8576)
(0.712739 0 22.5802)
(0.32878 0 23.8417)
(0.0607969 0 24.3505)
(-0.197588 0 23.9262)
(-0.562587 0 22.7109)
(-1.05893 0 21.0004)
(-1.64748 0 19.0061)
(-2.28033 0 16.8327)
(-2.92102 0 14.538)
(-3.54287 0 12.1639)
(-4.12505 0 9.74506)
(-4.65056 0 7.31088)
(-5.10512 0 4.88562)
(-5.4766 0 2.48886)
(-5.75478 0 0.136111)
(-5.93132 0 -2.1602)
(-5.99996 0 -4.3894)
(-5.95673 0 -6.54084)
(-5.80022 0 -8.60222)
(-5.5317 0 -10.5584)
(-5.15517 0 -12.3905)
(-4.67729 0 -14.0759)
(-4.10708 0 -15.5887)
(-3.45559 0 -16.901)
(-2.73562 0 -17.9848)
(-1.96139 0 -18.8141)
(-1.14821 0 -19.3669)
(-0.312207 0 -19.6279)
(0.530007 0 -19.5892)
(1.36171 0 -19.2521)
(2.16639 0 -18.6263)
(2.9281 0 -17.7293)
(3.63176 0 -16.584)
(4.2635 0 -15.2173)
(4.81095 0 -13.6574)
(5.26352 0 -11.9318)
(5.61277 0 -10.0656)
(5.85274 0 -8.08055)
(5.98008 0 -5.99449)
(5.99424 0 -3.82175)
(5.89732 0 -1.57406)
(5.69389 0 0.738088)
(5.39078 0 3.10371)
(4.99683 0 5.50969)
(4.52274 0 7.93952)
(3.98117 0 10.3724)
(3.38703 0 12.7829)
(2.75819 0 15.1401)
(2.11675 0 17.4078)
(1.49144 0 19.5414)
(0.921952 0 21.4753)
(0.457247 0 23.083)
(0.126301 0 24.1213)
(-0.121138 0 24.3047)
(-0.412349 0 23.5737)
(-0.831546 0 22.167)
(-1.37056 0 20.3613)
(-1.98292 0 18.3193)
(-2.62525 0 16.1224)
(-3.26576 0 13.8214)
(-3.88047 0 11.4556)
(-4.45023 0 9.05753)
(-4.95919 0 6.65443)
(-5.39393 0 4.26807)
(-5.74302 0 1.91542)
(-5.9969 0 -0.390533)
(-6.14788 0 -2.63966)
(-6.19037 0 -4.82322)
(-6.12109 0 -6.93201)
(-5.93931 0 -8.95474)
(-5.64693 0 -10.8768)
(-5.24849 0 -12.6795)
(-4.751 0 -14.3401)
(-4.16361 0 -15.8325)
(-3.49734 0 -17.1283)
(-2.76475 0 -18.1992)
(-1.97967 0 -19.019)
(-1.15697 0 -19.5655)
(-0.312242 0 -19.8231)
(0.416994 0 -20.5357)
(1.06606 0 -20.1839)
(1.6916 0 -19.5318)
(2.2799 0 -18.5973)
(2.81821 0 -17.4051)
(3.29503 0 -15.9835)
(3.70038 0 -14.3627)
(4.02603 0 -12.5723)
(4.2657 0 -10.64)
(4.41532 0 -8.58963)
(4.47316 0 -6.44138)
(4.43992 0 -4.21138)
(4.31868 0 -1.91267)
(4.1148 0 0.443581)
(3.83573 0 2.84637)
(3.49084 0 5.28308)
(3.09124 0 7.73798)
(2.64979 0 10.1909)
(2.18134 0 12.6165)
(1.70316 0 14.983)
(1.23573 0 17.2519)
(0.803976 0 19.3755)
(0.438952 0 21.29)
(0.177649 0 22.8967)
(0.0488037 0 24.0306)
(0.0304301 0 24.4737)
(0.0207937 0 24.1002)
(-0.0898508 0 23.0094)
(-0.334536 0 21.4191)
(-0.687723 0 19.5057)
(-1.11148 0 17.374)
(-1.57345 0 15.0903)
(-2.04783 0 12.703)
(-2.51355 0 10.2516)
(-2.95295 0 7.7686)
(-3.35087 0 5.28075)
(-3.69419 0 2.80962)
(-3.9716 0 0.372588)
(-4.17353 0 -2.01599)
(-4.29237 0 -4.34333)
(-4.32265 0 -6.59643)
(-4.26125 0 -8.76051)
(-4.10747 0 -10.8178)
(-3.86318 0 -12.7469)
(-3.53268 0 -14.5227)
(-3.12256 0 -16.1171)
(-2.64152 0 -17.5001)
(-2.10013 0 -18.6422)
(-1.51048 0 -19.5159)
(-0.885991 0 -20.0983)
(-0.241 0 -20.3731)
(0.409589 0 -20.3324)
(1.05072 0 -19.9773)
(1.66759 0 -19.3181)
(2.24607 0 -18.373)
(2.77304 0 -17.1661)
(3.23678 0 -15.7257)
(3.62717 0 -14.0817)
(3.93604 0 -12.2638)
(4.15736 0 -10.2993)
(4.28743 0 -8.21245)
(4.32507 0 -6.0237)
(4.27158 0 -3.74996)
(4.13073 0 -1.40542)
(3.90854 0 0.997133)
(3.61317 0 3.44466)
(3.25463 0 5.92215)
(2.8447 0 8.41121)
(2.39701 0 10.889)
(1.9273 0 13.3273)
(1.45401 0 15.692)
(0.999292 0 17.9416)
(0.59046 0 20.024)
(0.261716 0 21.8661)
(0.0506463 0 23.347)
(-0.0271889 0 24.2719)
(-0.0267619 0 24.4344)
(-0.0667768 0 23.7931)
(-0.230718 0 22.5166)
(-0.522377 0 20.8173)
(-0.907982 0 18.8409)
(-1.35161 0 16.6741)
(-1.82396 0 14.3754)
(-2.30137 0 11.99)
(-2.76428 0 9.55426)
(-3.19613 0 7.09829)
(-3.58261 0 4.64607)
(-3.9113 0 2.2165)
(-4.17157 0 -0.175623)
(-4.35451 0 -2.51823)
(-4.4532 0 -4.80046)
(-4.46286 0 -7.01078)
(-4.38101 0 -9.13542)
(-4.2076 0 -11.1573)
(-3.94499 0 -13.0552)
(-3.59783 0 -14.8041)
(-3.17294 0 -16.3758)
(-2.67902 0 -17.7404)
(-2.12648 0 -18.8678)
(-1.52718 0 -19.7306)
(-0.89413 0 -20.3056)
(-0.241262 0 -20.5767)
(0.290948 0 -21.0915)
(0.741653 0 -20.7245)
(1.17231 0 -20.0439)
(1.57138 0 -19.0689)
(1.92836 0 -17.825)
(2.23404 0 -16.3421)
(2.48077 0 -14.652)
(2.66259 0 -12.7863)
(2.77549 0 -10.7745)
(2.81748 0 -8.64295)
(2.78872 0 -6.41388)
(2.69159 0 -4.1058)
(2.53061 0 -1.73397)
(2.31242 0 0.688339)
(2.04554 0 3.14819)
(1.74028 0 5.63122)
(1.40846 0 8.12002)
(1.06349 0 10.5927)
(0.720449 0 13.0217)
(0.396309 0 15.3729)
(0.110403 0 17.6044)
(-0.115104 0 19.6645)
(-0.255081 0 21.4856)
(-0.283834 0 22.9727)
(-0.187954 0 23.9888)
(0.00308234 0 24.375)
(0.201186 0 24.0458)
(0.312709 0 23.0685)
(0.29982 0 21.6002)
(0.172683 0 19.7838)
(-0.0430038 0 17.7187)
(-0.321453 0 15.4744)
(-0.639918 0 13.104)
(-0.978628 0 10.6502)
(-1.32025 0 8.14819)
(-1.64944 0 5.62686)
(-1.95252 0 3.10958)
(-2.21741 0 0.615436)
(-2.43362 0 -1.83944)
(-2.5924 0 -4.24029)
(-2.68699 0 -6.57197)
(-2.71276 0 -8.81741)
(-2.66731 0 -10.9565)
(-2.55053 0 -12.9653)
(-2.36459 0 -14.8165)
(-2.11379 0 -16.4799)
(-1.80446 0 -17.9235)
(-1.44476 0 -19.1159)
(-1.04443 0 -20.0282)
(-0.614561 0 -20.6364)
(-0.167228 0 -20.9235)
(0.284882 0 -20.8809)
(0.728922 0 -20.5101)
(1.15232 0 -19.8217)
(1.54322 0 -18.8347)
(1.89084 0 -17.5747)
(2.18583 0 -16.0715)
(2.42049 0 -14.3567)
(2.58897 0 -12.462)
(2.68752 0 -10.417)
(2.71456 0 -8.24828)