/*--------------------------------*- C++ -*----------------------------------*\
| =========                 |                                                 |
| \\      /  F ield         | OpenFOAM: The Open Source CFD Toolbox           |
|  \\    /   O peration     | Version:  2.3.0                                 |
|   \\  /    A nd           | Web:      www.OpenFOAM.org                      |
|    \\/     M anipulation  |                                                 |
\*---------------------------------------------------------------------------*/
FoamFile
{
    version     2.0;
    format      ascii;
    class       volVectorField;
    location    "13000";
    object      U;
}
// * * * * * * * * * * * * * * * * * * * * * * * * * * * * * * * * * * * * * //

dimensions      [0 1 -1 0 0 0 0];

internalField   nonuniform List<vector> 
3060
(
(6.04585e-06 0 -4.09723e-06)
(1.55314e-05 0 -3.95895e-06)
(2.47836e-05 0 -3.70319e-06)
(3.36693e-05 0 -3.33646e-06)
(4.20664e-05 0 -2.86929e-06)
(4.98664e-05 0 -2.31945e-06)
(5.69769e-05 0 -1.7149e-06)
(6.33216e-05 0 -1.09392e-06)
(6.88386e-05 0 -4.99757e-07)
(7.34715e-05 0 2.9548e-08)
(7.7154e-05 0 4.70537e-07)
(7.97917e-05 0 8.17249e-07)
(8.12465e-05 0 1.07698e-06)
(8.13294e-05 0 1.2625e-06)
(7.98259e-05 0 1.39897e-06)
(7.65406e-05 0 1.54615e-06)
(7.13991e-05 0 1.76491e-06)
(6.45243e-05 0 2.02288e-06)
(5.62491e-05 0 2.19464e-06)
(4.71294e-05 0 2.19014e-06)
(3.77951e-05 0 2.02863e-06)
(2.8804e-05 0 1.76291e-06)
(2.05413e-05 0 1.46866e-06)
(1.31112e-05 0 1.21697e-06)
(6.36471e-06 0 1.05325e-06)
(-5.4223e-09 0 9.97104e-07)
(-6.37385e-06 0 1.05331e-06)
(-1.31151e-05 0 1.21703e-06)
(-2.05362e-05 0 1.46867e-06)
(-2.87854e-05 0 1.76272e-06)
(-3.77572e-05 0 2.0279e-06)
(-4.70647e-05 0 2.18832e-06)
(-5.61466e-05 0 2.19121e-06)
(-6.43702e-05 0 2.0183e-06)
(-7.11783e-05 0 1.76038e-06)
(-7.62355e-05 0 1.54132e-06)
(-7.94168e-05 0 1.39083e-06)
(-8.07991e-05 0 1.24653e-06)
(-8.05794e-05 0 1.04983e-06)
(-7.89751e-05 0 7.76383e-07)
(-7.61757e-05 0 4.13802e-07)
(-7.23202e-05 0 -4.35941e-08)
(-6.75052e-05 0 -5.87349e-07)
(-6.18005e-05 0 -1.19128e-06)
(-5.52677e-05 0 -1.81536e-06)
(-4.79752e-05 0 -2.41575e-06)
(-4.00054e-05 0 -2.95473e-06)
(-3.14572e-05 0 -3.40537e-06)
(-2.24446e-05 0 -3.75086e-06)
(-1.30947e-05 0 -3.98127e-06)
(-3.54517e-06 0 -4.09027e-06)
(6.05893e-06 0 -4.07367e-06)
(1.55699e-05 0 -3.93237e-06)
(2.48444e-05 0 -3.67111e-06)
(3.37471e-05 0 -3.29689e-06)
(4.21542e-05 0 -2.8211e-06)
(4.99555e-05 0 -2.26297e-06)
(5.70563e-05 0 -1.65233e-06)
(6.33783e-05 0 -1.02925e-06)
(6.88559e-05 0 -4.37643e-07)
(7.34269e-05 0 8.52702e-08)
(7.70164e-05 0 5.17935e-07)
(7.95178e-05 0 8.56208e-07)
(8.07795e-05 0 1.10846e-06)
(8.05992e-05 0 1.28806e-06)
(7.87629e-05 0 1.42619e-06)
(7.50889e-05 0 1.59102e-06)
(6.95521e-05 0 1.82847e-06)
(6.233e-05 0 2.07737e-06)
(5.38206e-05 0 2.20836e-06)
(4.46184e-05 0 2.15985e-06)
(3.53499e-05 0 1.96538e-06)
(2.65413e-05 0 1.68516e-06)
(1.85107e-05 0 1.39618e-06)
(1.12905e-05 0 1.16446e-06)
(4.68059e-06 0 1.02788e-06)
(-1.6513e-06 0 1.00105e-06)
(-8.08545e-06 0 1.08625e-06)
(-1.49862e-05 0 1.27583e-06)
(-2.26294e-05 0 1.54431e-06)
(-3.1105e-05 0 1.83856e-06)
(-4.02334e-05 0 2.08402e-06)
(-4.95709e-05 0 2.20844e-06)
(-5.85299e-05 0 2.16495e-06)
(-6.64836e-05 0 1.95781e-06)
(-7.29262e-05 0 1.7e-06)
(-7.75842e-05 0 1.50214e-06)
(-8.03866e-05 0 1.36569e-06)
(-8.14538e-05 0 1.22006e-06)
(-8.09893e-05 0 1.01637e-06)
(-7.92075e-05 0 7.35011e-07)
(-7.62837e-05 0 3.63792e-07)
(-7.23437e-05 0 -1.01705e-07)
(-6.74727e-05 0 -6.5108e-07)
(-6.17325e-05 0 -1.25642e-06)
(-5.51799e-05 0 -1.87723e-06)
(-4.788e-05 0 -2.47073e-06)
(-3.99133e-05 0 -3.0011e-06)
(-3.13766e-05 0 -3.44322e-06)
(-2.23822e-05 0 -3.78157e-06)
(-1.30552e-05 0 -4.00698e-06)
(-3.53154e-06 0 -4.11352e-06)
(9.11286e-06 0 -1.66113e-05)
(2.34829e-05 0 -1.64012e-05)
(3.76885e-05 0 -1.60151e-05)
(5.16364e-05 0 -1.5469e-05)
(6.52426e-05 0 -1.47812e-05)
(7.8429e-05 0 -1.39673e-05)
(9.11139e-05 0 -1.30333e-05)
(0.000103196 0 -1.19712e-05)
(0.000114539 0 -1.07555e-05)
(0.000124955 0 -9.34219e-06)
(0.000134207 0 -7.66765e-06)
(0.000142 0 -5.6476e-06)
(0.000147987 0 -3.18031e-06)
(0.000151759 0 -1.68405e-07)
(0.000152831 0 3.38986e-06)
(0.000150663 0 7.23167e-06)
(0.000144801 0 1.08375e-05)
(0.000135081 0 1.37703e-05)
(0.000121668 0 1.57973e-05)
(0.000105295 0 1.68409e-05)
(8.7125e-05 0 1.69027e-05)
(6.8361e-05 0 1.6085e-05)
(4.99999e-05 0 1.47827e-05)
(3.25548e-05 0 1.34816e-05)
(1.60213e-05 0 1.25609e-05)
(3.09982e-08 0 1.22304e-05)
(-1.59526e-05 0 1.25536e-05)
(-3.2466e-05 0 1.34665e-05)
(-4.98767e-05 0 1.4759e-05)
(-6.81881e-05 0 1.6051e-05)
(-8.68844e-05 0 1.68554e-05)
(-0.000104965 0 1.67762e-05)
(-0.000121221 0 1.57095e-05)
(-0.000134487 0 1.36533e-05)
(-0.000144033 0 1.0684e-05)
(-0.0001497 0 7.03625e-06)
(-0.000151655 0 3.15778e-06)
(-0.000150361 0 -4.24476e-07)
(-0.000146362 0 -3.45101e-06)
(-0.000140146 0 -5.92864e-06)
(-0.000132124 0 -7.95577e-06)
(-0.00012265 0 -9.63398e-06)
(-0.000112019 0 -1.10471e-05)
(-0.000100471 0 -1.22583e-05)
(-8.81953e-05 0 -1.3311e-05)
(-7.53278e-05 0 -1.42299e-05)
(-6.19716e-05 0 -1.50224e-05)
(-4.82108e-05 0 -1.56816e-05)
(-3.41271e-05 0 -1.6192e-05)
(-1.9808e-05 0 -1.65361e-05)
(-5.34989e-06 0 -1.66996e-05)
(9.146e-06 0 -1.66748e-05)
(2.35775e-05 0 -1.64629e-05)
(3.78439e-05 0 -1.60737e-05)
(5.18512e-05 0 -1.55226e-05)
(6.55139e-05 0 -1.48273e-05)
(7.87507e-05 0 -1.40015e-05)
(9.14743e-05 0 -1.30488e-05)
(0.000103575 0 -1.19577e-05)
(0.000114902 0 -1.06985e-05)
(0.000125256 0 -9.22275e-06)
(0.00013438 0 -7.46187e-06)
(0.000141964 0 -5.32683e-06)
(0.000147641 0 -2.71381e-06)
(0.000150982 0 4.65135e-07)
(0.000151478 0 4.16459e-06)
(0.000148583 0 8.03824e-06)
(0.000141903 0 1.15423e-05)
(0.000131346 0 1.42873e-05)
(0.000117201 0 1.60862e-05)
(0.000100344 0 1.68937e-05)
(8.19891e-05 0 1.67169e-05)
(6.33142e-05 0 1.57389e-05)
(4.52115e-05 0 1.44017e-05)
(2.80548e-05 0 1.31791e-05)
(1.17256e-05 0 1.24074e-05)
(-4.20559e-06 0 1.22546e-05)
(-2.02904e-05 0 1.27511e-05)
(-3.70387e-05 0 1.37988e-05)
(-5.47433e-05 0 1.51434e-05)
(-7.32818e-05 0 1.6366e-05)
(-9.2001e-05 0 1.69827e-05)
(-0.000109821 0 1.66623e-05)
(-0.000125518 0 1.53596e-05)
(-0.000138007 0 1.30818e-05)
(-0.000146713 0 9.94224e-06)
(-0.000151577 0 6.22271e-06)
(-0.000152841 0 2.411e-06)
(-0.000151008 0 -1.01579e-06)
(-0.000146611 0 -3.87789e-06)
(-0.000140112 0 -6.21754e-06)
(-0.000131904 0 -8.13757e-06)
(-0.000122321 0 -9.73619e-06)
(-0.00011164 0 -1.10923e-05)
(-0.000100087 0 -1.22641e-05)
(-8.78342e-05 0 -1.32907e-05)
(-7.50087e-05 0 -1.4193e-05)
(-6.17044e-05 0 -1.49749e-05)
(-4.80007e-05 0 -1.56271e-05)
(-3.39765e-05 0 -1.61329e-05)
(-1.97182e-05 0 -1.6474e-05)
(-5.32148e-06 0 -1.6636e-05)
(1.02165e-05 0 -3.15949e-05)
(2.63162e-05 0 -3.12603e-05)
(4.22011e-05 0 -3.06413e-05)
(5.77412e-05 0 -2.97562e-05)
(7.28062e-05 0 -2.86244e-05)
(8.72638e-05 0 -2.72586e-05)
(0.000100976 0 -2.56565e-05)
(0.000113798 0 -2.37952e-05)
(0.000125576 0 -2.16294e-05)
(0.000136148 0 -1.90948e-05)
(0.000145356 0 -1.61119e-05)
(0.000153048 0 -1.25904e-05)
(0.000159092 0 -8.43597e-06)
(0.000163391 0 -3.56186e-06)
(0.000165867 0 2.10808e-06)
(0.000166355 0 8.65641e-06)
(0.000164324 0 1.61036e-05)
(0.000158805 0 2.40327e-05)
(0.000148828 0 3.11745e-05)
(0.000133839 0 3.59969e-05)
(0.000114444 0 3.81658e-05)
(9.21859e-05 0 3.80986e-05)
(6.8805e-05 0 3.65325e-05)
(4.54642e-05 0 3.45028e-05)
(2.25962e-05 0 3.29216e-05)
(9.52571e-08 0 3.23289e-05)
(-2.2394e-05 0 3.28953e-05)
(-4.52265e-05 0 3.44493e-05)
(-6.85081e-05 0 3.64498e-05)
(-9.18054e-05 0 3.7983e-05)
(-0.000113954 0 3.80104e-05)
(-0.000133212 0 3.57913e-05)
(-0.00014804 0 3.09083e-05)
(-0.000157839 0 2.37089e-05)
(-0.00016317 0 1.57372e-05)
(-0.000165015 0 8.2572e-06)
(-0.000164343 0 1.67851e-06)
(-0.000161675 0 -4.01964e-06)
(-0.000157171 0 -8.91717e-06)
(-0.000150908 0 -1.30889e-05)
(-0.000142989 0 -1.66208e-05)
(-0.000133549 0 -1.96066e-05)
(-0.000122742 0 -2.21367e-05)
(-0.000110736 0 -2.42906e-05)
(-9.76925e-05 0 -2.61324e-05)
(-8.37711e-05 0 -2.77067e-05)
(-6.91205e-05 0 -2.90353e-05)
(-5.38824e-05 0 -3.01197e-05)
(-3.81928e-05 0 -3.09471e-05)
(-2.21854e-05 0 -3.14991e-05)
(-5.9942e-06 0 -3.17595e-05)
(1.02467e-05 0 -3.17201e-05)
(2.64027e-05 0 -3.13822e-05)
(4.23397e-05 0 -3.07563e-05)
(5.79241e-05 0 -2.98599e-05)
(7.30216e-05 0 -2.87107e-05)
(8.74951e-05 0 -2.73186e-05)
(0.000101201 0 -2.56772e-05)
(0.000113988 0 -2.37587e-05)
(0.000125696 0 -2.1513e-05)
(0.00013616 0 -1.88714e-05)
(0.000145216 0 -1.57512e-05)
(0.000152713 0 -1.20603e-05)
(0.000158522 0 -7.70559e-06)
(0.000162552 0 -2.60496e-06)
(0.000164718 0 3.31547e-06)
(0.000164803 0 1.01366e-05)
(0.000162146 0 1.78162e-05)
(0.000155732 0 2.57432e-05)
(0.000144631 0 3.24543e-05)
(0.000128532 0 3.66214e-05)
(0.000108342 0 3.81946e-05)
(8.57409e-05 0 3.76864e-05)
(6.23652e-05 0 3.59278e-05)
(3.91865e-05 0 3.39699e-05)
(1.6469e-05 0 3.26392e-05)
(-5.98546e-06 0 3.2374e-05)
(-2.85538e-05 0 3.3256e-05)
(-5.15525e-05 0 3.50236e-05)
(-7.49743e-05 0 3.7032e-05)
(-9.82022e-05 0 3.82979e-05)
(-0.000119887 0 3.7838e-05)
(-0.000138249 0 3.49971e-05)
(-0.000151928 0 2.94745e-05)
(-0.00016065 0 2.19598e-05)
(-0.000165152 0 1.40709e-05)
(-0.00016644 0 6.84698e-06)
(-0.0001654 0 5.37361e-07)
(-0.000162436 0 -4.91664e-06)
(-0.00015767 0 -9.5942e-06)
(-0.000151182 0 -1.35735e-05)
(-0.000143078 0 -1.69444e-05)
(-0.000133496 0 -1.98012e-05)
(-0.000122591 0 -2.22317e-05)
(-0.000110524 0 -2.43119e-05)
(-9.74531e-05 0 -2.61016e-05)
(-8.35309e-05 0 -2.76402e-05)
(-6.89006e-05 0 -2.8945e-05)
(-5.3698e-05 0 -3.00136e-05)
(-3.80547e-05 0 -3.08307e-05)
(-2.21006e-05 0 -3.13765e-05)
(-5.96631e-06 0 -3.1634e-05)
(1.06946e-05 0 -4.83003e-05)
(2.75285e-05 0 -4.77839e-05)
(4.40871e-05 0 -4.68235e-05)
(6.02034e-05 0 -4.5438e-05)
(7.57114e-05 0 -4.36467e-05)
(9.04465e-05 0 -4.14624e-05)
(0.000104247 0 -3.88841e-05)
(0.000116955 0 -3.5894e-05)
(0.000128422 0 -3.24572e-05)
(0.000138508 0 -2.85248e-05)
(0.000147089 0 -2.40385e-05)
(0.000154057 0 -1.89325e-05)
(0.000159326 0 -1.31349e-05)
(0.000162822 0 -6.56055e-06)
(0.000164479 0 9.12724e-07)
(0.000164217 0 9.4659e-06)
(0.000161952 0 1.92202e-05)
(0.000157573 0 2.99529e-05)
(0.000150711 0 4.10337e-05)
(0.000140226 0 5.13668e-05)
(0.000124539 0 5.88494e-05)
(0.0001036 0 6.19249e-05)
(7.90989e-05 0 6.16296e-05)
(5.30475e-05 0 5.97959e-05)
(2.66131e-05 0 5.80322e-05)
(1.68691e-07 0 5.73219e-05)
(-2.62602e-05 0 5.79777e-05)
(-5.26483e-05 0 5.9686e-05)
(-7.86247e-05 0 6.14628e-05)
(-0.000103025 0 6.16975e-05)
(-0.000123843 0 5.8555e-05)
(-0.000139393 0 5.10031e-05)
(-0.000149735 0 4.06068e-05)
(-0.000156455 0 2.947e-05)
(-0.000160685 0 1.86894e-05)
(-0.000162785 0 8.89475e-06)
(-0.000162866 0 3.03209e-07)
(-0.000161016 0 -7.20902e-06)
(-0.00015731 0 -1.38199e-05)
(-0.00015182 0 -1.96477e-05)
(-0.000144617 0 -2.47745e-05)
(-0.000135794 0 -2.92704e-05)
(-0.000125462 0 -3.32002e-05)
(-0.000113751 0 -3.66217e-05)
(-0.000100804 0 -3.95833e-05)
(-8.67772e-05 0 -4.21191e-05)
(-7.18335e-05 0 -4.42463e-05)
(-5.61405e-05 0 -4.59651e-05)
(-3.98678e-05 0 -4.72631e-05)
(-2.31865e-05 0 -4.81222e-05)
(-6.26826e-06 0 -4.85258e-05)
(1.07139e-05 0 -4.84648e-05)
(2.75867e-05 0 -4.79406e-05)
(4.41776e-05 0 -4.69648e-05)
(6.03149e-05 0 -4.5555e-05)
(7.58279e-05 0 -4.37284e-05)
(9.05474e-05 0 -4.14947e-05)
(0.000104307 0 -3.88496e-05)
(0.000116944 0 -3.57713e-05)
(0.000128308 0 -3.22214e-05)
(0.000138256 0 -2.81489e-05)
(0.000146664 0 -2.34936e-05)
(0.000153425 0 -1.81896e-05)
(0.000158454 0 -1.21648e-05)
(0.000161679 0 -5.33103e-06)
(0.00016303 0 2.44504e-06)
(0.000162428 0 1.13486e-05)
(0.000159781 0 2.14417e-05)
(0.000154958 0 3.23905e-05)
(0.000147434 0 4.3471e-05)
(0.000135858 0 5.33675e-05)
(0.000118836 0 5.97953e-05)
(9.68773e-05 0 6.18885e-05)
(7.18919e-05 0 6.10725e-05)
(4.5735e-05 0 5.91792e-05)
(1.93218e-05 0 5.76815e-05)
(-7.10866e-06 0 5.73789e-05)
(-3.35599e-05 0 5.84208e-05)
(-5.99545e-05 0 6.03273e-05)
(-8.57542e-05 0 6.19306e-05)
(-0.000109528 0 6.15141e-05)
(-0.000129207 0 5.73028e-05)
(-0.000143427 0 4.88248e-05)
(-0.000152801 0 3.81387e-05)
(-0.000158938 0 2.70695e-05)
(-0.000162747 0 1.65466e-05)
(-0.000164476 0 7.10434e-06)
(-0.000164226 0 -1.14682e-06)
(-0.000162079 0 -8.36901e-06)
(-0.000158111 0 -1.47298e-05)
(-0.000152388 0 -2.03385e-05)
(-0.000144986 0 -2.52751e-05)
(-0.000135999 0 -2.96098e-05)
(-0.000125537 0 -3.34066e-05)
(-0.00011373 0 -3.67218e-05)
(-0.00010072 0 -3.96009e-05)
(-8.66584e-05 0 -4.20746e-05)
(-7.17042e-05 0 -4.41562e-05)
(-5.60203e-05 0 -4.58424e-05)
(-3.97716e-05 0 -4.71181e-05)
(-2.31244e-05 0 -4.79633e-05)
(-6.24605e-06 0 -4.83606e-05)
(1.07955e-05 0 -6.55318e-05)
(2.7772e-05 0 -6.48107e-05)
(4.44283e-05 0 -6.34662e-05)
(6.05713e-05 0 -6.15189e-05)
(7.60128e-05 0 -5.89908e-05)
(9.05705e-05 0 -5.58983e-05)
(0.000104071 0 -5.22465e-05)
(0.000116354 0 -4.80255e-05)
(0.000127272 0 -4.32106e-05)
(0.000136697 0 -3.77654e-05)
(0.000144516 0 -3.16455e-05)
(0.000150632 0 -2.48012e-05)
(0.000154965 0 -1.71784e-05)
(0.000157445 0 -8.71274e-06)
(0.000158018 0 6.81955e-07)
(0.00015667 0 1.11163e-05)
(0.000153459 0 2.26627e-05)
(0.000148468 0 3.52584e-05)
(0.000141661 0 4.86925e-05)
(0.000132796 0 6.23652e-05)
(0.000121012 0 7.48023e-05)
(0.000104483 0 8.36545e-05)
(8.22678e-05 0 8.71759e-05)
(5.62639e-05 0 8.70138e-05)
(2.8543e-05 0 8.58034e-05)
(2.34753e-07 0 8.51992e-05)
(-2.80567e-05 0 8.57154e-05)
(-5.57289e-05 0 8.68392e-05)
(-8.16587e-05 0 8.69181e-05)
(-0.000103783 0 8.33173e-05)
(-0.000120211 0 7.43885e-05)
(-0.000131889 0 6.18793e-05)
(-0.000140639 0 4.81404e-05)
(-0.000147319 0 3.46432e-05)
(-0.000152168 0 2.19848e-05)
(-0.000155218 0 1.03772e-05)
(-0.000156386 0 -1.16996e-07)
(-0.000155616 0 -9.56938e-06)
(-0.000152923 0 -1.80874e-05)
(-0.000148363 0 -2.57535e-05)
(-0.000142008 0 -3.26284e-05)
(-0.000133942 0 -3.87641e-05)
(-0.000124266 0 -4.42081e-05)
(-0.000113096 0 -4.90039e-05)
(-0.000100568 0 -5.31868e-05)
(-8.68344e-05 0 -5.67805e-05)
(-7.20638e-05 0 -5.9794e-05)
(-5.64358e-05 0 -6.22221e-05)
(-4.01387e-05 0 -6.40487e-05)
(-2.33674e-05 0 -6.52536e-05)
(-6.32021e-06 0 -6.58184e-05)
(1.08015e-05 0 -6.5733e-05)
(2.77957e-05 0 -6.49992e-05)
(4.44619e-05 0 -6.36295e-05)
(6.06022e-05 0 -6.16434e-05)
(7.60236e-05 0 -5.90607e-05)
(9.05393e-05 0 -5.58952e-05)
(0.000103972 0 -5.21484e-05)
(0.000116158 0 -4.78075e-05)
(0.000126949 0 -4.28453e-05)
(0.000136214 0 -3.7224e-05)
(0.00014384 0 -3.08988e-05)
(0.000149732 0 -2.3821e-05)
(0.000153808 0 -1.59374e-05)
(0.000156002 0 -7.1832e-06)
(0.000156262 0 2.53148e-06)
(0.000154591 0 1.33147e-05)
(0.000151063 0 2.52101e-05)
(0.000145744 0 3.81162e-05)
(0.000138556 0 5.17652e-05)
(0.000129163 0 6.53607e-05)
(0.000116446 0 7.71907e-05)
(9.84772e-05 0 8.47632e-05)
(7.51205e-05 0 8.71384e-05)
(4.85702e-05 0 8.65567e-05)
(2.06607e-05 0 8.54836e-05)
(-7.68617e-06 0 8.52533e-05)
(-3.59086e-05 0 8.61082e-05)
(-6.3326e-05 0 8.72547e-05)
(-8.85667e-05 0 8.67202e-05)
(-0.000109397 0 8.18313e-05)
(-0.000124477 0 7.17743e-05)
(-0.000135353 0 5.88197e-05)
(-0.000143633 0 4.51046e-05)
(-0.000149949 0 3.18584e-05)
(-0.000154477 0 1.95237e-05)
(-0.000157208 0 8.26934e-06)
(-0.000158054 0 -1.88177e-06)
(-0.000156976 0 -1.10229e-05)
(-0.000154003 0 -1.92603e-05)
(-0.000149195 0 -2.66732e-05)
(-0.000142623 0 -3.33222e-05)
(-0.000134372 0 -3.92603e-05)
(-0.000124543 0 -4.45358e-05)
(-0.000113253 0 -4.91915e-05)
(-0.000100635 0 -5.32611e-05)
(-8.68405e-05 0 -5.67656e-05)
(-7.20333e-05 0 -5.97107e-05)
(-5.63895e-05 0 -6.20881e-05)
(-4.0093e-05 0 -6.38791e-05)
(-2.33337e-05 0 -6.50615e-05)
(-6.30545e-06 0 -6.5616e-05)
(1.05998e-05 0 -8.24873e-05)
(2.72544e-05 0 -8.15296e-05)
(4.35578e-05 0 -7.97423e-05)
(5.93001e-05 0 -7.71511e-05)
(7.42792e-05 0 -7.37855e-05)
(8.83037e-05 0 -6.96726e-05)
(0.000101196 0 -6.48312e-05)
(0.000112794 0 -5.92682e-05)
(0.000122957 0 -5.29783e-05)
(0.000131564 0 -4.59441e-05)
(0.000138511 0 -3.81393e-05)
(0.000143714 0 -2.95297e-05)
(0.000147105 0 -2.00735e-05)
(0.00014863 0 -9.71992e-06)
(0.000148258 0 1.59243e-06)
(0.000145998 0 1.39232e-05)
(0.000141921 0 2.72792e-05)
(0.000136133 0 4.15552e-05)
(0.000128737 0 5.65491e-05)
(0.000119788 0 7.19715e-05)
(0.000109128 0 8.72071e-05)
(9.58787e-05 0 0.000100686)
(7.81593e-05 0 0.000109865)
(5.50016e-05 0 0.000113574)
(2.83607e-05 0 0.000114111)
(2.81622e-07 0 0.000113969)
(-2.77827e-05 0 0.000113991)
(-5.4383e-05 0 0.000113341)
(-7.74847e-05 0 0.000109533)
(-9.51372e-05 0 0.000100266)
(-0.000108308 0 8.67038e-05)
(-0.000118877 0 7.13868e-05)
(-0.00012772 0 5.58827e-05)
(-0.000134995 0 4.08064e-05)
(-0.000140643 0 2.64483e-05)
(-0.000144562 0 1.30122e-05)
(-0.000146643 0 6.03888e-07)
(-0.00014682 0 -1.07821e-05)
(-0.000145083 0 -2.12024e-05)
(-0.000141467 0 -3.07144e-05)
(-0.000136026 0 -3.9365e-05)
(-0.000128832 0 -4.71923e-05)
(-0.000119975 0 -5.42277e-05)
(-0.00010956 0 -6.04954e-05)
(-9.77178e-05 0 -6.60105e-05)
(-8.45953e-05 0 -7.07771e-05)
(-7.03613e-05 0 -7.47872e-05)
(-5.52009e-05 0 -7.80216e-05)
(-3.93131e-05 0 -8.04543e-05)
(-2.29068e-05 0 -8.20576e-05)
(-6.19833e-06 0 -8.28088e-05)
(1.0592e-05 0 -8.26953e-05)
(2.72425e-05 0 -8.17192e-05)
(4.35335e-05 0 -7.98961e-05)
(5.92506e-05 0 -7.72506e-05)
(7.41869e-05 0 -7.38106e-05)
(8.8147e-05 0 -6.96008e-05)
(0.00010095 0 -6.46376e-05)
(0.000112431 0 -5.89259e-05)
(0.000122449 0 -5.24585e-05)
(0.00013088 0 -4.52177e-05)
(0.000137622 0 -3.71772e-05)
(0.00014259 0 -2.83041e-05)
(0.000145719 0 -1.85583e-05)
(0.000146955 0 -7.89011e-06)
(0.000146276 0 3.75938e-06)
(0.000143703 0 1.64403e-05)
(0.00013932 0 3.01332e-05)
(0.000133236 0 4.47022e-05)
(0.000125549 0 5.99251e-05)
(0.000116282 0 7.54629e-05)
(0.000105165 0 9.05281e-05)
(9.10195e-05 0 0.000103219)
(7.19019e-05 0 0.000111009)
(4.76369e-05 0 0.000113692)
(2.04927e-05 0 0.000113987)
(-7.70633e-06 0 0.000113995)
(-3.55605e-05 0 0.000114111)
(-6.15237e-05 0 0.000113034)
(-8.3355e-05 0 0.000108007)
(-9.97056e-05 0 9.74556e-05)
(-0.00011212 0 8.32881e-05)
(-0.000122291 0 6.7906e-05)
(-0.000130829 0 5.25567e-05)
(-0.000137812 0 3.77278e-05)
(-0.000143162 0 2.36763e-05)
(-0.000146771 0 1.05841e-05)
(-0.000148539 0 -1.47554e-06)
(-0.000148412 0 -1.25303e-05)
(-0.000146392 0 -2.2643e-05)
(-0.00014252 0 -3.18725e-05)
(-0.000136851 0 -4.02671e-05)
(-0.000129459 0 -4.78665e-05)
(-0.000120433 0 -5.47029e-05)
(-0.00010988 0 -6.08007e-05)
(-9.79269e-05 0 -6.61739e-05)
(-8.4721e-05 0 -7.08251e-05)
(-7.04278e-05 0 -7.47438e-05)
(-5.5229e-05 0 -7.79086e-05)
(-3.93193e-05 0 -8.02913e-05)
(-2.2903e-05 0 -8.18627e-05)
(-6.19154e-06 0 -8.2599e-05)
(1.01607e-05 0 -9.89547e-05)
(2.61127e-05 0 -9.77448e-05)
(4.16954e-05 0 -9.54866e-05)
(5.66897e-05 0 -9.22131e-05)
(7.08872e-05 0 -8.79648e-05)
(8.40935e-05 0 -8.27826e-05)
(9.61311e-05 0 -7.67024e-05)
(0.000106843 0 -6.97511e-05)
(0.000116094 0 -6.19439e-05)
(0.000123772 0 -5.32844e-05)
(0.000129784 0 -4.37655e-05)
(0.000134058 0 -3.33709e-05)
(0.000136541 0 -2.20767e-05)
(0.000137198 0 -9.85391e-06)
(0.00013602 0 3.32645e-06)
(0.000133034 0 1.74782e-05)
(0.000128314 0 3.25662e-05)
(0.000121965 0 4.84746e-05)
(0.000114102 0 6.50054e-05)
(0.000104836 0 8.18713e-05)
(9.42423e-05 0 9.86484e-05)
(8.21795e-05 0 0.000114594)
(6.76681e-05 0 0.000128059)
(4.89688e-05 0 0.00013678)
(2.57971e-05 0 0.000140551)
(3.03191e-07 0 0.000141404)
(-2.51808e-05 0 0.000140408)
(-4.83274e-05 0 0.000136508)
(-6.69898e-05 0 0.000127677)
(-8.1448e-05 0 0.000114111)
(-9.34422e-05 0 9.80668e-05)
(-0.000103953 0 8.11916e-05)
(-0.000113119 0 6.42271e-05)
(-0.000120866 0 4.75966e-05)
(-0.00012708 0 3.15881e-05)
(-0.000131646 0 1.64011e-05)
(-0.00013446 0 2.15329e-06)
(-0.000135448 0 -1.11179e-05)
(-0.000134586 0 -2.34227e-05)
(-0.000131883 0 -3.47858e-05)
(-0.000127377 0 -4.52317e-05)
(-0.000121124 0 -5.47799e-05)
(-0.000113202 0 -6.34428e-05)
(-0.000103706 0 -7.12239e-05)
(-9.27567e-05 0 -7.8117e-05)
(-8.04962e-05 0 -8.41045e-05)
(-6.70891e-05 0 -8.91583e-05)
(-5.27207e-05 0 -9.32425e-05)
(-3.75932e-05 0 -9.63169e-05)
(-2.19226e-05 0 -9.83436e-05)
(-5.9344e-06 0 -9.92932e-05)
(1.01398e-05 0 -9.91497e-05)
(2.6067e-05 0 -9.79158e-05)
(4.16168e-05 0 -9.56113e-05)
(5.65658e-05 0 -9.22684e-05)
(7.07012e-05 0 -8.79264e-05)
(8.38249e-05 0 -8.26245e-05)
(9.57568e-05 0 -7.63972e-05)
(0.000106338 0 -6.92699e-05)
(0.000115432 0 -6.12571e-05)
(0.000122925 0 -5.23624e-05)
(0.000128726 0 -4.25797e-05)
(0.000132764 0 -3.18948e-05)
(0.000134987 0 -2.02865e-05)
(0.000135364 0 -7.72975e-06)
(0.000133893 0 5.79798e-06)
(0.00013061 0 2.02984e-05)
(0.0001256 0 3.57157e-05)
(0.000118973 0 5.19096e-05)
(0.000110844 0 6.86603e-05)
(0.000101321 0 8.56483e-05)
(9.04527e-05 0 0.000102402)
(7.79584e-05 0 0.000118008)
(6.25591e-05 0 0.00013052)
(4.26174e-05 0 0.000137937)
(1.86167e-05 0 0.000140872)
(-7.08522e-06 0 0.000141366)
(-3.22073e-05 0 0.000139931)
(-5.43575e-05 0 0.000135025)
(-7.18145e-05 0 0.000124903)
(-8.55205e-05 0 0.000110558)
(-9.71524e-05 0 9.42837e-05)
(-0.000107399 0 7.74325e-05)
(-0.000116306 0 6.06192e-05)
(-0.000123784 0 4.42279e-05)
(-0.000129716 0 2.85183e-05)
(-0.00013399 0 1.36681e-05)
(-0.000136506 0 -2.29754e-07)
(-0.000137203 0 -1.31568e-05)
(-0.000136064 0 -2.51331e-05)
(-0.000133106 0 -3.61885e-05)
(-0.00012837 0 -4.63512e-05)
(-0.000121912 0 -5.56432e-05)
(-0.000113812 0 -6.40786e-05)
(-0.000104165 0 -7.16617e-05)
(-9.30902e-05 0 -7.83861e-05)
(-8.07294e-05 0 -8.42333e-05)
(-6.72447e-05 0 -8.91738e-05)
(-5.28182e-05 0 -9.31699e-05)
(-3.76486e-05 0 -9.61802e-05)
(-2.19473e-05 0 -9.81657e-05)
(-5.93538e-06 0 -9.90958e-05)
(9.52409e-06 0 -0.000114542)
(2.44652e-05 0 -0.000113071)
(3.90299e-05 0 -0.000110326)
(5.29969e-05 0 -0.00010635)
(6.61572e-05 0 -0.000101197)
(7.83183e-05 0 -9.49248e-05)
(8.9308e-05 0 -8.75896e-05)
(9.89762e-05 0 -7.92405e-05)
(0.000107197 0 -6.99159e-05)
(0.000113868 0 -5.96422e-05)
(0.000118911 0 -4.84336e-05)
(0.000122267 0 -3.62939e-05)
(0.0001239 0 -2.32193e-05)
(0.000123793 0 -9.20378e-06)
(0.000121956 0 5.75204e-06)
(0.00011843 0 2.16249e-05)
(0.000113291 0 3.8344e-05)
(0.000106642 0 5.57721e-05)
(9.85995e-05 0 7.37029e-05)
(8.92905e-05 0 9.18612e-05)
(7.88297e-05 0 0.000109885)
(6.72993e-05 0 0.000127252)
(5.45137e-05 0 0.00014301)
(3.94655e-05 0 0.000155399)
(2.11084e-05 0 0.000162719)
(2.99951e-07 0 0.000164947)
(-2.05038e-05 0 0.000162564)
(-3.8847e-05 0 0.000155103)
(-5.38657e-05 0 0.000142588)
(-6.66047e-05 0 0.000126712)
(-7.80737e-05 0 0.00010923)
(-8.84575e-05 0 9.10928e-05)
(-9.76734e-05 0 7.28192e-05)
(-0.000105605 0 5.47712e-05)
(-0.000112127 0 3.7225e-05)
(-0.000117122 0 2.03886e-05)
(-0.000120485 0 4.40188e-06)
(-0.000122141 0 -1.06614e-05)
(-0.000122052 0 -2.4774e-05)
(-0.00012021 0 -3.79306e-05)
(-0.000116632 0 -5.01318e-05)
(-0.000111359 0 -6.13762e-05)
(-0.000104454 0 -7.16549e-05)
(-9.59997e-05 0 -8.09493e-05)
(-8.61058e-05 0 -8.92291e-05)
(-7.49053e-05 0 -9.64532e-05)
(-6.25559e-05 0 -0.000102571)
(-4.92382e-05 0 -0.000107525)
(-3.51526e-05 0 -0.00011126)
(-2.05157e-05 0 -0.000113723)
(-5.55581e-06 0 -0.000114878)
(9.49172e-06 0 -0.000114703)
(2.43896e-05 0 -0.000113203)
(3.89037e-05 0 -0.000110402)
(5.28084e-05 0 -0.000106343)
(6.58909e-05 0 -0.000101078)
(7.79558e-05 0 -9.4665e-05)
(8.88282e-05 0 -8.71595e-05)
(9.83565e-05 0 -7.86099e-05)
(0.000106414 0 -6.90546e-05)
(0.000112899 0 -5.85208e-05)
(0.000117732 0 -4.70245e-05)
(0.000120858 0 -3.45721e-05)
(0.000122242 0 -2.11641e-05)
(0.000121871 0 -6.80036e-06)
(0.000119762 0 8.50951e-06)
(0.000115962 0 2.47286e-05)
(0.000110557 0 4.17675e-05)
(0.000103653 0 5.94679e-05)
(9.53714e-05 0 7.76049e-05)
(8.58386e-05 0 9.58815e-05)
(7.51639e-05 0 0.000113909)
(6.34067e-05 0 0.000131089)
(5.01998e-05 0 0.000146286)
(3.43636e-05 0 0.000157582)
(1.519e-05 0 0.000163648)
(-5.86906e-06 0 0.000164812)
(-2.62456e-05 0 0.00016132)
(-4.37127e-05 0 0.000152593)
(-5.80332e-05 0 0.000139113)
(-7.04287e-05 0 0.000122799)
(-8.16823e-05 0 0.000105191)
(-9.18505e-05 0 8.7091e-05)
(-0.000100839 0 6.89607e-05)
(-0.000108527 0 5.11378e-05)
(-0.000114791 0 3.38781e-05)
(-0.000119516 0 1.73702e-05)
(-0.000122604 0 1.733e-06)
(-0.000123989 0 -1.29773e-05)
(-0.000123639 0 -2.67456e-05)
(-0.000121551 0 -3.95743e-05)
(-0.000117747 0 -5.14694e-05)
(-0.00011227 0 -6.24332e-05)
(-0.000105183 0 -7.24595e-05)
(-9.6571e-05 0 -8.15309e-05)
(-8.65423e-05 0 -8.96178e-05)
(-7.52293e-05 0 -9.66788e-05)
(-6.2788e-05 0 -0.000102663)
(-4.93964e-05 0 -0.000107512)
(-3.52515e-05 0 -0.000111169)
(-2.05659e-05 0 -0.000113583)
(-5.56383e-06 0 -0.000114713)
(8.72749e-06 0 -0.000128983)
(2.24079e-05 0 -0.00012725)
(3.57151e-05 0 -0.000124018)
(4.84308e-05 0 -0.000119339)
(6.03506e-05 0 -0.000113285)
(7.12889e-05 0 -0.000105932)
(8.10816e-05 0 -9.73587e-05)
(8.95892e-05 0 -8.76384e-05)
(9.66973e-05 0 -7.68341e-05)
(0.000102317 0 -6.49965e-05)
(0.000106383 0 -5.21628e-05)
(0.000108854 0 -3.83585e-05)
(0.000109709 0 -2.36018e-05)
(0.000108952 0 -7.90976e-06)
(0.000106608 0 8.69005e-06)
(0.000102731 0 2.61444e-05)
(9.74035e-05 0 4.43547e-05)
(9.07288e-05 0 6.31636e-05)
(8.28287e-05 0 8.23513e-05)
(7.38377e-05 0 0.000101635)
(6.38982e-05 0 0.000120661)
(5.31565e-05 0 0.000138982)
(4.17368e-05 0 0.000155888)
(2.9414e-05 0 0.000170073)
(1.55652e-05 0 0.000179595)
(2.78237e-07 0 0.00018288)
(-1.50061e-05 0 0.000179432)
(-2.88431e-05 0 0.000169758)
(-4.11395e-05 0 0.000155431)
(-5.25183e-05 0 0.000138391)
(-6.32052e-05 0 0.000119941)
(-7.3075e-05 0 0.000100784)
(-8.19808e-05 0 8.13696e-05)
(-8.97797e-05 0 6.20481e-05)
(-9.63367e-05 0 4.31039e-05)
(-0.00010153 0 2.47591e-05)
(-0.000105256 0 7.17383e-06)
(-0.000107432 0 -9.54954e-06)
(-0.000108007 0 -2.53534e-05)
(-0.000106955 0 -4.02048e-05)
(-0.000104277 0 -5.40805e-05)
(-9.99955e-05 0 -6.69563e-05)
(-9.41565e-05 0 -7.88004e-05)
(-8.68302e-05 0 -8.957e-05)
(-7.8112e-05 0 -9.92097e-05)
(-6.81236e-05 0 -0.000107653)
(-5.70125e-05 0 -0.000114824)
(-4.49506e-05 0 -0.000120645)
(-3.2132e-05 0 -0.000125039)
(-1.87683e-05 0 -0.00012794)
(-5.08472e-06 0 -0.0001293)
(8.68571e-06 0 -0.000129094)
(2.23078e-05 0 -0.000127327)
(3.555e-05 0 -0.000124029)
(4.81901e-05 0 -0.000119255)
(6.00207e-05 0 -0.000113073)
(7.08533e-05 0 -0.00010556)
(8.05221e-05 0 -9.67962e-05)
(8.88861e-05 0 -8.6854e-05)
(9.58308e-05 0 -7.57975e-05)
(0.000101267 0 -6.36788e-05)
(0.000105132 0 -5.05375e-05)
(0.000107385 0 -3.6403e-05)
(0.00010801 0 -2.12987e-05)
(0.000107012 0 -5.24906e-06)
(0.000104423 0 1.17079e-05)
(0.000100303 0 2.95045e-05)
(9.47411e-05 0 4.80245e-05)
(8.78458e-05 0 6.70915e-05)
(7.97429e-05 0 8.64677e-05)
(7.05701e-05 0 0.000105852)
(6.0471e-05 0 0.000124872)
(4.95957e-05 0 0.000143039)
(3.80233e-05 0 0.000159524)
(2.53797e-05 0 0.000172828)
(1.10934e-05 0 0.000180978)
(-4.36579e-06 0 0.000182667)
(-1.93701e-05 0 0.000177655)
(-3.27721e-05 0 0.000166718)
(-4.48017e-05 0 0.000151648)
(-5.60451e-05 0 0.000134273)
(-6.65915e-05 0 0.000115714)
(-7.6296e-05 0 9.65816e-05)
(-8.50142e-05 0 7.72917e-05)
(-9.26051e-05 0 5.81783e-05)
(-9.89372e-05 0 3.95071e-05)
(-0.000103893 0 2.1482e-05)
(-0.000107374 0 4.24392e-06)
(-0.000109305 0 -1.21217e-05)
(-0.00010964 0 -2.75704e-05)
(-0.00010836 0 -4.20787e-05)
(-0.000105467 0 -5.56302e-05)
(-0.000100988 0 -6.82053e-05)
(-9.49702e-05 0 -7.97757e-05)
(-8.74848e-05 0 -9.03006e-05)
(-7.86273e-05 0 -9.97261e-05)
(-6.8519e-05 0 -0.000107986)
(-5.7306e-05 0 -0.000115006)
(-4.51582e-05 0 -0.000120706)
(-3.22667e-05 0 -0.00012501)
(-1.88398e-05 0 -0.000127853)
(-5.09874e-06 0 -0.000129185)
(7.80159e-06 0 -0.00014205)
(2.002e-05 0 -0.00014006)
(3.18773e-05 0 -0.00013635)
(4.31632e-05 0 -0.000130987)
(5.36829e-05 0 -0.000124056)
(6.32612e-05 0 -0.000115657)
(7.17459e-05 0 -0.000105891)
(7.90102e-05 0 -9.48572e-05)
(8.49537e-05 0 -8.26444e-05)
(8.95021e-05 0 -6.93287e-05)
(9.26063e-05 0 -5.49714e-05)
(9.4241e-05 0 -3.96212e-05)
(9.44038e-05 0 -2.33186e-05)
(9.31146e-05 0 -6.10367e-06)
(9.04163e-05 0 1.19718e-05)
(8.63758e-05 0 3.0829e-05)
(8.1084e-05 0 5.03457e-05)
(7.46525e-05 0 7.03453e-05)
(6.72111e-05 0 9.05913e-05)
(5.89072e-05 0 0.000110785)
(4.99083e-05 0 0.000130558)
(4.0407e-05 0 0.000149453)
(3.06345e-05 0 0.00016682)
(2.07551e-05 0 0.000181531)
(1.06585e-05 0 0.000191735)
(2.46154e-07 0 0.00019539)
(-1.01631e-05 0 0.000191565)
(-2.02478e-05 0 0.000181197)
(-3.01043e-05 0 0.000166332)
(-3.98418e-05 0 0.000148818)
(-4.92953e-05 0 0.000129779)
(-5.82327e-05 0 0.000109861)
(-6.64608e-05 0 8.95211e-05)
(-7.38117e-05 0 6.91255e-05)
(-8.01374e-05 0 4.89747e-05)
(-8.53081e-05 0 2.93073e-05)
(-8.92118e-05 0 1.03032e-05)
(-9.17582e-05 0 -7.91111e-06)
(-9.2881e-05 0 -2.52519e-05)
(-9.25389e-05 0 -4.16615e-05)
(-9.07141e-05 0 -5.70927e-05)
(-8.74121e-05 0 -7.14979e-05)
(-8.2662e-05 0 -8.48214e-05)
(-7.65183e-05 0 -9.69949e-05)
(-6.90613e-05 0 -0.000107937)
(-6.03986e-05 0 -0.000117554)
(-5.06647e-05 0 -0.000125745)
(-4.00196e-05 0 -0.000132407)
(-2.86464e-05 0 -0.000137443)
(-1.67474e-05 0 -0.000140772)
(-4.53931e-06 0 -0.000142333)
(7.7528e-06 0 -0.000142097)
(1.99014e-05 0 -0.000140069)
(3.16831e-05 0 -0.000136286)
(4.28844e-05 0 -0.000130815)
(5.33076e-05 0 -0.000123742)
(6.27752e-05 0 -0.000115168)
(7.11339e-05 0 -0.000105193)
(7.8256e-05 0 -9.39197e-05)
(8.40411e-05 0 -8.14369e-05)
(8.84158e-05 0 -6.78233e-05)
(9.13325e-05 0 -5.31434e-05)
(9.27682e-05 0 -3.74505e-05)
(9.27236e-05 0 -2.07913e-05)
(9.12226e-05 0 -3.21432e-06)
(8.83131e-05 0 1.52172e-05)
(8.40675e-05 0 3.44097e-05)
(7.85824e-05 0 5.42237e-05)
(7.19744e-05 0 7.44643e-05)
(6.43783e-05 0 9.4877e-05)
(5.5947e-05 0 0.000115145)
(4.6854e-05 0 0.000134881)
(3.73025e-05 0 0.000153595)
(2.75271e-05 0 0.000170551)
(1.76313e-05 0 0.000184441)
(7.4557e-06 0 0.00019327)
(-2.99904e-06 0 0.000195149)
(-1.33422e-05 0 0.000189617)
(-2.33605e-05 0 0.000178019)
(-3.3213e-05 0 0.000162461)
(-4.29374e-05 0 0.00014461)
(-5.23279e-05 0 0.000125432)
(-6.11618e-05 0 0.000105508)
(-6.92546e-05 0 8.52676e-05)
(-7.64444e-05 0 6.50594e-05)
(-8.25884e-05 0 4.51655e-05)
(-8.75616e-05 0 2.58065e-05)
(-9.12575e-05 0 7.14409e-06)
(-9.35912e-05 0 -1.0712e-05)
(-9.45022e-05 0 -2.7692e-05)
(-9.39537e-05 0 -4.37484e-05)
(-9.19319e-05 0 -5.88422e-05)
(-8.84449e-05 0 -7.29312e-05)