/*--------------------------------*- C++ -*----------------------------------*\
| =========                 |                                                 |
| \\      /  F ield         | OpenFOAM: The Open Source CFD Toolbox           |
|  \\    /   O peration     | Version:  2.3.0                                 |
|   \\  /    A nd           | Web:      www.OpenFOAM.org                      |
|    \\/     M anipulation  |                                                 |
\*---------------------------------------------------------------------------*/
FoamFile
{
    version     2.0;
    format      ascii;
    class       volScalarField;
    location    "17000";
    object      T;
}
// * * * * * * * * * * * * * * * * * * * * * * * * * * * * * * * * * * * * * //

dimensions      [0 0 0 1 0 0 0];

internalField   nonuniform List<scalar> 
191
(
31.2018
32.8367
34.3242
35.5519
36.5665
37.388
38.0444
38.5684
38.9901
39.3334
39.6144
39.8407
19.6481
21.3641
23.4721
25.4355
27.0121
28.268
29.3066
30.1939
30.9661
31.641
32.2232
32.7031
16.2332
17.9161
19.4941
20.8722
22.0893
23.1807
24.1659
25.0632
25.8733
26.5955
27.2246
27.7357
15.8749
17.816
19.4723
20.756
21.7249
22.4812
23.1097
23.6692
24.198
24.7028
25.1742
25.6143
13.9515
16.4228
18.7515
20.6808
22.0914
23.0554
23.7011
24.1477
24.4871
24.7819
25.0684
25.3638
25.6749
14.1991
17.1102
19.814
22.0098
23.5838
24.6258
25.2734
25.6623
25.9051
26.0842
26.2527
26.4411
26.6632
14.3807
17.6776
20.6934
23.0993
24.8156
25.9481
26.6378
27.0276
27.2446
27.3856
27.5141
27.6641
27.8473
14.4266
18.0284
21.2729
23.8162
25.6326
26.8493
27.6071
28.0451
28.2951
28.461
28.6071
28.7625
28.9309
14.2485
18.0555
21.4569
24.0707
25.9391
27.2326
28.0915
28.6377
28.9876
29.2338
29.433
29.6106
29.7718
13.7205
17.5672
21.0433
23.7109
25.6323
27.0244
28.0228
28.7208
29.2104
29.5701
29.8535
30.0899
30.2928
12.7479
16.4256
19.8367
22.526
24.4818
25.9636
27.107
27.9739
28.6307
29.1424
29.5596
29.9135
30.2237
11.2419
14.5406
17.6323
20.1754
22.0955
23.6048
24.8324
25.8254
26.6369
27.3185
27.9113
28.4454
28.9504
9.07262
11.7532
14.253
16.3611
18.0529
19.419
20.5523
21.5278
22.3967
23.1883
23.9348
24.6829
25.4084
6.11072
7.90266
9.57554
11.0126
12.1916
13.1603
13.992
14.7467
15.4575
16.183
16.9421
17.7086
18.4683
2.3756
3.00522
3.56968
4.05031
4.45454
4.80355
5.12472
5.44547
5.7939
6.15821
6.534
6.9209
7.31725
)
;

boundaryField
{
    top
    {
        type            fixedValue;
        value           uniform 0;
    }
    bottom
    {
        type            fixedValue;
        value           uniform 43.8;
    }
    frontAndBack
    {
        type            empty;
    }
    left_cyc
    {
        type            cyclic;
    }
    right_cyc
    {
        type            cyclic;
    }
    procBoundary3to0throughright_cyc
    {
        type            processorCyclic;
        value           nonuniform List<scalar> 
15
(
40.0061
33.038
28.1385
26.0222
26.0019
26.9192
28.0576
29.0993
29.9119
30.4682
30.5044
29.4212
26.0979
19.2049
7.71399
)
;
    }
    procBoundary3to2
    {
        type            processor;
        value           nonuniform List<scalar> 
16
(
29.9771
18.2287
14.5851
13.8508
13.8508
11.7328
11.5709
11.3868
11.1329
10.7566
10.1751
9.32771
8.14093
6.52169
4.38742
1.73735
)
;
    }
}


// ************************************************************************* //
