/*--------------------------------*- C++ -*----------------------------------*\
| =========                 |                                                 |
| \\      /  F ield         | OpenFOAM: The Open Source CFD Toolbox           |
|  \\    /   O peration     | Version:  2.3.0                                 |
|   \\  /    A nd           | Web:      www.OpenFOAM.org                      |
|    \\/     M anipulation  |                                                 |
\*---------------------------------------------------------------------------*/
FoamFile
{
    version     2.0;
    format      ascii;
    class       volVectorField;
    location    "17000";
    object      U;
}
// * * * * * * * * * * * * * * * * * * * * * * * * * * * * * * * * * * * * * //

dimensions      [0 1 -1 0 0 0 0];

internalField   nonuniform List<vector> 
191
(
(72.592 0 -6.12904)
(79.7934 0 2.31556)
(78.2535 0 6.74845)
(72.7249 0 7.02458)
(67.0809 0 5.64173)
(62.3384 0 4.19082)
(58.4886 0 3.09638)
(55.3244 0 2.35939)
(52.6514 0 1.87211)
(50.3669 0 1.53148)
(48.4545 0 1.25425)
(46.9891 0 0.959856)
(37.1215 0 -20.7394)
(50.4494 0 -10.5741)
(61.6161 0 -1.05967)
(69.6158 0 3.257)
(74.9308 0 4.26862)
(78.2076 0 4.16326)
(79.9532 0 3.80565)
(80.6699 0 3.44783)
(80.753 0 3.10029)
(80.5411 0 2.70005)
(80.3417 0 2.15425)
(80.4652 0 1.33322)
(24.6254 0 -27.421)
(30.5611 0 -18.9354)
(40.2473 0 -11.0088)
(51.2323 0 -6.08561)
(60.5901 0 -3.09405)
(67.843 0 -1.0563)
(72.9546 0 0.383593)
(76.4089 0 1.32114)
(78.7514 0 1.77334)
(80.47 0 1.73084)
(81.9724 0 1.15015)
(83.585 0 -0.0508903)
(17.5522 0 -32.4978)
(21.8699 0 -26.166)
(29.9865 0 -20.7243)
(40.1297 0 -16.1821)
(49.2485 0 -11.7455)
(56.605 0 -7.69053)
(61.9856 0 -4.40188)
(65.8091 0 -2.08047)
(68.5917 0 -0.747168)
(70.7855 0 -0.343426)
(72.7289 0 -0.810513)
(74.6364 0 -2.11162)
(9.02382 0 -41.004)
(12.0923 0 -36.3924)
(15.6809 0 -31.8471)
(23.4364 0 -29.1958)
(31.8032 0 -25.2989)
(39.3727 0 -19.5995)
(45.356 0 -13.7075)
(49.6903 0 -8.7646)
(52.7783 0 -5.24344)
(55.0529 0 -3.1647)
(56.8586 0 -2.36186)
(58.4081 0 -2.64573)
(59.7837 0 -3.85007)
(5.21859 0 -43.5064)
(7.26726 0 -39.5182)
(10.2781 0 -37.2495)
(16.6423 0 -36.6277)
(22.6006 0 -32.4926)
(27.8418 0 -25.517)
(31.7884 0 -18.1163)
(34.548 0 -11.9028)
(36.4643 0 -7.49689)
(37.8452 0 -4.87008)
(38.8901 0 -3.73341)
(39.6723 0 -3.76598)
(40.1605 0 -4.69072)
(1.8162 0 -44.8572)
(2.60717 0 -41.7104)
(4.22813 0 -41.0532)
(7.62283 0 -41.429)
(10.616 0 -36.8007)
(13.1222 0 -28.8726)
(14.8916 0 -20.4798)
(16.0204 0 -13.4941)
(16.7151 0 -8.57694)
(17.1297 0 -5.61816)
(17.3234 0 -4.21343)
(17.2577 0 -3.94073)
(16.8274 0 -4.45692)
(-1.42699 0 -44.8465)
(-2.1533 0 -42.048)
(-3.32653 0 -42.1373)
(-3.82583 0 -42.8881)
(-4.18567 0 -38.041)
(-4.53527 0 -29.7599)
(-4.8062 0 -20.997)
(-5.0966 0 -13.7239)
(-5.4174 0 -8.60829)
(-5.79328 0 -5.48221)
(-6.28638 0 -3.86526)
(-7.00944 0 -3.27428)
(-8.10651 0 -3.34237)
(-4.74666 0 -43.3654)
(-7.03248 0 -39.7753)
(-11.4196 0 -39.6444)
(-16.2942 0 -40.4989)
(-20.1117 0 -36.0519)
(-23.2681 0 -28.2813)
(-25.3973 0 -19.9142)
(-26.8647 0 -12.8826)
(-27.9263 0 -7.87963)
(-28.7926 0 -4.75119)
(-29.6366 0 -3.00378)
(-30.6348 0 -2.13041)
(-31.9749 0 -1.76818)
(-8.42937 0 -40.4449)
(-12.02 0 -35.0628)
(-17.7025 0 -33.6271)
(-26.9946 0 -34.0864)
(-34.0551 0 -30.7516)
(-39.7943 0 -24.471)
(-43.6509 0 -17.3566)
(-46.1784 0 -11.1798)
(-47.8149 0 -6.67611)
(-48.9365 0 -3.77513)
(-49.829 0 -2.03273)
(-50.7512 0 -0.945774)
(-51.967 0 -0.174248)
(-12.7798 0 -36.4053)
(-17.1743 0 -30.1842)
(-21.9064 0 -25.3445)
(-32.9861 0 -24.983)
(-42.4995 0 -23.2542)
(-50.151 0 -18.9475)
(-55.4688 0 -13.5487)
(-58.9714 0 -8.69648)
(-61.1446 0 -5.08539)
(-62.4812 0 -2.69903)
(-63.3621 0 -1.1606)
(-64.12 0 0.0282235)
(-65.0859 0 1.17407)
(-17.7477 0 -31.2279)
(-23.1816 0 -25.2947)
(-27.9302 0 -18.0983)
(-34.9875 0 -13.2222)
(-43.4011 0 -12.9496)
(-51.0344 0 -11.8433)
(-57.0933 0 -8.83771)
(-61.3054 0 -5.72904)
(-63.9459 0 -3.32185)
(-65.5691 0 -1.69473)
(-66.6236 0 -0.561626)
(-67.4502 0 0.610905)
(-68.3058 0 2.05525)
(-22.6801 0 -24.6176)
(-29.7175 0 -19.7604)
(-35.1031 0 -13.8184)
(-39.1851 0 -9.37207)
(-43.2035 0 -6.58127)
(-48.518 0 -4.48842)
(-52.6051 0 -2.91394)
(-55.3299 0 -1.73165)
(-57.0503 0 -0.72324)
(-58.1988 0 0.200056)
(-59.1484 0 1.1212)
(-60.1133 0 2.27273)
(-60.9136 0 3.77589)
(-26.3996 0 -15.4422)
(-34.3666 0 -12.2504)
(-40.381 0 -8.54426)
(-44.5749 0 -5.51637)
(-47.8974 0 -3.52659)
(-50.7079 0 -2.36339)
(-52.8864 0 -1.5988)
(-54.5238 0 -0.963048)
(-55.6701 0 -0.358738)
(-56.3778 0 0.223267)
(-56.6923 0 0.798585)
(-56.5615 0 1.45988)
(-55.8094 0 2.26897)
(-29.3267 0 -10.1487)
(-37.8202 0 -7.76919)
(-44.0834 0 -5.03161)
(-48.1694 0 -2.64149)
(-50.8009 0 -0.905948)
(-52.609 0 0.210887)
(-53.9488 0 0.8905)
(-54.9571 0 1.35067)
(-55.6251 0 1.71428)
(-55.9199 0 2.02504)
(-55.8241 0 2.28758)
(-55.3067 0 2.51278)
(-54.2729 0 2.72799)
)
;

boundaryField
{
    top
    {
        type            directionMixed;
        refValue        uniform (0 0 0);
        refGradient     uniform (0 0 0);
        valueFraction   uniform (0 0 0 0 0 1);
        value           nonuniform List<vector> 
13
(
(-29.3267 0 0)
(-37.8202 0 0)
(-44.0834 0 0)
(-48.1694 0 0)
(-50.8009 0 0)
(-52.609 0 0)
(-53.9488 0 0)
(-54.9571 0 0)
(-55.6251 0 0)
(-55.9199 0 0)
(-55.8241 0 0)
(-55.3067 0 0)
(-54.2729 0 0)
)
;
    }
    bottom
    {
        type            fixedValue;
        value           uniform (0 0 0);
    }
    frontAndBack
    {
        type            empty;
    }
    left_cyc
    {
        type            cyclic;
    }
    right_cyc
    {
        type            cyclic;
    }
    procBoundary3to0throughright_cyc
    {
        type            processorCyclic;
        value           nonuniform List<vector> 
15
(
(46.1654 0 0.55921)
(81.2317 0 0.0923223)
(85.5403 0 -1.93351)
(76.595 0 -4.18529)
(60.9571 0 -5.79521)
(40.2521 0 -6.24462)
(15.9032 0 -5.46927)
(-9.70806 0 -3.79278)
(-33.8064 0 -1.68454)
(-53.6713 0 0.439519)
(-66.486 0 2.31214)
(-69.3562 0 3.60288)
(-61.4518 0 5.46103)
(-54.373 0 3.11029)
(-52.6315 0 2.93079)
)
;
    }
    procBoundary3to2
    {
        type            processor;
        value           nonuniform List<vector> 
16
(
(57.961 0 -15.1508)
(24.6986 0 -23.7446)
(18.4429 0 -32.1904)
(13.3619 0 -37.1346)
(13.3619 0 -37.1346)
(5.83918 0 -44.2707)
(3.38628 0 -46.8023)
(1.23882 0 -48.0653)
(-0.772208 0 -48.1095)
(-2.85514 0 -46.9558)
(-5.25357 0 -44.541)
(-8.11156 0 -40.7056)
(-11.3796 0 -35.1665)
(-14.6344 0 -27.906)
(-17.1535 0 -17.6918)
(-19.1926 0 -11.9)
)
;
    }
}


// ************************************************************************* //
