/*--------------------------------*- C++ -*----------------------------------*\
| =========                 |                                                 |
| \\      /  F ield         | OpenFOAM: The Open Source CFD Toolbox           |
|  \\    /   O peration     | Version:  2.3.0                                 |
|   \\  /    A nd           | Web:      www.OpenFOAM.org                      |
|    \\/     M anipulation  |                                                 |
\*---------------------------------------------------------------------------*/
FoamFile
{
    version     2.0;
    format      ascii;
    class       volScalarField;
    location    "1000";
    object      NUEff;
}
// * * * * * * * * * * * * * * * * * * * * * * * * * * * * * * * * * * * * * //

dimensions      [0 2 -1 0 0 0 0];

internalField   nonuniform List<scalar> 
765
(
0.278931
0.269233
0.254228
0.237157
0.220339
0.205059
0.192007
0.182191
0.174512
0.168308
0.163423
0.15991
0.157956
0.157892
0.159749
0.163205
0.168083
0.174357
0.182259
0.192714
0.206271
0.221831
0.238273
0.253634
0.264923
0.268718
0.263094
0.25067
0.234866
0.21848
0.203259
0.190203
0.180468
0.172946
0.166963
0.16237
0.159225
0.157733
0.158221
0.160519
0.164325
0.169482
0.175966
0.184013
0.194532
0.208083
0.223752
0.240764
0.25764
0.271831
0.27999
0.963115
0.961087
0.957076
0.950397
0.93945
0.920403
0.88259
0.788554
0.545092
0.317587
0.233464
0.19993
0.186217
0.185779
0.198655
0.230896
0.312236
0.537992
0.788436
0.88407
0.92145
0.939964
0.950358
0.956411
0.959638
0.960565
0.959166
0.955418
0.948634
0.936985
0.915867
0.871662
0.753224
0.475852
0.287957
0.221817
0.194785
0.184775
0.187943
0.204791
0.244802
0.348945
0.608064
0.816109
0.893018
0.92538
0.942222
0.952073
0.958104
0.961666
0.963316
0.98531
0.984528
0.983036
0.980702
0.977226
0.971979
0.963613
0.948826
0.918406
0.835624
0.552966
0.302888
0.239448
0.237729
0.295846
0.532571
0.829548
0.917212
0.948647
0.963691
0.972088
0.977265
0.980602
0.982725
0.983919
0.984269
0.983741
0.982367
0.980022
0.97637
0.970677
0.961307
0.944058
0.90631
0.792224
0.457698
0.276144
0.234007
0.246203
0.331667
0.633378
0.86181
0.926973
0.952706
0.965721
0.973268
0.97807
0.981271
0.983411
0.984749
0.985389
0.991164
0.990614
0.98958
0.988005
0.985747
0.982503
0.977641
0.969718
0.955247
0.92431
0.837537
0.560088
0.348187
0.342765
0.538939
0.829301
0.922357
0.954713
0.969606
0.977653
0.982562
0.985786
0.987966
0.989401
0.990224
0.990466
0.990101
0.989156
0.987581
0.985215
0.981709
0.976308
0.967249
0.950035
0.910852
0.789783
0.47369
0.331207
0.370187
0.634538
0.865139
0.93316
0.959116
0.971757
0.978841
0.983286
0.986287
0.988384
0.989838
0.990769
0.991219
0.993542
0.993049
0.992127
0.990747
0.988822
0.986151
0.982295
0.97625
0.965795
0.945506
0.898531
0.766055
0.541479
0.532048
0.753652
0.894838
0.944424
0.965501
0.976236
0.982374
0.986284
0.988952
0.990814
0.992066
0.992792
0.993005
0.992683
0.991851
0.990481
0.988472
0.985591
0.981326
0.974479
0.962268
0.937522
0.876547
0.704594
0.509787
0.579142
0.806047
0.91233
0.951067
0.968529
0.977785
0.983234
0.986787
0.989277
0.991077
0.992356
0.993188
0.993591
0.994716
0.994215
0.993277
0.991885
0.989977
0.987399
0.983799
0.978348
0.969334
0.952907
0.919053
0.842063
0.715492
0.709754
0.836442
0.917027
0.952305
0.969261
0.978494
0.984032
0.987687
0.990261
0.992096
0.993347
0.994073
0.994284
0.993964
0.993131
0.991765
0.989792
0.98703
0.983071
0.976949
0.966565
0.947033
0.905277
0.810945
0.693276
0.739966
0.863562
0.928484
0.957288
0.97165
0.97971
0.984665
0.988006
0.990424
0.992215
0.99351
0.994357
0.994765
0.995409
0.994871
0.993856
0.992348
0.990296
0.987567
0.983862
0.978476
0.969989
0.955406
0.928151
0.876404
0.807602
0.805397
0.87397
0.927211
0.955267
0.970209
0.978871
0.98434
0.988087
0.990789
0.992737
0.994068
0.994838
0.995059
0.994723
0.993838
0.992385
0.990293
0.987404
0.983373
0.97739
0.967758
0.950829
0.918621
0.859212
0.796887
0.820093
0.889735
0.935408
0.9592
0.972131
0.979797
0.984742
0.988205
0.990775
0.992706
0.994108
0.995023
0.995461
0.99591
0.995325
0.994214
0.992554
0.990284
0.987276
0.983265
0.977709
0.969431
0.956142
0.933748
0.897765
0.858573
0.857959
0.897153
0.933751
0.95655
0.970056
0.97846
0.984083
0.98809
0.99102
0.993133
0.99457
0.995395
0.995631
0.995272
0.994322
0.992751
0.990482
0.987351
0.983064
0.976985
0.967761
0.952738
0.927321
0.888138
0.85342
0.865164
0.90637
0.93944
0.959503
0.971478
0.979046
0.984208
0.987979
0.990814
0.992949
0.994491
0.995491
0.995966
0.996346
0.99572
0.994529
0.992741
0.990283
0.987026
0.982756
0.9771
0.969152
0.957349
0.939532
0.915005
0.892446
0.892523
0.915454
0.940323
0.958336
0.970248
0.978263
0.983947
0.988145
0.991248
0.993489
0.995009
0.995882
0.996133
0.995752
0.994748
0.993085
0.990677
0.987365
0.982891
0.976815
0.968145
0.955155
0.935633
0.909909
0.889994
0.895997
0.920491
0.943849
0.960238
0.971072
0.978439
0.983754
0.987784
0.990858
0.993167
0.994826
0.995897
0.996407
0.996789
0.996149
0.994942
0.99313
0.990634
0.987329
0.983052
0.977614
0.970418
0.960617
0.947464
0.931844
0.91945
0.919794
0.932795
0.948749
0.962044
0.971899
0.979108
0.984521
0.988655
0.991745
0.993982
0.995501
0.99638
0.996635
0.996249
0.99524
0.993578
0.991175
0.987881
0.983492
0.977767
0.970087
0.959567
0.945551
0.929532
0.918399
0.921292
0.93513
0.950494
0.962929
0.972111
0.97888
0.984043
0.988096
0.991217
0.993561
0.995242
0.99633
0.996852
0.997273
0.996665
0.995533
0.993852
0.991555
0.988547
0.984732
0.980052
0.974235
0.967012
0.958425
0.949563
0.943389
0.943747
0.95053
0.959757
0.968513
0.975795
0.981606
0.986226
0.98988
0.992662
0.994703
0.996106
0.996928
0.99717
0.996804
0.995863
0.994333
0.992146
0.989189
0.98533
0.980494
0.974401
0.966796
0.957808
0.948781
0.943028
0.944261
0.951325
0.960305
0.968647
0.975562
0.981119
0.985599
0.989239
0.992089
0.99425
0.995813
0.996836
0.997334
0.99781
0.997285
0.996328
0.994941
0.993092
0.990738
0.987849
0.984438
0.980466
0.97597
0.971211
0.966872
0.964163
0.96441
0.967552
0.972195
0.977136
0.981718
0.985705
0.989071
0.991843
0.994027
0.995677
0.99684
0.997537
0.997747
0.997431
0.996637
0.995375
0.993618
0.991313
0.988409
0.984921
0.980807
0.976122
0.971171
0.966726
0.964078
0.96453
0.967693
0.972203
0.976946
0.981342
0.985196
0.988491
0.991271
0.993517
0.995267
0.996563
0.997431
0.997863
0.998395
0.997999
0.9973
0.996323
0.995076
0.993561
0.991783
0.989765
0.987564
0.985277
0.983082
0.981269
0.980228
0.980353
0.981622
0.983617
0.985946
0.988318
0.990558
0.992566
0.994293
0.995723
0.996854
0.997686
0.998202
0.998361
0.998123
0.997538
0.996643
0.99545
0.993958
0.992169
0.990108
0.987831
0.98545
0.983163
0.981283
0.980219
0.980364
0.9816
0.983521
0.985754
0.988035
0.990203
0.992171
0.993898
0.995358
0.996548
0.997469
0.998108
0.998436
0.999017
0.998779
0.998375
0.997839
0.997194
0.996456
0.995631
0.994719
0.99378
0.992871
0.992062
0.991439
0.9911
0.991147
0.991573
0.992275
0.993151
0.994112
0.995083
0.996
0.996817
0.997531
0.998133
0.998602
0.998906
0.999002
0.998858
0.998517
0.998019
0.997392
0.996657
0.995821
0.994885
0.993909
0.992959
0.992112
0.991459
0.991102
0.991144
0.99155
0.992219
0.993056
0.993976
0.994913
0.99581
0.996617
0.997337
0.99796
0.998471
0.998844
0.999042
0.999662
0.999586
0.999463
0.999311
0.999142
0.998962
0.998766
0.998544
0.998323
0.99812
0.997948
0.997821
0.997754
0.997764
0.997849
0.997993
0.998182
0.9984
0.998632
0.998855
0.99905
0.99923
0.999394
0.999532
0.999627
0.999658
0.999612
0.999506
0.999362
0.999195
0.999012
0.998814
0.998584
0.998354
0.99814
0.997959
0.997826
0.997755
0.997763
0.997843
0.997981
0.99816
0.998368
0.99859
0.998809
0.999
0.999178
0.999344
0.999491
0.999606
0.99967
)
;

boundaryField
{
    top
    {
        type            calculated;
        value           uniform 1;
    }
    bottom
    {
        type            calculated;
        value           uniform 0.148957;
    }
    frontAndBack
    {
        type            empty;
    }
    left_cyc
    {
        type            cyclic;
    }
    right_cyc
    {
        type            cyclic;
    }
}


// ************************************************************************* //
