/*--------------------------------*- C++ -*----------------------------------*\
| =========                 |                                                 |
| \\      /  F ield         | OpenFOAM: The Open Source CFD Toolbox           |
|  \\    /   O peration     | Version:  2.3.0                                 |
|   \\  /    A nd           | Web:      www.OpenFOAM.org                      |
|    \\/     M anipulation  |                                                 |
\*---------------------------------------------------------------------------*/
FoamFile
{
    version     2.0;
    format      ascii;
    class       volScalarField;
    location    "1000";
    object      p;
}
// * * * * * * * * * * * * * * * * * * * * * * * * * * * * * * * * * * * * * //

dimensions      [0 2 -2 0 0 0 0];

internalField   nonuniform List<scalar> 
765
(
0
-1178.92
-1090.34
-1115.03
-1102.61
-1091.09
-1071.18
-1043.89
-1008.97
-969.147
-927.304
-885.846
-845.881
-806.97
-768.366
-729.762
-691.125
-652.642
-614.727
-578.031
-543.43
-511.978
-484.838
-463.17
-448.017
-440.194
-440.184
-447.989
-463.124
-484.777
-511.906
-543.35
-577.946
-614.638
-652.55
-691.033
-729.673
-768.28
-806.885
-845.795
-885.759
-927.219
-969.069
-1008.9
-1043.83
-1071.15
-1091.06
-1102.58
-1115.01
-1090.33
-1178.91
-855.118
-1019.64
-954.197
-954.037
-939.515
-928.803
-912.289
-890.133
-862.047
-828.369
-791.238
-752.6
-714.06
-676.62
-640.475
-605.477
-571.568
-538.847
-507.567
-478.111
-450.967
-426.699
-405.94
-389.375
-377.728
-371.675
-371.666
-377.704
-389.34
-405.897
-426.652
-450.914
-478.052
-507.5
-538.773
-571.491
-605.401
-640.398
-676.541
-713.979
-752.523
-791.167
-828.304
-861.99
-890.091
-912.258
-928.777
-939.494
-954.013
-954.178
-1019.62
-715.658
-791.447
-770.368
-778.715
-773.975
-772.21
-763.2
-744.33
-717.524
-687.424
-655.747
-622.912
-589.688
-556.956
-525.182
-494.481
-464.921
-436.618
-409.766
-384.639
-361.585
-341.033
-323.484
-309.507
-299.705
-294.621
-294.614
-299.686
-309.479
-323.448
-340.991
-361.538
-384.585
-409.706
-436.555
-464.856
-494.416
-525.114
-556.888
-589.621
-622.85
-655.687
-687.365
-717.473
-744.294
-763.173
-772.192
-773.971
-778.694
-770.356
-791.451
-597.122
-630.745
-619.6
-622.702
-621.024
-623.767
-616.767
-597.676
-574.484
-551.03
-526.435
-500.508
-473.775
-446.918
-420.37
-394.348
-369.001
-344.482
-320.984
-298.771
-278.188
-259.671
-243.744
-231.001
-222.045
-217.402
-217.395
-222.027
-230.974
-243.712
-259.634
-278.146
-298.724
-320.932
-344.428
-368.947
-394.294
-420.315
-446.865
-473.725
-500.461
-526.388
-550.983
-574.444
-597.636
-616.734
-623.764
-621.016
-622.692
-619.588
-630.733
-457.683
-472.626
-467.81
-470.106
-471.65
-476.61
-472.932
-459.841
-443.888
-426.626
-407.921
-388.009
-367.291
-346.206
-325.073
-304.103
-283.453
-263.272
-243.735
-225.069
-207.585
-191.687
-177.878
-166.737
-158.86
-154.763
-154.757
-158.843
-166.713
-177.85
-191.656
-207.55
-225.031
-243.693
-263.231
-283.412
-304.061
-325.031
-346.167
-367.256
-387.975
-407.887
-426.598
-443.868
-459.816
-472.916
-476.602
-471.656
-470.099
-467.804
-472.622
-316.533
-322.957
-321.382
-323.618
-326.325
-332.156
-333.548
-326.765
-317.033
-305.859
-293.227
-279.35
-264.517
-249.062
-233.257
-217.294
-201.321
-185.47
-169.894
-154.79
-140.43
-127.184
-115.524
-106.006
-99.2157
-95.664
-95.6582
-99.2001
-105.985
-115.5
-127.159
-140.403
-154.761
-169.864
-185.44
-201.29
-217.262
-233.225
-249.034
-264.491
-279.321
-293.196
-305.833
-317.004
-326.73
-333.566
-332.165
-326.327
-323.617
-321.382
-322.968
-172.125
-175.285
-175.841
-178.673
-181.891
-187.706
-193.711
-194.181
-190.78
-185.621
-178.859
-170.737
-161.521
-151.483
-140.87
-129.864
-118.6
-107.196
-95.7777
-84.5043
-73.5972
-63.3636
-54.2081
-46.623
-41.1427
-38.2506
-38.2455
-41.1293
-46.6053
-54.1896
-63.3453
-73.5785
-84.4847
-95.7579
-107.176
-118.579
-129.841
-140.85
-151.468
-161.509
-170.724
-178.853
-185.63
-190.79
-194.176
-193.705
-187.718
-181.899
-178.678
-175.843
-175.278
-26.6631
-28.5574
-30.3481
-33.8178
-37.3965
-42.7325
-51.8955
-59.966
-62.9252
-63.4347
-62.1881
-59.4927
-55.6128
-50.7984
-45.2672
-39.2036
-32.7412
-25.9857
-19.0349
-12.0017
-5.03565
1.65256
7.77499
12.9626
16.7898
18.8445
18.8482
16.7992
12.9742
7.78605
1.66276
-5.02538
-11.991
-19.0243
-25.9748
-32.7288
-39.1907
-45.2581
-50.7952
-55.6107
-59.4887
-62.1865
-63.4304
-62.9139
-59.9857
-51.9051
-42.7478
-37.405
-33.8243
-30.3519
-28.5536
120.269
118.845
116.324
112.275
108.011
102.783
92.7211
78.579
68.4394
62.3125
58.3179
55.868
54.6396
54.3571
54.8104
55.8184
57.2491
59.0079
61.0281
63.2551
65.6352
68.0913
70.5048
72.6965
74.4213
75.4004
75.4021
74.4249
72.6999
70.507
68.093
65.6374
63.2575
61.0295
59.0088
57.2505
55.8192
54.8072
54.3517
54.6386
55.869
58.3081
62.2981
68.4336
78.5471
92.7032
102.772
108.006
112.271
116.32
118.831
268.424
267.119
264.016
259.233
253.673
247.293
237.179
220.929
204.211
191.854
182.476
174.925
168.659
163.306
158.601
154.355
150.447
146.799
143.384
140.221
137.373
134.925
132.97
131.572
130.733
130.379
130.379
130.731
131.567
132.963
134.919
137.367
140.214
143.374
146.786
150.433
154.339
158.58
163.284
168.642
174.909
182.456
191.836
204.191
220.896
237.16
247.281
253.664
259.226
264.01
267.11
418.542
417.254
413.836
408.532
401.586
392.807
381.29
364.819
344.72
326.315
311.07
298.011
286.374
275.636
265.437
255.535
245.806
236.203
226.753
217.559
208.821
200.808
193.85
188.294
184.443
182.497
182.494
184.435
188.281
193.835
200.792
208.804
217.539
226.729
236.178
245.784
255.513
265.412
275.612
286.353
297.986
311.04
326.289
344.688
364.786
381.27
392.79
401.572
408.52
413.827
417.259
564.992
562.97
557.389
548.721
537.257
523.825
509.107
491.28
470.294
449.486
430.597
413.267
396.977
381.296
365.907
350.582
335.183
319.707
304.26
289.036
274.391
260.782
248.779
239.01
232.089
228.506
228.502
232.077
238.991
248.754
260.754
274.36
289.002
304.226
319.677
335.157
350.555
365.873
381.259
396.941
413.228
430.556
449.455
470.26
491.247
509.082
523.802
537.236
548.704
557.376
562.965
690.978
688.093
680.591
670.335
658.267
645.267
632.002
616.967
598.666
578.147
556.84
535.297
513.709
492.08
470.344
448.43
426.276
403.891
381.472
359.3
337.894
317.893
300.116
285.504
275.027
269.538
269.533
275.012
285.478
300.08
317.851
337.85
359.256
381.429
403.848
426.229
448.374
470.283
492.025
513.667
535.257
556.798
578.112
598.633
616.939
631.981
645.248
658.249
670.32
680.578
688.071
704.593
702.611
697.22
689.974
683.255
677.6
670.457
659.233
643.485
624.641
604.002
582.275
559.841
536.872
513.439
489.574
465.322
440.704
415.949
391.262
367.358
345.028
325.234
309.028
297.455
291.42
291.414
297.438
308.998
325.195
344.985
367.315
391.216
415.897
440.648
465.267
489.523
513.391
536.825
559.794
582.225
603.958
624.609
643.458
659.212
670.444
677.591
683.244
689.962
697.21
702.595
1024.26
1023.59
1021.46
1018.05
1012.2
1000.67
982.021
956.467
924.967
889.317
851.154
811.617
771.424
730.97
690.448
649.959
609.625
569.553
530.11
491.37
454.074
418.945
387.207
360.518
340.883
330.4
330.387
340.847
360.467
387.146
418.878
454
491.29
530.03
569.48
609.558
649.888
690.369
730.894
771.358
811.553
851.09
889.261
924.919
956.427
981.99
1000.65
1012.19
1018.04
1021.45
1023.61
)
;

boundaryField
{
    top
    {
        type            calculated;
        value           nonuniform List<scalar> 
51
(
82.3411
88.9609
105.718
129.714
157.459
184.313
207.932
227.791
243.986
257.133
267.652
275.733
281.529
285.22
287.051
287.289
286.137
283.504
279.817
273.626
267.661
263.372
261.63
262.687
265.888
269.308
269.314
265.897
262.694
261.634
263.371
267.652
273.611
279.806
283.5
286.139
287.285
287.037
285.209
281.53
275.737
267.656
257.145
244.004
227.813
207.96
184.345
157.494
129.747
105.745
88.9977
)
;
    }
    bottom
    {
        type            calculated;
        value           nonuniform List<scalar> 
51
(
-82.9013
-1261.77
-1172.9
-1196.97
-1183.82
-1171.67
-1151.21
-1123.41
-1088.04
-1047.78
-1005.53
-963.684
-923.324
-884.003
-844.966
-805.904
-766.776
-727.769
-689.3
-652.031
-616.854
-584.848
-557.201
-535.106
-519.637
-511.64
-511.63
-519.608
-535.059
-557.139
-584.774
-616.773
-651.944
-689.209
-727.675
-766.682
-805.813
-844.879
-883.917
-923.237
-963.596
-1005.45
-1047.7
-1087.96
-1123.35
-1151.17
-1171.64
-1183.79
-1196.94
-1172.89
-1261.76
)
;
    }
    frontAndBack
    {
        type            empty;
    }
    left_cyc
    {
        type            cyclic;
    }
    right_cyc
    {
        type            cyclic;
    }
}


// ************************************************************************* //
