/*--------------------------------*- C++ -*----------------------------------*\
| =========                 |                                                 |
| \\      /  F ield         | OpenFOAM: The Open Source CFD Toolbox           |
|  \\    /   O peration     | Version:  2.3.0                                 |
|   \\  /    A nd           | Web:      www.OpenFOAM.org                      |
|    \\/     M anipulation  |                                                 |
\*---------------------------------------------------------------------------*/
FoamFile
{
    version     2.0;
    format      ascii;
    class       volScalarField;
    location    "1000";
    object      p;
}
// * * * * * * * * * * * * * * * * * * * * * * * * * * * * * * * * * * * * * //

dimensions      [0 2 -2 0 0 0 0];

internalField   nonuniform List<scalar> 
765
(
-1855.37
-1838.31
-1818.18
-1799.98
-1786.97
-1781.92
-1786.97
-1799.67
-1817.4
-1837.5
-1855.78
-1866.56
-1862.75
-1848.64
-1830
-1810.42
-1791.58
-1773.84
-1757.24
-1742.56
-1731.92
-1728.81
-1735.82
-1749.7
-1767.55
-1787.89
-1809.55
-1830.18
-1845.69
-1849.62
-1838.82
-1820.74
-1799.92
-1779.1
-1759.09
-1739.72
-1720.97
-1704
-1691.81
-1688.93
-1697.33
-1712.32
-1729.83
-1747.7
-1765.27
-1782.86
-1801.19
-1820.43
-1839.47
-1855.22
-1862.72
-1673.41
-1665.57
-1655.69
-1646.44
-1639.46
-1636.78
-1639.7
-1646.77
-1656.19
-1666.52
-1675.41
-1680.34
-1677.61
-1669.62
-1658.5
-1646.14
-1633.96
-1622.49
-1612.03
-1603.09
-1596.77
-1595.13
-1599.49
-1607.92
-1618.54
-1630.43
-1642.83
-1653.99
-1661.71
-1663.37
-1657.38
-1647.25
-1634.54
-1621.15
-1608.13
-1595.7
-1584.13
-1574
-1566.77
-1565.05
-1569.73
-1578.38
-1588.79
-1600.1
-1611.92
-1624.21
-1636.97
-1649.91
-1661.94
-1671.26
-1676.21
-1513.62
-1510.94
-1506.47
-1501.34
-1496.91
-1495.19
-1497.42
-1502.21
-1507.71
-1512.83
-1516.35
-1517.83
-1516.35
-1512.7
-1506.94
-1499.93
-1492.67
-1485.58
-1478.67
-1472.07
-1466.75
-1465.12
-1468.48
-1474.73
-1481.62
-1488.57
-1495.17
-1500.24
-1502.96
-1503.21
-1500.72
-1496.15
-1489.42
-1481.79
-1474.13
-1466.57
-1458.95
-1451.4
-1445.41
-1444.03
-1448.2
-1455.25
-1462.67
-1470
-1477.32
-1484.82
-1492.58
-1500.22
-1506.84
-1511.42
-1513.98
-1362.77
-1363.06
-1361.61
-1358.67
-1355.61
-1354.46
-1356.28
-1359.79
-1363.14
-1365.23
-1365.58
-1365
-1364.64
-1363.92
-1361.9
-1358.78
-1355.1
-1351.06
-1346.46
-1341.27
-1336.57
-1334.87
-1337.35
-1342.11
-1346.74
-1350.57
-1353.38
-1354.62
-1354.27
-1353.73
-1353.62
-1352.63
-1350.07
-1346.62
-1342.77
-1338.47
-1333.38
-1327.65
-1322.96
-1322.04
-1325.61
-1331.5
-1337.08
-1341.85
-1346.01
-1349.91
-1353.76
-1357.32
-1359.98
-1361.27
-1361.89
-1216.19
-1217.69
-1217.52
-1215.63
-1213.53
-1212.85
-1214.18
-1216.72
-1218.92
-1219.56
-1218.52
-1217.1
-1217.6
-1218.61
-1218.76
-1218.01
-1216.57
-1214.51
-1211.61
-1207.89
-1204.45
-1203.1
-1204.28
-1207.25
-1210.21
-1212.21
-1212.95
-1212.27
-1210.48
-1209.7
-1210.94
-1211.84
-1211.67
-1210.7
-1209.16
-1206.97
-1203.94
-1200.58
-1198.58
-1198.57
-1200.21
-1203.79
-1207.44
-1210.26
-1212.34
-1213.96
-1215.35
-1216.35
-1216.57
-1215.87
-1215.09
-1070.65
-1072.51
-1072.94
-1071.89
-1070.97
-1070.89
-1071.41
-1072.65
-1073.87
-1073.73
-1072.1
-1070.52
-1071.6
-1073.69
-1075.21
-1075.89
-1075.86
-1075.22
-1073.93
-1072.23
-1071.28
-1071.01
-1070.11
-1070.35
-1071.43
-1072.11
-1071.68
-1070.05
-1067.67
-1066.96
-1068.92
-1070.92
-1072.12
-1072.57
-1072.46
-1071.87
-1071.03
-1071.22
-1074.03
-1075.55
-1073.08
-1072.61
-1073.78
-1074.78
-1075.35
-1075.55
-1075.44
-1074.87
-1073.55
-1071.52
-1069.78
-924.619
-926.456
-927.345
-927.432
-928.343
-929.253
-928.392
-927.615
-927.561
-926.796
-924.952
-923.513
-924.934
-927.715
-930.193
-931.872
-932.872
-933.382
-933.742
-934.734
-937.826
-939.776
-935.628
-931.817
-930.538
-929.924
-928.688
-926.535
-924.042
-923.512
-925.873
-928.589
-930.689
-932.073
-932.966
-933.788
-935.351
-940.268
-950.626
-954.477
-944.878
-938.584
-936.823
-936.039
-935.421
-934.65
-933.523
-931.85
-929.421
-926.433
-924.106
-777.458
-779.222
-780.713
-782.601
-786.444
-789.07
-785.95
-782.038
-780.055
-778.504
-776.535
-775.308
-776.904
-780.019
-783.15
-785.686
-787.69
-789.455
-791.782
-796.233
-805.304
-811.232
-802.121
-792.409
-787.974
-785.723
-783.685
-781.228
-778.867
-778.537
-781.057
-784.192
-786.975
-789.177
-791.063
-793.442
-797.878
-809.44
-831.554
-838.632
-817.527
-802.886
-797.594
-794.851
-793.031
-791.32
-789.274
-786.668
-783.405
-779.864
-777.26
-628.916
-630.823
-633.436
-638.178
-646.681
-652.23
-645.591
-636.816
-631.812
-628.968
-626.679
-625.599
-627.252
-630.463
-634.024
-637.333
-640.486
-643.937
-648.954
-658.325
-676.619
-689.035
-672.647
-653.703
-644.48
-639.878
-636.791
-634.048
-631.89
-631.73
-634.264
-637.625
-640.945
-643.971
-647.105
-651.429
-659.572
-680.619
-714.076
-722.044
-692.594
-666.766
-656.941
-651.85
-648.48
-645.613
-642.609
-639.182
-635.328
-631.54
-628.88
-479.063
-481.698
-486.643
-496.241
-512.304
-522.649
-510.76
-494.257
-484.126
-478.776
-475.56
-474.452
-476.087
-479.284
-483.178
-487.301
-492.047
-498.061
-507.133
-523.936
-553.605
-567.348
-548.677
-518.526
-501.925
-493.592
-488.613
-485.268
-483.221
-483.164
-485.643
-489.166
-492.999
-497.054
-502.011
-508.66
-521.079
-552.667
-584.698
-593.999
-566.247
-530.578
-515.668
-508.028
-502.514
-498.015
-493.915
-489.714
-485.42
-481.559
-478.986
-329.39
-334.278
-343.91
-361.218
-385.082
-397.53
-383.006
-358.992
-340.884
-330.708
-324.941
-323.142
-324.541
-327.695
-332.067
-337.44
-344.864
-354.669
-368.491
-390.836
-422.408
-439.78
-418.587
-384.857
-362.351
-349.431
-341.091
-336.177
-333.809
-333.637
-336.083
-339.962
-344.69
-350.698
-358.963
-368.985
-389.431
-433.012
-468.095
-472.244
-448.674
-403.416
-378.248
-366.918
-357.89
-350.529
-344.754
-339.551
-334.769
-330.922
-328.663
-183.568
-192.311
-206.297
-229.414
-267.623
-283.2
-267.475
-227.195
-202.639
-188.546
-178.751
-175.278
-176.098
-179.418
-184.932
-192.572
-203.89
-217.056
-234.348
-276.228
-297.084
-297.691
-297.571
-273.327
-229.343
-211.348
-198.888
-190.767
-187.064
-186.216
-188.809
-193.745
-200.437
-210.05
-222.902
-237.218
-279.189
-355.881
-369.849
-368.902
-362.246
-297.34
-250.166
-233.067
-220.11
-208.405
-199.684
-192.608
-186.816
-182.859
-181.249
-51.679
-70.534
-104.187
-125.235
-134.507
-142.059
-133.321
-121.04
-102.815
-69.3078
-48.2183
-39.8391
-38.7533
-42.0726
-49.0826
-59.8583
-79.7351
-109.341
-140.658
-185.828
-204.455
-199.576
-208.799
-191.687
-140.419
-103.073
-71.9694
-56.1888
-49.7148
-47.1711
-49.9689
-56.4907
-65.5222
-80.5417
-106.18
-145.519
-197.503
-243.614
-254.199
-253.933
-245.067
-202.059
-155.19
-122.394
-96.0093
-76.6058
-64.5995
-55.5454
-48.5857
-44.7809
-45.0903
22.461
0.855515
-34.9829
-58.9757
-61.5944
-62.8926
-60.6624
-57.6132
-37.5188
2.25599
23.205
43.0955
50.0973
47.1018
35.6322
20.796
10.7566
-14.125
-56.5426
-80.7097
-103.388
-109.182
-107.056
-87.9755
-63.8068
-19.026
6.58629
24.5752
39.0288
47.1464
43.9721
32.8774
18.2113
5.34962
-7.00858
-62.3499
-95.8018
-134.101
-150.441
-150.83
-136.027
-97.2289
-63.8072
-17.0303
2.39324
8.39224
21.4713
34.9423
44.7361
47.2703
40.6698
19.8319
26.6342
19.0765
0.00189739
-17.0298
-23.3347
-15.4323
3.52631
25.5016
38.8949
35.47
34.8009
30.3432
31.2693
32.6894
28.9259
32.2183
18.2427
-20.1413
-69.4159
-106.853
-120.853
-114.154
-83.2148
-38.8962
-5.6547
3.12318
0.862639
1.32295
-1.94507
-0.600364
3.56488
1.38103
-1.60003
-10.1724
-52.3229
-112.694
-170.046
-200.24
-200.827
-171.983
-114.604
-50.1434
-2.54872
15.5988
15.3077
19.3063
18.3568
14.6609
13.6004
18.7516
)
;

boundaryField
{
    top
    {
        type            calculated;
        value           uniform -9.81;
    }
    bottom
    {
        type            calculated;
        value           nonuniform List<scalar> 
51
(
-1948.23
-1929.08
-1906.73
-1886.21
-1871.6
-1865.82
-1871.61
-1885.8
-1905.64
-1927.9
-1948.21
-1960.69
-1956.31
-1940.65
-1920.61
-1899.71
-1879.39
-1860.15
-1842
-1825.74
-1813.73
-1809.96
-1817.87
-1833.23
-1852.84
-1875.19
-1898.73
-1921.19
-1938.62
-1943.34
-1931.02
-1911.31
-1889.07
-1866.85
-1845.2
-1824.13
-1803.54
-1784.71
-1770.97
-1767.62
-1777.32
-1794.18
-1813.64
-1833.29
-1852.33
-1871.18
-1890.65
-1910.96
-1931.21
-1948.4
-1956.93
)
;
    }
    frontAndBack
    {
        type            empty;
    }
    left_cyc
    {
        type            cyclic;
    }
    right_cyc
    {
        type            cyclic;
    }
}


// ************************************************************************* //
