/*--------------------------------*- C++ -*----------------------------------*\
| =========                 |                                                 |
| \\      /  F ield         | OpenFOAM: The Open Source CFD Toolbox           |
|  \\    /   O peration     | Version:  2.3.0                                 |
|   \\  /    A nd           | Web:      www.OpenFOAM.org                      |
|    \\/     M anipulation  |                                                 |
\*---------------------------------------------------------------------------*/
FoamFile
{
    version     2.0;
    format      ascii;
    class       volScalarField;
    location    "1000";
    object      p_rgh;
}
// * * * * * * * * * * * * * * * * * * * * * * * * * * * * * * * * * * * * * //

dimensions      [0 2 -2 0 0 0 0];

internalField   nonuniform List<scalar> 
3060
(
-40.7164
-40.722
-40.7326
-40.7479
-40.7676
-40.7914
-40.8187
-40.8491
-40.8819
-40.9166
-40.9526
-40.9893
-41.0261
-41.0624
-41.0977
-41.1315
-41.1635
-41.1933
-41.2205
-41.245
-41.2666
-41.2852
-41.3006
-41.3129
-41.3222
-41.3285
-41.3321
-41.3329
-41.3313
-41.3275
-41.3217
-41.3142
-41.3052
-41.295
-41.2839
-41.272
-41.2597
-41.2472
-41.2347
-41.2224
-41.2105
-41.1991
-41.1885
-41.1787
-41.1699
-41.1622
-41.1557
-41.1505
-41.1466
-41.144
-41.1428
-41.143
-41.1446
-41.1476
-41.1519
-41.1576
-41.1644
-41.1724
-41.1815
-41.1915
-41.2024
-41.2139
-41.2259
-41.2383
-41.2508
-41.2632
-41.2754
-41.287
-41.2979
-41.3077
-41.3163
-41.3233
-41.3286
-41.3318
-41.3327
-41.3311
-41.3269
-41.3198
-41.3097
-41.2965
-41.2803
-41.261
-41.2387
-41.2136
-41.1857
-41.1554
-41.123
-41.0888
-41.0534
-41.017
-40.9803
-40.9438
-40.9082
-40.8739
-40.8417
-40.8121
-40.7856
-40.7628
-40.7441
-40.7298
-40.7204
-40.7159
-37.5853
-37.5907
-37.601
-37.616
-37.6352
-37.6584
-37.685
-37.7146
-37.7467
-37.7806
-37.8159
-37.8518
-37.8878
-37.9234
-37.958
-37.9913
-38.0228
-38.0522
-38.0792
-38.1035
-38.125
-38.1435
-38.159
-38.1715
-38.181
-38.1876
-38.1915
-38.1927
-38.1915
-38.1881
-38.1827
-38.1757
-38.1671
-38.1573
-38.1466
-38.1351
-38.1232
-38.111
-38.0988
-38.0867
-38.075
-38.0639
-38.0534
-38.0438
-38.0351
-38.0276
-38.0212
-38.016
-38.0121
-38.0096
-38.0084
-38.0086
-38.0102
-38.0131
-38.0174
-38.0229
-38.0297
-38.0376
-38.0465
-38.0564
-38.0671
-38.0784
-38.0902
-38.1023
-38.1145
-38.1266
-38.1384
-38.1496
-38.1601
-38.1695
-38.1776
-38.1842
-38.1891
-38.1919
-38.1924
-38.1905
-38.1859
-38.1785
-38.1683
-38.155
-38.1387
-38.1194
-38.0973
-38.0723
-38.0448
-38.0149
-37.983
-37.9494
-37.9145
-37.8789
-37.8429
-37.8072
-37.7723
-37.7389
-37.7074
-37.6785
-37.6527
-37.6305
-37.6122
-37.5984
-37.5892
-37.5848
-31.3136
-31.3191
-31.3298
-31.3452
-31.3649
-31.3887
-31.4161
-31.4465
-31.4794
-31.5142
-31.5503
-31.5871
-31.624
-31.6604
-31.6959
-31.7299
-31.7621
-31.7921
-31.8196
-31.8444
-31.8663
-31.8852
-31.901
-31.9137
-31.9234
-31.93
-31.9339
-31.9351
-31.9338
-31.9302
-31.9247
-31.9174
-31.9085
-31.8985
-31.8875
-31.8757
-31.8635
-31.851
-31.8385
-31.8261
-31.8141
-31.8026
-31.7919
-31.782
-31.7732
-31.7654
-31.7588
-31.7535
-31.7495
-31.7469
-31.7457
-31.7459
-31.7476
-31.7506
-31.755
-31.7606
-31.7676
-31.7757
-31.7849
-31.795
-31.8059
-31.8175
-31.8296
-31.842
-31.8545
-31.867
-31.879
-31.8906
-31.9013
-31.911
-31.9194
-31.9262
-31.9312
-31.9341
-31.9348
-31.9329
-31.9283
-31.9208
-31.9104
-31.8969
-31.8803
-31.8607
-31.8381
-31.8126
-31.7845
-31.754
-31.7214
-31.687
-31.6514
-31.6149
-31.5781
-31.5415
-31.5057
-31.4714
-31.4391
-31.4094
-31.3829
-31.3601
-31.3414
-31.3271
-31.3176
-31.3131
-21.9404
-21.9461
-21.957
-21.9728
-21.993
-22.0174
-22.0453
-22.0764
-22.1101
-22.1457
-22.1826
-22.2203
-22.258
-22.2952
-22.3314
-22.3662
-22.3991
-22.4297
-22.4579
-22.4832
-22.5056
-22.525
-22.5411
-22.5541
-22.564
-22.5708
-22.5748
-22.576
-22.5747
-22.5711
-22.5654
-22.5579
-22.5489
-22.5386
-22.5273
-22.5153
-22.5028
-22.49
-22.4772
-22.4645
-22.4522
-22.4405
-22.4295
-22.4193
-22.4102
-22.4023
-22.3955
-22.3901
-22.386
-22.3833
-22.3821
-22.3823
-22.384
-22.3871
-22.3916
-22.3974
-22.4045
-22.4128
-22.4222
-22.4326
-22.4438
-22.4557
-22.4682
-22.4809
-22.4937
-22.5064
-22.5187
-22.5305
-22.5415
-22.5514
-22.56
-22.567
-22.5721
-22.575
-22.5757
-22.5737
-22.569
-22.5614
-22.5507
-22.5369
-22.5199
-22.4999
-22.4767
-22.4507
-22.422
-22.3908
-22.3575
-22.3224
-22.286
-22.2487
-22.211
-22.1736
-22.137
-22.1019
-22.0689
-22.0385
-22.0114
-21.9881
-21.9689
-21.9543
-21.9445
-21.94
-9.5095
-9.51503
-9.52595
-9.54161
-9.56169
-9.58581
-9.61354
-9.64438
-9.67777
-9.71312
-9.74983
-9.78728
-9.82485
-9.86194
-9.89807
-9.9328
-9.96571
-9.99646
-10.0247
-10.0503
-10.0729
-10.0925
-10.1089
-10.1222
-10.1324
-10.1396
-10.1439
-10.1455
-10.1445
-10.1412
-10.1358
-10.1287
-10.1199
-10.1099
-10.0988
-10.0869
-10.0745
-10.0619
-10.0491
-10.0365
-10.0243
-10.0125
-10.0015
-9.9914
-9.98227
-9.97428
-9.96751
-9.96204
-9.95795
-9.95527
-9.95403
-9.95425
-9.95592
-9.95903
-9.96354
-9.9694
-9.97654
-9.98487
-9.99429
-10.0047
-10.0159
-10.0278
-10.0401
-10.0528
-10.0655
-10.0781
-10.0903
-10.1019
-10.1127
-10.1224
-10.1307
-10.1374
-10.1421
-10.1448
-10.1451
-10.1428
-10.1377
-10.1298
-10.1187
-10.1046
-10.0874
-10.0671
-10.0437
-10.0175
-9.98867
-9.95743
-9.9241
-9.88907
-9.85274
-9.81557
-9.77807
-9.74083
-9.70448
-9.66964
-9.63688
-9.60681
-9.57995
-9.55681
-9.53779
-9.52328
-9.51356
-9.50916
5.94893
5.94338
5.93219
5.91621
5.89577
5.87127
5.84312
5.81185
5.77801
5.74219
5.70499
5.66705
5.62899
5.59143
5.55487
5.51972
5.48641
5.4553
5.42668
5.40081
5.37789
5.35804
5.34135
5.32782
5.31743
5.31008
5.30567
5.30402
5.30493
5.30819
5.31356
5.32077
5.32957
5.33969
5.35085
5.3628
5.37528
5.38806
5.40092
5.41363
5.42603
5.43789
5.44903
5.45928
5.46852
5.47662
5.48347
5.48901
5.49315
5.49587
5.49712
5.4969
5.49521
5.49206
5.48749
5.48156
5.47433
5.46589
5.45635
5.44583
5.43448
5.42247
5.40998
5.39723
5.38441
5.37173
5.35941
5.34769
5.33684
5.3271
5.31875
5.31205
5.30727
5.30465
5.30442
5.30682
5.312
5.32014
5.33134
5.34568
5.36317
5.38378
5.40743
5.43396
5.46317
5.4948
5.52853
5.56398
5.60076
5.63841
5.67639
5.71411
5.75093
5.78624
5.81944
5.84993
5.87718
5.90069
5.92003
5.93485
5.9448
5.94922
24.4092
24.403
24.3902
24.372
24.3488
24.321
24.2892
24.254
24.2159
24.1757
24.1341
24.0918
24.0494
24.0077
23.9673
23.9287
23.8922
23.8583
23.8274
23.7996
23.7752
23.7543
23.737
23.7232
23.7129
23.706
23.7024
23.7018
23.704
23.7087
23.7157
23.7246
23.7352
23.7471
23.7601
23.7739
23.7881
23.8026
23.8171
23.8313
23.8451
23.8583
23.8706
23.882
23.8921
23.901
23.9085
23.9146
23.9191
23.9221
23.9234
23.9232
23.9213
23.9179
23.9129
23.9064
23.8985
23.8892
23.8787
23.8671
23.8545
23.8412
23.8272
23.8129
23.7985
23.7841
23.77
23.7565
23.7438
23.7322
23.7221
23.7137
23.7074
23.7034
23.702
23.7034
23.7079
23.7156
23.7268
23.7415
23.7597
23.7815
23.8068
23.8353
23.867
23.9014
23.9384
23.9774
24.0181
24.0599
24.1022
24.1443
24.1855
24.2251
24.2624
24.2968
24.3276
24.3543
24.3762
24.3931
24.4045
24.4095
45.7901
45.7829
45.7679
45.7466
45.7196
45.6873
45.6503
45.6095
45.5654
45.519
45.4711
45.4225
45.3739
45.3263
45.2803
45.2365
45.1954
45.1574
45.1229
45.0923
45.0656
45.0431
45.0248
45.0106
45.0005
44.9942
44.9917
44.9926
44.9967
45.0035
45.0129
45.0244
45.0376
45.0523
45.068
45.0845
45.1014
45.1185
45.1354
45.1519
45.1679
45.183
45.1971
45.2101
45.2216
45.2317
45.2402
45.2471
45.2522
45.2555
45.2571
45.2568
45.2547
45.2508
45.2452
45.2378
45.2288
45.2183
45.2063
45.1931
45.1786
45.1633
45.1472
45.1305
45.1136
45.0966
45.0799
45.0636
45.0482
45.0339
45.0212
45.0103
45.0017
44.9956
44.9924
44.9925
44.996
45.0032
45.0144
45.0297
45.049
45.0726
45.1002
45.1318
45.1671
45.2058
45.2475
45.2918
45.3381
45.3859
45.4344
45.4828
45.5303
45.5761
45.6193
45.6591
45.6949
45.7259
45.7516
45.7713
45.7847
45.7905
70.0055
69.9972
69.98
69.9556
69.9245
69.8875
69.8453
69.7987
69.7484
69.6956
69.6411
69.5859
69.5309
69.4771
69.4252
69.3759
69.3298
69.2875
69.2493
69.2155
69.1864
69.1621
69.1427
69.128
69.1179
69.1123
69.1109
69.1134
69.1194
69.1285
69.1403
69.1545
69.1706
69.1882
69.2068
69.2262
69.246
69.2658
69.2853
69.3043
69.3226
69.3398
69.3558
69.3705
69.3835
69.3949
69.4045
69.4122
69.4179
69.4216
69.4234
69.423
69.4207
69.4163
69.41
69.4017
69.3916
69.3797
69.3662
69.3512
69.3348
69.3173
69.2988
69.2797
69.2601
69.2404
69.2208
69.2016
69.1833
69.1661
69.1506
69.1371
69.1261
69.1178
69.1128
69.1114
69.114
69.1207
69.132
69.1479
69.1686
69.1941
69.2243
69.2591
69.2983
69.3415
69.3883
69.4382
69.4905
69.5445
69.5995
69.6544
69.7084
69.7605
69.8098
69.8554
69.8963
69.9318
69.9612
69.984
69.9994
70.006
96.9756
96.9663
96.9468
96.9192
96.8843
96.8426
96.7951
96.7427
96.6864
96.6272
96.5661
96.5043
96.4429
96.3828
96.3249
96.2701
96.219
96.1722
96.1301
96.0932
96.0616
96.0354
96.0148
95.9995
95.9895
95.9845
95.9842
95.9882
95.9961
96.0075
96.0219
96.0388
96.0577
96.0783
96.0999
96.1223
96.145
96.1676
96.1898
96.2113
96.2319
96.2513
96.2693
96.2857
96.3003
96.3129
96.3236
96.3322
96.3385
96.3427
96.3446
96.3443
96.3417
96.3368
96.3298
96.3206
96.3093
96.296
96.2809
96.264
96.2456
96.2259
96.2051
96.1834
96.1611
96.1385
96.116
96.0939
96.0726
96.0525
96.0342
96.018
96.0045
95.9941
95.9873
95.9845
95.9861
95.9924
96.0038
96.0204
96.0424
96.0699
96.1029
96.1411
96.1842
96.232
96.2839
96.3394
96.3977
96.4581
96.5195
96.581
96.6415
96.6999
96.7553
96.8065
96.8525
96.8925
96.9257
96.9513
96.9688
96.9762
126.616
126.605
126.584
126.553
126.514
126.468
126.416
126.358
126.296
126.23
126.163
126.095
126.028
125.961
125.898
125.838
125.782
125.731
125.685
125.645
125.611
125.583
125.561
125.545
125.535
125.53
125.531
125.537
125.546
125.56
125.577
125.596
125.618
125.641
125.666
125.691
125.717
125.742
125.767
125.791
125.814
125.835
125.855
125.873
125.89
125.904
125.915
125.925
125.932
125.936
125.938
125.938
125.935
125.93
125.922
125.912
125.899
125.885
125.868
125.85
125.829
125.807
125.784
125.76
125.735
125.71
125.684
125.659
125.635
125.612
125.591
125.572
125.556
125.544
125.535
125.531
125.532
125.538
125.549
125.567
125.59
125.62
125.655
125.697
125.744
125.796
125.853
125.914
125.978
126.044
126.112
126.18
126.246
126.311
126.372
126.428
126.479
126.524
126.56
126.589
126.608
126.616
158.838
158.827
158.804
158.77
158.728
158.678
158.621
158.558
158.491
158.42
158.347
158.273
158.199
158.128
158.059
157.994
157.933
157.878
157.829
157.786
157.749
157.719
157.696
157.68
157.67
157.666
157.668
157.675
157.686
157.702
157.721
157.743
157.767
157.793
157.821
157.849
157.877
157.905
157.932
157.959
157.984
158.007
158.029
158.049
158.066
158.081
158.094
158.104
158.112
158.117
158.119
158.119
158.116
158.11
158.101
158.09
158.077
158.061
158.043
158.023
158
157.976
157.951
157.925
157.897
157.869
157.841
157.813
157.786
157.761
157.737
157.716
157.698
157.683
157.673
157.668
157.667
157.673
157.685
157.703
157.728
157.759
157.797
157.841
157.892
157.949
158.01
158.076
158.146
158.218
158.291
158.364
158.437
158.507
158.573
158.635
158.69
158.738
158.778
158.809
158.83
158.839
193.555
193.543
193.518
193.482
193.437
193.384
193.322
193.255
193.183
193.107
193.029
192.95
192.872
192.795
192.721
192.652
192.587
192.528
192.476
192.43
192.392
192.361
192.337
192.32
192.31
192.306
192.309
192.317
192.33
192.347
192.369
192.393
192.42
192.448
192.478
192.509
192.539
192.57
192.599
192.628
192.655
192.68
192.703
192.725
192.743
192.76
192.773
192.784
192.792
192.798
192.8
192.8
192.796
192.79
192.781
192.769
192.755
192.738
192.718
192.697
192.673
192.647
192.62
192.591
192.561
192.531
192.5
192.47
192.44
192.412
192.386
192.363
192.343
192.327
192.315
192.308
192.307
192.313
192.325
192.343
192.369
192.402
192.442
192.49
192.544
192.604
192.669
192.74
192.814
192.891
192.97
193.048
193.126
193.2
193.271
193.337
193.396
193.448
193.491
193.524
193.547
193.556
230.678
230.666
230.639
230.601
230.554
230.497
230.433
230.362
230.286
230.206
230.123
230.04
229.958
229.877
229.799
229.726
229.658
229.596
229.541
229.493
229.453
229.42
229.395
229.378
229.368
229.365
229.368
229.378
229.392
229.411
229.434
229.461
229.49
229.52
229.552
229.585
229.618
229.65
229.682
229.712
229.741
229.768
229.792
229.815
229.835
229.852
229.866
229.878
229.886
229.892
229.894
229.894
229.89
229.884
229.875
229.862
229.847
229.829
229.808
229.785
229.76
229.733
229.703
229.673
229.641
229.609
229.576
229.543
229.512
229.482
229.454
229.428
229.406
229.389
229.376
229.368
229.366
229.371
229.383
229.402
229.429
229.464
229.506
229.556
229.612
229.675
229.745
229.819
229.897
229.978
230.061
230.144
230.225
230.304
230.379
230.448
230.511
230.565
230.61
230.646
230.67
230.679
270.122
270.109
270.081
270.042
269.992
269.933
269.866
269.793
269.714
269.63
269.545
269.459
269.373
269.289
269.208
269.132
269.061
268.997
268.94
268.89
268.849
268.815
268.79
268.772
268.762
268.759
268.763
268.774
268.789
268.81
268.834
268.862
268.893
268.926
268.959
268.994
269.028
269.063
269.096
269.128
269.158
269.186
269.212
269.235
269.256
269.274
269.289
269.301
269.309
269.315
269.318
269.317
269.314
269.307
269.297
269.284
269.268
269.25
269.228
269.204
269.178
269.149
269.118
269.086
269.053
269.019
268.984
268.95
268.917
268.885
268.855
268.828
268.804
268.785
268.771
268.763
268.761
268.765
268.777
268.797
268.824
268.86
268.903
268.955
269.014
269.079
269.151
269.228
269.31
269.394
269.48
269.566
269.651
269.733
269.811
269.883
269.948
270.004
270.051
270.088
270.113
270.123
311.804
311.79
311.762
311.721
311.671
311.61
311.542
311.466
311.385
311.3
311.212
311.124
311.036
310.95
310.867
310.789
310.716
310.651
310.592
310.541
310.499
310.465
310.439
310.421
310.411
310.409
310.414
310.425
310.441
310.463
310.489
310.518
310.55
310.584
310.619
310.655
310.691
310.726
310.761
310.793
310.825
310.854
310.88
310.904
310.926
310.944
310.959
310.972
310.981
310.987
310.989
310.989
310.985
310.978
310.968
310.955
310.939
310.919
310.897
310.872
310.845
310.815
310.784
310.751
310.716
310.681
310.645
310.609
310.574
310.541
310.51
310.482
310.457
310.437
310.422
310.413
310.41
310.414
310.426
310.446
310.474
310.51
310.555
310.607
310.668
310.735
310.809
310.888
310.971
311.058
311.146
311.234
311.321
311.405
311.485
311.559
311.625
311.683
311.732
311.769
311.795
311.805
355.648
355.634
355.605
355.564
355.513
355.452
355.383
355.306
355.224
355.139
355.05
354.961
354.872
354.784
354.701
354.622
354.548
354.482
354.423
354.371
354.328
354.294
354.268
354.251
354.241
354.239
354.244
354.256
354.273
354.296
354.322
354.352
354.385
354.42
354.456
354.493
354.53
354.566
354.601
354.635
354.666
354.696
354.723
354.747
354.769
354.788
354.803
354.816
354.825
354.831
354.834
354.833
354.829
354.822
354.812
354.799
354.782
354.763
354.74
354.715
354.687
354.657
354.625
354.591
354.556
354.519
354.483
354.446
354.41
354.376
354.344
354.315
354.29
354.269
354.253
354.243
354.24
354.244
354.256
354.275
354.304
354.34
354.385
354.438
354.499
354.567
354.642
354.722
354.806
354.894
354.983
355.072
355.16
355.245
355.325
355.4
355.467
355.526
355.575
355.613
355.639
355.649
401.585
401.571
401.542
401.502
401.45
401.39
401.321
401.244
401.163
401.077
400.989
400.9
400.811
400.724
400.641
400.562
400.489
400.423
400.364
400.313
400.27
400.236
400.21
400.193
400.184
400.182
400.188
400.2
400.218
400.24
400.268
400.298
400.331
400.367
400.403
400.44
400.477
400.514
400.549
400.583
400.615
400.644
400.671
400.696
400.718
400.736
400.752
400.764
400.773
400.779
400.782
400.782
400.778
400.771
400.761
400.747
400.731
400.711
400.689
400.663
400.636
400.605
400.573
400.539
400.503
400.467
400.43
400.393
400.357
400.322
400.29
400.26
400.235
400.213
400.197
400.187
400.183
400.187
400.198
400.217
400.245
400.281
400.326
400.379
400.44
400.508
400.582
400.662
400.746
400.834
400.922
401.011
401.099
401.183
401.263
401.338
401.405
401.463
401.512
401.55
401.576
401.586
449.554
449.541
449.512
449.472
449.422
449.363
449.295
449.22
449.14
449.056
448.97
448.882
448.795
448.71
448.628
448.55
448.478
448.413
448.355
448.305
448.263
448.23
448.205
448.189
448.18
448.179
448.185
448.197
448.215
448.238
448.265
448.296
448.329
448.364
448.4
448.437
448.474
448.51
448.545
448.579
448.61
448.639
448.666
448.69
448.712
448.73
448.745
448.758
448.767
448.773
448.775
448.775
448.771
448.764
448.754
448.741
448.725
448.705
448.683
448.658
448.631
448.601
448.569
448.535
448.5
448.464
448.427
448.39
448.354
448.32
448.287
448.258
448.232
448.211
448.194
448.184
448.18
448.183
448.193
448.212
448.239
448.275
448.319
448.371
448.43
448.497
448.57
448.649
448.731
448.817
448.904
448.991
449.077
449.16
449.239
449.312
449.378
449.435
449.483
449.52
449.546
449.556
499.506
499.493
499.466
499.427
499.379
499.321
499.256
499.184
499.106
499.025
498.942
498.857
498.773
498.691
498.612
498.537
498.467
498.404
498.348
498.3
498.26
498.228
498.204
498.188
498.18
498.18
498.186
498.198
498.216
498.239
498.266
498.296
498.328
498.363
498.398
498.435
498.471
498.506
498.54
498.573
498.603
498.632
498.658
498.681
498.702
498.719
498.734
498.746
498.755
498.761
498.763
498.763
498.759
498.752
498.743
498.73
498.714
498.696
498.674
498.65
498.623
498.594
498.563
498.53
498.496
498.46
498.424
498.388
498.353
498.319
498.288
498.258
498.233
498.212
498.195
498.185
498.18
498.183
498.193
498.211
498.237
498.271
498.313
498.363
498.421
498.485
498.556
498.632
498.712
498.795
498.879
498.963
499.046
499.126
499.202
499.272
499.336
499.391
499.438
499.474
499.499
499.508
551.402
551.39
551.364
551.328
551.281
551.227
551.165
551.097
551.023
550.947
550.867
550.787
550.708
550.63
550.554
550.483
550.417
550.357
550.304
550.259
550.221
550.191
550.168
550.154
550.147
550.147
550.153
550.165
550.183
550.205
550.231
550.26
550.292
550.325
550.359
550.394
550.429
550.462
550.495
550.526
550.556
550.583
550.608
550.63
550.649
550.666
550.68
550.692
550.7
550.705
550.708
550.707
550.704
550.698
550.688
550.676
550.661
550.644
550.623
550.6
550.575
550.547
550.517
550.486
550.453
550.419
550.384
550.35
550.316
550.283
550.252
550.224
550.199
550.178
550.162
550.152
550.147
550.149
550.158
550.175
550.199
550.231
550.271
550.318
550.373
550.434
550.502
550.574
550.65
550.728
550.808
550.887
550.966
551.042
551.114
551.181
551.241
551.294
551.338
551.372
551.396
551.405
605.217
605.206
605.182
605.148
605.105
605.054
604.997
604.933
604.865
604.794
604.721
604.646
604.572
604.5
604.43
604.364
604.303
604.247
604.198
604.156
604.121
604.093
604.073
604.06
604.054
604.054
604.06
604.073
604.089
604.111
604.135
604.163
604.193
604.225
604.257
604.29
604.322
604.354
604.385
604.414
604.442
604.467
604.49
604.511
604.529
604.545
604.558
604.568
604.576
604.581
604.583
604.583
604.58
604.574
604.565
604.554
604.54
604.524
604.505
604.483
604.46
604.434
604.406
604.376
604.345
604.313
604.281
604.248
604.216
604.185
604.156
604.129
604.105
604.085
604.07
604.059
604.054
604.056
604.064
604.079
604.101
604.13
604.167
604.211
604.262
604.319
604.381
604.448
604.518
604.591
604.665
604.739
604.812
604.883
604.949
605.011
605.067
605.116
605.157
605.189
605.211
605.219
660.939
660.928
660.906
660.875
660.837
660.791
660.739
660.681
660.62
660.556
660.489
660.422
660.355
660.29
660.227
660.167
660.111
660.061
660.017
659.979
659.948
659.923
659.905
659.894
659.889
659.89
659.896
659.908
659.924
659.944
659.967
659.993
660.021
660.05
660.08
660.11
660.14
660.169
660.198
660.224
660.249
660.272
660.293
660.312
660.329
660.343
660.355
660.364
660.371
660.375
660.377
660.377
660.374
660.369
660.361
660.351
660.339
660.324
660.307
660.287
660.266
660.242
660.217
660.189
660.161
660.132
660.102
660.071
660.042
660.013
659.986
659.961
659.939
659.92
659.905
659.895
659.89
659.891
659.897
659.91
659.93
659.956
659.989
660.029
660.075
660.126
660.182
660.243
660.307
660.373
660.439
660.506
660.572
660.636
660.696
660.752
660.803
660.847
660.884
660.913
660.933
660.941
718.569
718.56
718.541
718.514
718.48
718.439
718.394
718.344
718.29
718.234
718.176
718.117
718.059
718.002
717.946
717.894
717.846
717.802
717.764
717.731
717.704
717.683
717.667
717.658
717.655
717.656
717.663
717.674
717.689
717.707
717.728
717.752
717.777
717.803
717.83
717.857
717.884
717.91
717.935
717.959
717.981
718.001
718.019
718.036
718.05
718.063
718.073
718.081
718.087
718.091
718.093
718.092
718.09
718.085
718.079
718.07
718.059
718.046
718.031
718.014
717.995
717.974
717.952
717.928
717.902
717.876
717.849
717.822
717.796
717.77
717.745
717.723
717.702
717.685
717.671
717.662
717.656
717.656
717.661
717.672
717.688
717.711
717.74
717.774
717.814
717.858
717.908
717.961
718.016
718.074
718.132
718.191
718.248
718.304
718.357
718.406
718.45
718.489
718.522
718.547
718.565
718.571
778.126
778.119
778.102
778.08
778.051
778.018
777.979
777.938
777.893
777.846
777.798
777.749
777.7
777.652
777.606
777.563
777.523
777.486
777.455
777.428
777.406
777.389
777.377
777.37
777.368
777.371
777.377
777.387
777.401
777.417
777.436
777.456
777.478
777.501
777.524
777.547
777.57
777.593
777.614
777.634
777.653
777.67
777.685
777.699
777.711
777.721
777.73
777.737
777.742
777.745
777.746
777.746
777.744
777.74
777.735
777.727
777.718
777.708
777.695
777.681
777.665
777.647
777.628
777.608
777.586
777.564
777.541
777.518
777.495
777.472
777.451
777.431
777.413
777.397
777.385
777.376
777.37
777.369
777.372
777.38
777.394
777.412
777.435
777.463
777.496
777.533
777.574
777.618
777.665
777.713
777.761
777.81
777.858
777.904
777.949
777.99
778.027
778.059
778.086
778.108
778.123
778.128
839.643
839.637
839.624
839.607
839.584
839.558
839.528
839.496
839.461
839.425
839.387
839.349
839.312
839.275
839.239
839.206
839.175
839.147
839.123
839.102
839.086
839.074
839.066
839.062
839.061
839.065
839.071
839.08
839.092
839.106
839.122
839.139
839.157
839.176
839.195
839.214
839.233
839.25
839.268
839.284
839.298
839.312
839.324
839.334
839.344
839.351
839.358
839.363
839.367
839.369
839.371
839.37
839.369
839.366
839.362
839.356
839.349
839.341
839.331
839.32
839.308
839.294
839.279
839.263
839.245
839.227
839.209
839.19
839.171
839.152
839.135
839.118
839.103
839.089
839.078
839.07
839.064
839.062
839.063
839.068
839.078
839.091
839.108
839.129
839.154
839.183
839.214
839.249
839.284
839.322
839.359
839.397
839.434
839.47
839.504
839.536
839.565
839.591
839.612
839.629
839.641
839.645
903.168
903.164
903.155
903.143
903.128
903.11
903.089
903.067
903.043
903.018
902.993
902.967
902.942
902.917
902.893
902.87
902.85
902.831
902.816
902.803
902.793
902.786
902.782
902.781
902.782
902.786
902.793
902.801
902.811
902.822
902.835
902.848
902.862
902.876
902.89
902.904
902.918
902.931
902.943
902.954
902.965
902.974
902.982
902.989
902.996
903.001
903.005
903.009
903.011
903.013
903.013
903.013
903.012
903.01
903.008
903.004
902.999
902.994
902.987
902.98
902.971
902.962
902.951
902.939
902.927
902.914
902.9
902.886
902.872
902.858
902.844
902.831
902.819
902.808
902.799
902.791
902.786
902.782
902.782
902.783
902.788
902.796
902.806
902.82
902.836
902.855
902.876
902.899
902.923
902.948
902.974
902.999
903.025
903.049
903.073
903.095
903.115
903.132
903.147
903.159
903.168
903.17
968.766
968.764
968.76
968.753
968.745
968.736
968.726
968.714
968.703
968.69
968.678
968.666
968.653
968.642
968.63
968.62
968.611
968.603
968.596
968.592
968.589
968.588
968.588
968.59
968.594
968.599
968.605
968.612
968.619
968.628
968.636
968.645
968.655
968.664
968.672
968.681
968.689
968.697
968.703
968.71
968.715
968.72
968.724
968.727
968.73
968.733
968.735
968.736
968.737
968.738
968.738
968.738
968.738
968.737
968.736
968.734
968.732
968.729
968.726
968.723
968.718
968.714
968.708
968.701
968.694
968.687
968.679
968.67
968.661
968.652
968.643
968.634
968.626
968.617
968.61
968.603
968.598
968.593
968.59
968.588
968.588
968.59
968.593
968.598
968.605
968.613
968.623
968.633
968.645
968.657
968.669
968.681
968.694
968.706
968.717
968.728
968.739
968.748
968.756
968.762
968.767
968.768
1036.52
1036.52
1036.52
1036.52
1036.52
1036.52
1036.52
1036.52
1036.52
1036.52
1036.52
1036.52
1036.53
1036.53
1036.53
1036.53
1036.54
1036.54
1036.54
1036.55
1036.55
1036.56
1036.56
1036.57
1036.57
1036.58
1036.59
1036.59
1036.6
1036.6
1036.61
1036.61
1036.61
1036.62
1036.62
1036.62
1036.62
1036.63
1036.63
1036.63
1036.63
1036.63
1036.63
1036.63
1036.63
1036.63
1036.62
1036.62
1036.62
1036.62
1036.62
1036.62
1036.62
1036.62
1036.62
1036.62
1036.63
1036.63
1036.63
1036.63
1036.63
1036.63
1036.63
1036.63
1036.63
1036.62
1036.62
1036.62
1036.62
1036.61
1036.61
1036.6
1036.6
1036.6
1036.59
1036.58
1036.58
1036.57
1036.57
1036.56
1036.56
1036.55
1036.55
1036.54
1036.54
1036.54
1036.53
1036.53
1036.53
1036.52
1036.52
1036.52
1036.52
1036.52
1036.52
1036.52
1036.52
1036.52
1036.52
1036.52
1036.52
1036.52
1106.51
1106.51
1106.52
1106.52
1106.53
1106.54
1106.55
1106.57
1106.58
1106.6
1106.61
1106.63
1106.65
1106.67
1106.68
1106.7
1106.72
1106.73
1106.75
1106.76
1106.77
1106.79
1106.8
1106.81
1106.81
1106.82
1106.83
1106.83
1106.83
1106.83
1106.83
1106.83
1106.83
1106.83
1106.82
1106.82
1106.81
1106.81
1106.8
1106.8
1106.79
1106.79
1106.78
1106.78
1106.77
1106.77
1106.77
1106.76
1106.76
1106.76
1106.76
1106.76
1106.76
1106.76
1106.76
1106.77
1106.77
1106.77
1106.78
1106.78
1106.79
1106.79
1106.8
1106.81
1106.81
1106.82
1106.82
1106.82
1106.83
1106.83
1106.83
1106.83
1106.83
1106.83
1106.83
1106.82
1106.82
1106.81
1106.8
1106.79
1106.78
1106.77
1106.76
1106.74
1106.73
1106.71
1106.7
1106.68
1106.66
1106.64
1106.63
1106.61
1106.59
1106.58
1106.56
1106.55
1106.54
1106.53
1106.52
1106.52
1106.51
1106.51
)
;

boundaryField
{
    top
    {
        type            fixedFluxPressure;
        gradient        nonuniform List<scalar> 
102
(
2170.05
2170.12
2170.26
2170.46
2170.73
2171.04
2171.39
2171.78
2172.21
2172.65
2173.12
2173.59
2174.07
2174.54
2175.02
2175.47
2175.9
2176.29
2176.64
2176.95
2177.21
2177.42
2177.58
2177.7
2177.77
2177.79
2177.77
2177.72
2177.62
2177.5
2177.35
2177.18
2177
2176.8
2176.59
2176.37
2176.16
2175.95
2175.74
2175.55
2175.37
2175.21
2175.06
2174.92
2174.8
2174.7
2174.62
2174.55
2174.5
2174.47
2174.45
2174.45
2174.47
2174.51
2174.57
2174.64
2174.73
2174.84
2174.96
2175.1
2175.25
2175.42
2175.61
2175.8
2176.01
2176.22
2176.43
2176.65
2176.85
2177.05
2177.23
2177.39
2177.54
2177.65
2177.73
2177.78
2177.78
2177.75
2177.67
2177.54
2177.36
2177.14
2176.86
2176.55
2176.18
2175.78
2175.35
2174.89
2174.42
2173.94
2173.47
2173
2172.54
2172.1
2171.68
2171.29
2170.95
2170.65
2170.39
2170.19
2170.05
2170
)
;
        value           nonuniform List<scalar> 
102
(
1142.67
1142.68
1142.68
1142.69
1142.7
1142.72
1142.74
1142.76
1142.78
1142.8
1142.83
1142.85
1142.88
1142.9
1142.93
1142.95
1142.98
1143
1143.02
1143.04
1143.05
1143.07
1143.08
1143.09
1143.1
1143.11
1143.12
1143.12
1143.12
1143.12
1143.12
1143.11
1143.11
1143.1
1143.09
1143.09
1143.08
1143.07
1143.06
1143.05
1143.04
1143.04
1143.03
1143.02
1143.01
1143.01
1143
1143
1143
1142.99
1142.99
1142.99
1143
1143
1143
1143
1143.01
1143.02
1143.02
1143.03
1143.04
1143.05
1143.05
1143.06
1143.07
1143.08
1143.09
1143.1
1143.1
1143.11
1143.11
1143.12
1143.12
1143.12
1143.12
1143.11
1143.11
1143.1
1143.09
1143.08
1143.07
1143.05
1143.03
1143.01
1142.99
1142.97
1142.95
1142.92
1142.9
1142.87
1142.84
1142.82
1142.8
1142.77
1142.75
1142.73
1142.72
1142.7
1142.69
1142.68
1142.67
1142.67
)
;
    }
    bottom
    {
        type            fixedFluxPressure;
        gradient        nonuniform List<scalar> 
102
(
0
0
0
0
0
0
0
0
0
0
0
0
0
0
0
0
0
0
0
0
0
0
0
0
0
0
0
0
0
0
0
0
0
0
0
0
0
0
0
0
0
0
0
0
0
0
0
0
0
0
0
0
0
0
0
0
0
0
0
0
0
0
0
0
0
0
0
0
0
0
0
0
0
0
0
0
0
0
0
0
0
0
0
0
0
0
0
0
0
0
0
0
0
0
0
0
0
0
0
0
0
-4.91344e-15
)
;
        value           nonuniform List<scalar> 
102
(
-40.7164
-40.722
-40.7326
-40.7479
-40.7676
-40.7914
-40.8187
-40.8491
-40.8819
-40.9166
-40.9526
-40.9893
-41.0261
-41.0624
-41.0977
-41.1315
-41.1635
-41.1933
-41.2205
-41.245
-41.2666
-41.2852
-41.3006
-41.3129
-41.3222
-41.3285
-41.3321
-41.3329
-41.3313
-41.3275
-41.3217
-41.3142
-41.3052
-41.295
-41.2839
-41.272
-41.2597
-41.2472
-41.2347
-41.2224
-41.2105
-41.1991
-41.1885
-41.1787
-41.1699
-41.1622
-41.1557
-41.1505
-41.1466
-41.144
-41.1428
-41.143
-41.1446
-41.1476
-41.1519
-41.1576
-41.1644
-41.1724
-41.1815
-41.1915
-41.2024
-41.2139
-41.2259
-41.2383
-41.2508
-41.2632
-41.2754
-41.287
-41.2979
-41.3077
-41.3163
-41.3233
-41.3286
-41.3318
-41.3327
-41.3311
-41.3269
-41.3198
-41.3097
-41.2965
-41.2803
-41.261
-41.2387
-41.2136
-41.1857
-41.1554
-41.123
-41.0888
-41.0534
-41.017
-40.9803
-40.9438
-40.9082
-40.8739
-40.8417
-40.8121
-40.7856
-40.7628
-40.7441
-40.7298
-40.7204
-40.7159
)
;
    }
    frontAndBack
    {
        type            empty;
    }
    left_cyc
    {
        type            cyclic;
    }
    right_cyc
    {
        type            cyclic;
    }
}


// ************************************************************************* //
