/*--------------------------------*- C++ -*----------------------------------*\
| =========                 |                                                 |
| \\      /  F ield         | OpenFOAM: The Open Source CFD Toolbox           |
|  \\    /   O peration     | Version:  2.3.0                                 |
|   \\  /    A nd           | Web:      www.OpenFOAM.org                      |
|    \\/     M anipulation  |                                                 |
\*---------------------------------------------------------------------------*/
FoamFile
{
    version     2.0;
    format      ascii;
    class       volScalarField;
    location    "1000";
    object      p_rgh;
}
// * * * * * * * * * * * * * * * * * * * * * * * * * * * * * * * * * * * * * //

dimensions      [0 2 -2 0 0 0 0];

internalField   nonuniform List<scalar> 
765
(
-82.9013
-1261.77
-1172.9
-1196.97
-1183.82
-1171.67
-1151.21
-1123.41
-1088.04
-1047.78
-1005.53
-963.684
-923.324
-884.003
-844.966
-805.904
-766.776
-727.769
-689.3
-652.031
-616.854
-584.848
-557.201
-535.106
-519.637
-511.64
-511.63
-519.608
-535.059
-557.139
-584.774
-616.773
-651.944
-689.209
-727.675
-766.682
-805.813
-844.879
-883.917
-923.237
-963.596
-1005.45
-1047.7
-1087.96
-1123.35
-1151.17
-1171.64
-1183.79
-1196.94
-1172.89
-1261.76
-1103.54
-1267.31
-1199.13
-1193.36
-1172.9
-1156.79
-1135.5
-1108.97
-1076.81
-1039.32
-998.601
-956.491
-914.5
-873.643
-834.006
-795.351
-757.586
-720.821
-685.356
-651.654
-620.319
-592.066
-567.702
-548.112
-534.228
-526.939
-526.929
-534.199
-548.069
-567.65
-592.007
-620.254
-651.581
-685.275
-720.734
-757.497
-795.263
-833.918
-873.553
-914.41
-956.404
-998.521
-1039.24
-1076.74
-1108.92
-1135.46
-1156.76
-1172.87
-1193.33
-1199.1
-1267.29
-1128.58
-1202.13
-1173.3
-1167.85
-1148.43
-1133.13
-1111.84
-1081.51
-1043.98
-1003.96
-963.143
-921.747
-880.27
-839.331
-799.185
-759.819
-721.255
-683.642
-647.274
-612.586
-580.158
-550.71
-525.108
-504.348
-489.502
-481.622
-481.611
-489.472
-504.302
-525.051
-550.644
-580.084
-612.505
-647.187
-683.552
-721.164
-759.728
-799.093
-839.238
-880.18
-921.661
-963.06
-1003.87
-1043.9
-1081.45
-1111.79
-1133.09
-1148.4
-1167.81
-1173.27
-1202.13
-1172.7
-1201.9
-1176.27
-1156.5
-1130.16
-1109.69
-1081.23
-1042.15
-1000.48
-960.133
-920.098
-879.878
-839.454
-799.039
-758.759
-718.658
-678.817
-639.411
-600.742
-563.268
-527.631
-494.694
-465.557
-441.543
-424.123
-414.758
-414.744
-424.086
-441.489
-465.491
-494.619
-527.549
-563.179
-600.649
-639.316
-678.723
-718.565
-758.666
-798.948
-839.368
-879.794
-920.013
-960.048
-1000.4
-1042.07
-1081.16
-1109.65
-1130.12
-1156.46
-1176.24
-1201.88
-1193.71
-1201.83
-1176.16
-1147.13
-1114.63
-1087.03
-1053.09
-1012.07
-970.57
-930.04
-890.005
-850.247
-810.692
-771.024
-731.142
-690.997
-650.603
-610.058
-569.573
-529.538
-490.589
-453.701
-420.257
-392.056
-371.199
-359.831
-359.814
-371.155
-391.992
-420.18
-453.616
-490.498
-529.443
-569.477
-609.962
-650.51
-690.905
-731.051
-770.937
-810.609
-850.166
-889.921
-929.959
-970.496
-1011.99
-1053.02
-1086.96
-1114.59
-1147.08
-1176.12
-1201.8
-1211.02
-1208.75
-1181.55
-1146.14
-1107.47
-1073.21
-1037.37
-996.515
-955.81
-916.391
-877.671
-839.247
-800.879
-762.336
-723.223
-683.292
-642.388
-600.435
-557.478
-513.778
-469.957
-427.164
-387.223
-352.676
-326.622
-312.26
-312.24
-326.567
-352.597
-387.131
-427.066
-469.856
-513.677
-557.379
-600.34
-642.296
-683.201
-723.134
-762.253
-800.798
-839.162
-877.583
-916.305
-955.718
-996.414
-1037.32
-1073.15
-1107.4
-1146.07
-1181.5
-1208.74
-1223.39
-1216.69
-1189.32
-1151.63
-1109.19
-1069.96
-1034.22
-996.613
-958.613
-921.746
-885.371
-848.93
-812.093
-774.654
-736.273
-696.382
-654.564
-610.49
-563.973
-515.108
-464.498
-413.526
-364.608
-321.298
-288.077
-269.624
-269.598
-288.007
-321.2
-364.495
-413.409
-464.382
-514.997
-563.869
-610.393
-654.471
-696.293
-736.19
-774.577
-812.019
-848.856
-885.303
-921.69
-958.555
-996.536
-1034.14
-1069.9
-1109.13
-1151.57
-1189.27
-1216.65
-1233.22
-1224.72
-1198.16
-1161.18
-1118.97
-1078.27
-1043.9
-1011.83
-977.949
-944.295
-910.654
-876.253
-841.097
-804.445
-766.273
-725.74
-682.148
-634.891
-583.522
-527.955
-468.77
-407.61
-347.558
-293.351
-251.158
-227.556
-227.524
-251.072
-293.23
-347.42
-407.47
-468.635
-527.829
-583.409
-634.789
-682.054
-725.652
-766.195
-804.376
-841.031
-876.186
-910.588
-944.225
-977.869
-1011.78
-1043.84
-1078.21
-1118.9
-1161.11
-1198.11
-1224.69
-1239.96
-1231.1
-1206.51
-1172.47
-1133.46
-1094.33
-1061.32
-1034.75
-1006.65
-976.538
-945.526
-913.323
-879.546
-843.465
-804.527
-762.282
-715.823
-664.313
-607.09
-543.907
-475.312
-403.149
-331.075
-264.943
-212.67
-183.061
-183.022
-212.566
-264.798
-330.911
-402.983
-475.155
-543.764
-606.965
-664.204
-715.727
-762.198
-804.454
-843.4
-879.482
-913.258
-945.472
-976.487
-1006.58
-1034.71
-1061.27
-1094.26
-1133.39
-1172.41
-1206.47
-1231.08
-1242.45
-1234.06
-1212.37
-1182.63
-1148.6
-1113.47
-1081.97
-1057.43
-1034.43
-1007.94
-978.786
-947.437
-913.729
-877.153
-836.707
-791.78
-741.521
-685.063
-621.68
-551.069
-473.762
-391.692
-308.833
-231.764
-169.792
-133.937
-133.89
-169.67
-231.596
-308.646
-391.503
-473.583
-550.911
-621.545
-684.95
-741.426
-791.702
-836.645
-877.101
-913.678
-947.385
-978.74
-1007.9
-1034.39
-1057.39
-1081.92
-1113.41
-1148.54
-1182.58
-1212.33
-1234.05
-1233.95
-1226.31
-1207.31
-1181.33
-1151.74
-1121.09
-1091.59
-1066.17
-1043.78
-1019.05
-990.257
-957.97
-922.448
-883.568
-840.758
-792.855
-738.767
-677.817
-609.398
-533.265
-449.942
-361.335
-271.426
-187.008
-118.128
-77.4538
-77.3997
-117.992
-186.824
-271.222
-361.131
-449.751
-533.097
-609.257
-677.698
-738.667
-792.771
-840.691
-883.51
-922.393
-957.922
-990.217
-1019
-1043.74
-1066.14
-1091.55
-1121.04
-1151.7
-1181.29
-1207.27
-1226.28
-1199.59
-1193.17
-1177.55
-1156.16
-1131.6
-1104.97
-1076.62
-1048.85
-1021.93
-992.654
-959.34
-922.296
-881.888
-838.238
-791.188
-740.493
-683.949
-620.798
-550.679
-473.429
-389.515
-300.644
-210.439
-125.265
-54.9612
-12.6942
-12.6364
-54.8203
-125.078
-210.233
-300.442
-389.327
-473.264
-550.536
-620.674
-683.842
-740.406
-791.119
-838.181
-881.837
-922.253
-959.302
-992.61
-1021.89
-1048.81
-1076.58
-1104.93
-1131.57
-1156.13
-1177.53
-1193.15
-1097.88
-1092.21
-1077.9
-1056.57
-1029.97
-999.157
-964.397
-927.449
-889.994
-851.414
-810.817
-768.112
-723.39
-676.708
-627.986
-577.177
-525.032
-467.978
-405.667
-337.765
-264.549
-187.322
-108.887
-34.3774
27.8625
65.9587
66.0127
27.9902
-34.2113
-108.709
-187.149
-264.388
-337.62
-405.541
-467.87
-524.949
-577.111
-627.935
-676.658
-723.334
-768.058
-810.769
-851.364
-889.946
-927.401
-964.348
-999.113
-1029.93
-1056.54
-1077.88
-1092.21
-886.731
-879.95
-862.662
-836.743
-802.484
-761.162
-716.263
-670.749
-625.532
-580.119
-534.33
-488.428
-442.689
-397.252
-352.068
-307.032
-262.404
-219.928
-177.326
-130.705
-80.6048
-27.8285
26.0565
77.8403
121.816
149.288
149.327
121.907
77.9564
26.1795
-27.7074
-80.4913
-130.607
-177.248
-219.862
-262.339
-306.968
-352.008
-397.195
-442.637
-488.381
-534.28
-580.059
-625.473
-670.69
-716.203
-761.107
-802.437
-836.706
-862.635
-879.945
92.1511
98.7709
115.528
139.524
167.269
194.123
217.742
237.601
253.796
266.943
277.462
285.543
291.339
295.03
296.861
297.099
295.947
293.314
289.627
283.436
277.471
273.182
271.44
272.497
275.698
279.118
279.124
275.707
272.504
271.444
273.181
277.462
283.421
289.616
293.31
295.949
297.095
296.847
295.019
291.34
285.547
277.466
266.955
253.814
237.623
217.77
194.155
167.304
139.557
115.555
98.8077
)
;

boundaryField
{
    top
    {
        type            zeroGradient;
    }
    bottom
    {
        type            fixedFluxPressure;
        gradient        uniform 0;
        value           nonuniform List<scalar> 
51
(
-82.9013
-1261.77
-1172.9
-1196.97
-1183.82
-1171.67
-1151.21
-1123.41
-1088.04
-1047.78
-1005.53
-963.684
-923.324
-884.003
-844.966
-805.904
-766.776
-727.769
-689.3
-652.031
-616.854
-584.848
-557.201
-535.106
-519.637
-511.64
-511.63
-519.608
-535.059
-557.139
-584.774
-616.773
-651.944
-689.209
-727.675
-766.682
-805.813
-844.879
-883.917
-923.237
-963.596
-1005.45
-1047.7
-1087.96
-1123.35
-1151.17
-1171.64
-1183.79
-1196.94
-1172.89
-1261.76
)
;
    }
    frontAndBack
    {
        type            empty;
    }
    left_cyc
    {
        type            cyclic;
    }
    right_cyc
    {
        type            cyclic;
    }
}


// ************************************************************************* //
