/*--------------------------------*- C++ -*----------------------------------*\
| =========                 |                                                 |
| \\      /  F ield         | OpenFOAM: The Open Source CFD Toolbox           |
|  \\    /   O peration     | Version:  2.3.0                                 |
|   \\  /    A nd           | Web:      www.OpenFOAM.org                      |
|    \\/     M anipulation  |                                                 |
\*---------------------------------------------------------------------------*/
FoamFile
{
    version     2.0;
    format      ascii;
    class       surfaceScalarField;
    location    "1000";
    object      phi;
}
// * * * * * * * * * * * * * * * * * * * * * * * * * * * * * * * * * * * * * //

dimensions      [0 3 -1 0 0 0 0];

internalField   nonuniform List<scalar> 
5988
(
4.8061e-11
-4.31656e-11
9.03438e-11
-4.22821e-11
1.30883e-10
-4.05389e-11
1.68922e-10
-3.80391e-11
2.03794e-10
-3.48711e-11
2.34922e-10
-3.11267e-11
2.61827e-10
-2.69048e-11
2.8414e-10
-2.23128e-11
3.01604e-10
-1.74633e-11
3.14078e-10
-1.2473e-11
3.21538e-10
-7.45919e-12
3.24075e-10
-2.53721e-12
3.21894e-10
2.18234e-12
3.15288e-10
6.60616e-12
3.04618e-10
1.06701e-11
2.90297e-10
1.43223e-11
2.72776e-10
1.75213e-11
2.52541e-10
2.02361e-11
2.30094e-10
2.24472e-11
2.05949e-10
2.41467e-11
1.80613e-10
2.53375e-11
1.54581e-10
2.6033e-11
1.28325e-10
2.62562e-11
1.02288e-10
2.60379e-11
7.68738e-11
2.54155e-11
5.24428e-11
2.44316e-11
2.93105e-11
2.31325e-11
7.74375e-12
2.15669e-11
-1.204e-11
1.97838e-11
-2.98722e-11
1.78322e-11
-4.56318e-11
1.57593e-11
-5.92422e-11
1.36101e-11
-7.06683e-11
1.14261e-11
-7.99127e-11
9.24453e-12
-8.70107e-11
7.0982e-12
-9.20254e-11
5.01485e-12
-9.50418e-11
3.01679e-12
-9.61617e-11
1.12044e-12
-9.54977e-11
-6.63544e-13
-9.31699e-11
-2.32746e-12
-8.931e-11
-3.8595e-12
-8.40588e-11
-5.25059e-12
-7.75626e-11
-6.49542e-12
-6.99699e-11
-7.59179e-12
-6.14293e-11
-8.5398e-12
-5.20874e-11
-9.3411e-12
-4.20884e-11
-9.9983e-12
-3.15731e-11
-1.05145e-11
-2.06798e-11
-1.08928e-11
-9.54362e-12
-1.11359e-11
1.70189e-12
-1.12456e-11
1.29245e-11
-1.12229e-11
2.39917e-11
-1.10677e-11
3.47703e-11
-1.07789e-11
4.51248e-11
-1.03547e-11
5.49171e-11
-9.79251e-12
6.40064e-11
-9.08942e-12
7.22491e-11
-8.24262e-12
7.94992e-11
-7.24986e-12
8.56096e-11
-6.11004e-12
9.04341e-11
-4.8239e-12
9.38296e-11
-3.39471e-12
9.56592e-11
-1.82894e-12
9.57962e-11
-1.36355e-13
9.41247e-11
1.67211e-12
9.05365e-11
3.58882e-12
8.49355e-11
5.60154e-12
7.72438e-11
7.6923e-12
6.74071e-11
9.83749e-12
5.53996e-11
1.20083e-11
4.12295e-11
1.41709e-11
2.49428e-11
1.62873e-11
6.62782e-12
1.83155e-11
-1.35823e-11
2.02103e-11
-3.5507e-11
2.19245e-11
-5.89171e-11
2.34099e-11
-8.3535e-11
2.46179e-11
-1.09036e-10
2.55011e-11
-1.3505e-10
2.60146e-11
-1.61166e-10
2.61174e-11
-1.8694e-10
2.5774e-11
-2.11896e-10
2.4956e-11
-2.35539e-10
2.3643e-11
-2.57363e-10
2.18244e-11
-2.76863e-10
1.94997e-11
-2.93543e-10
1.66798e-11
-3.06929e-10
1.33866e-11
-3.16582e-10
9.65343e-12
-3.22105e-10
5.5239e-12
-3.23156e-10
1.05165e-12
-3.19459e-10
-3.69663e-12
-3.10839e-10
-8.62112e-12
-2.97229e-10
-1.36105e-11
-2.7868e-10
-1.85497e-11
-2.55357e-10
-2.33225e-11
-2.2754e-10
-2.78147e-11
-1.95623e-10
-3.19158e-11
-1.60102e-10
-3.55208e-11
-1.21572e-10
-3.8531e-11
-8.07126e-11
-4.08579e-11
-3.82851e-11
-4.24268e-11
-4.31816e-11
1.00775e-10
-1.3352e-10
1.8929e-10
-1.30797e-10
2.74256e-10
-1.25506e-10
3.54113e-10
-1.17896e-10
4.27467e-10
-1.08226e-10
4.93113e-10
-9.67725e-11
5.50049e-10
-8.38417e-11
5.97499e-10
-6.97626e-11
6.34917e-10
-5.48819e-11
6.61999e-10
-3.95549e-11
6.78676e-10
-2.41368e-11
6.85112e-10
-8.9742e-12
6.81688e-10
5.60567e-12
6.68974e-10
1.93197e-11
6.47689e-10
3.19549e-11
6.18671e-10
4.33395e-11
5.82855e-10
5.33376e-11
5.41242e-10
6.18493e-11
4.94879e-10
6.88112e-11
4.4483e-10
7.41958e-11
3.92158e-10
7.80102e-11
3.37897e-10
8.02939e-11
2.83038e-10
8.1115e-11
2.28509e-10
8.05667e-11
1.75161e-10
7.87629e-11
1.23759e-10
7.58333e-11
7.49718e-11
7.19193e-11
2.93683e-11
6.71694e-11
-1.25842e-11
6.17351e-11
-5.05198e-11
5.57665e-11
-8.41711e-11
4.94095e-11
-1.13364e-10
4.28021e-11
-1.38011e-10
3.60726e-11
-1.58103e-10
2.93367e-11
-1.73702e-10
2.26965e-11
-1.84926e-10
1.62387e-11
-1.91944e-10
1.00343e-11
-1.94962e-10
4.1381e-12
-1.94215e-10
-1.41054e-12
-1.8996e-10
-6.58266e-12
-1.82474e-10
-1.13457e-11
-1.7205e-10
-1.56742e-11
-1.58992e-10
-1.95525e-11
-1.43611e-10
-2.2973e-11
-1.26215e-10
-2.59347e-11
-1.07115e-10
-2.84415e-11
-8.66127e-11
-3.05001e-11
-6.50082e-11
-3.21191e-11
-4.2595e-11
-3.33067e-11
-1.96617e-11
-3.40703e-11
3.50634e-12
-3.44151e-11
2.66257e-11
-3.43439e-11
4.94131e-11
-3.38566e-11
7.15832e-11
-3.29504e-11
9.2847e-11
-3.16199e-11
1.12911e-10
-2.98581e-11
1.31478e-10
-2.76571e-11
1.48244e-10
-2.50094e-11
1.62904e-10
-2.19096e-11
1.7515e-10
-1.83556e-11
1.84676e-10
-1.43505e-11
1.91187e-10
-9.90465e-12
1.94395e-10
-5.03687e-12
1.94033e-10
2.25377e-13
1.89854e-10
5.85081e-12
1.81635e-10
1.18087e-11
1.6918e-10
1.80559e-11
1.52339e-10
2.45336e-11
1.3101e-10
3.11671e-11
1.05152e-10
3.78663e-11
7.47972e-11
4.45263e-11
4.00551e-11
5.10291e-11
1.12453e-12
5.72452e-11
-4.17021e-11
6.30358e-11
-8.80342e-11
6.82553e-11
-1.3738e-10
7.27551e-11
-1.89149e-10
7.6386e-11
-2.42651e-10
7.9003e-11
-2.97105e-10
8.04689e-11
-3.51647e-10
8.0659e-11
-4.05339e-10
7.9466e-11
-4.57188e-10
7.68039e-11
-5.06159e-10
7.26125e-11
-5.51196e-10
6.68607e-11
-5.91247e-10
5.95497e-11
-6.25282e-10
5.07151e-11
-6.52324e-10
4.04282e-11
-6.71467e-10
2.87967e-11
-6.81907e-10
1.59636e-11
-6.82964e-10
2.10737e-12
-6.74111e-10
-1.25505e-11
-6.55021e-10
-2.77135e-11
-6.25582e-10
-4.30516e-11
-5.85911e-10
-5.82193e-11
-5.36367e-10
-7.28651e-11
-4.7754e-10
-8.66399e-11
-4.10253e-10
-9.9204e-11
-3.3554e-10
-1.10235e-10
-2.54635e-10
-1.19435e-10
-1.6895e-10
-1.26542e-10
-8.00456e-11
-1.31336e-10
-1.33645e-10
1.19659e-10
-2.40659e-10
2.24632e-10
-2.35772e-10
3.2549e-10
-2.26365e-10
4.20414e-10
-2.12821e-10
5.07766e-10
-1.95578e-10
5.86122e-10
-1.75129e-10
6.54298e-10
-1.52018e-10
7.11371e-10
-1.26836e-10
7.56689e-10
-1.002e-10
7.89877e-10
-7.2743e-11
8.10833e-10
-4.5094e-11
8.19722e-10
-1.78633e-11
8.16949e-10
8.37755e-12
8.03144e-10
3.31246e-11
7.7912e-10
5.59778e-11
7.45846e-10
7.66132e-11
7.04407e-10
9.47758e-11
6.55978e-10
1.10279e-10
6.01786e-10
1.23003e-10
5.43088e-10
1.32894e-10
4.81137e-10
1.39961e-10
4.17158e-10
1.44273e-10
3.52325e-10
1.45948e-10
2.87741e-10
1.45151e-10
2.24421e-10
1.42083e-10
1.63279e-10
1.36975e-10
1.05117e-10
1.30081e-10
5.06216e-11
1.21665e-10
3.5812e-13
1.11999e-10
-4.52264e-11
1.01351e-10
-8.5801e-11
8.99839e-11
-1.21145e-10
7.81459e-11
-1.5114e-10
6.60677e-11
-1.75761e-10
5.39584e-11
-1.95067e-10
4.20025e-11
-2.09186e-10
3.03583e-11
-2.18308e-10
1.91567e-11
-2.22671e-10
8.50163e-12
-2.22553e-10
-1.5286e-12
-2.18259e-10
-1.08758e-11
-2.10119e-10
-1.94849e-11
-1.98479e-10
-2.73134e-11
-1.83698e-10
-3.43335e-11
-1.66139e-10
-4.05308e-11
-1.4617e-10
-4.59025e-11
-1.24158e-10
-5.04535e-11
-1.00463e-10
-5.41946e-11
-7.54426e-11
-5.7139e-11
-4.94491e-11
-5.93003e-11
-2.2829e-11
-6.06907e-11
4.07426e-12
-6.13189e-11
3.09195e-11
-6.11897e-11
5.73652e-11
-6.0303e-11
8.30683e-11
-5.8654e-11
1.07682e-10
-5.6234e-11
1.30855e-10
-5.30314e-11
1.52232e-10
-4.90336e-11
1.71452e-10
-4.4229e-11
1.88152e-10
-3.86091e-11
2.01969e-10
-3.21721e-11
2.12544e-10
-2.49247e-11
2.19526e-10
-1.68856e-11
2.22577e-10
-8.08719e-12
2.21378e-10
1.42401e-12
2.15636e-10
1.15936e-11
2.05087e-10
2.23584e-11
1.8951e-10
3.3634e-11
1.68734e-10
4.531e-11
1.42652e-10
5.72493e-11
1.11231e-10
6.92879e-11
7.45215e-11
8.12363e-11
3.2669e-11
9.28817e-11
-1.4077e-11
1.03991e-10
-6.53559e-11
1.14314e-10
-1.20692e-10
1.23591e-10
-1.7949e-10
1.31553e-10
-2.41039e-10
1.37935e-10
-3.04513e-10
1.42478e-10
-3.68979e-10
1.44935e-10
-4.33406e-10
1.45087e-10
-4.96682e-10
1.42742e-10
-5.57628e-10
1.3775e-10
-6.1502e-10
1.30004e-10
-6.67612e-10
1.19453e-10
-7.14165e-10
1.06103e-10
-7.5347e-10
9.00213e-11
-7.84384e-10
7.13425e-11
-8.05855e-10
5.02675e-11
-8.16956e-10
2.7065e-11
-8.16921e-10
2.07265e-12
-8.05178e-10
-2.42945e-11
-7.81376e-10
-5.15163e-11
-7.45411e-10
-7.90161e-11
-6.97443e-10
-1.06186e-10
-6.37905e-10
-1.32401e-10
-5.67504e-10
-1.57041e-10
-4.87209e-10
-1.79499e-10
-3.98242e-10
-1.99201e-10
-3.02055e-10
-2.15621e-10
-2.00301e-10
-2.28298e-10
-9.47953e-11
-2.36842e-10
-2.40962e-10
1.15294e-10
-3.43752e-10
2.16329e-10
-3.36807e-10
3.13495e-10
-3.23531e-10
4.05078e-10
-3.04404e-10
4.89523e-10
-2.80024e-10
5.65474e-10
-2.5108e-10
6.31799e-10
-2.18344e-10
6.8761e-10
-1.82647e-10
7.32272e-10
-1.44862e-10
7.65408e-10
-1.0588e-10
7.86899e-10
-6.65846e-11
7.96866e-10
-2.78308e-11
7.9566e-10
9.58305e-12
7.83839e-10
4.4945e-11
7.62147e-10
7.76695e-11
7.3148e-10
1.07279e-10
6.92859e-10
1.33397e-10
6.47389e-10
1.55748e-10
5.96236e-10
1.74155e-10
5.40596e-10
1.88534e-10
4.81664e-10
1.98893e-10
4.20615e-10
2.05322e-10
3.58577e-10
2.07987e-10
2.96611e-10
2.07116e-10
2.357e-10
2.02994e-10
1.76729e-10
1.95947e-10
1.2048e-10
1.8633e-10
6.76236e-11
1.74521e-10
1.87191e-11
1.60903e-10
-2.57895e-11
1.45859e-10
-6.5568e-11
1.29762e-10
-1.00388e-10
1.12965e-10
-1.30119e-10
9.57984e-11
-1.54721e-10
7.85607e-11
-1.74236e-10
6.15168e-11
-1.88773e-10
4.48953e-11
-1.98503e-10
2.8887e-11
-2.03647e-10
1.36457e-11
-2.04467e-10
-7.09066e-13
-2.01255e-10
-1.40871e-11
-1.94328e-10
-2.64124e-11
-1.84015e-10
-3.76264e-11
-1.70658e-10
-4.76898e-11
-1.54607e-10
-5.65815e-11
-1.36214e-10
-6.42952e-11
-1.15832e-10
-7.08361e-11
-9.38092e-11
-7.62173e-11
-7.04929e-11
-8.04555e-11
-4.62252e-11
-8.35685e-11
-2.13443e-11
-8.55721e-11
3.81413e-12
-8.6478e-11
2.89162e-11
-8.62925e-11
5.36281e-11
-8.50155e-11
7.76145e-11
-8.26409e-11
1.00537e-10
-7.91572e-11
1.22055e-10
-7.45495e-11
1.41823e-10
-6.88015e-11
1.59493e-10
-6.18987e-11
1.74716e-10
-5.38314e-11
1.87142e-10
-4.45987e-11
1.9643e-10
-3.42118e-11
2.02242e-10
-2.26979e-11
2.04258e-10
-1.01022e-11
2.0217e-10
3.51128e-12
1.95699e-10
1.80646e-11
1.84598e-10
3.34602e-11
1.68661e-10
4.95703e-11
1.47739e-10
6.62324e-11
1.21741e-10
8.3247e-11
9.06509e-11
1.00378e-10
5.45333e-11
1.17354e-10
1.3545e-11
1.33869e-10
-3.20579e-11
1.49593e-10
-8.19134e-11
1.64169e-10
-1.35549e-10
1.77226e-10
-1.9238e-10
1.88384e-10
-2.51711e-10
1.97266e-10
-3.12737e-10
2.03504e-10
-3.74555e-10
2.06753e-10
-4.3617e-10
2.06701e-10
-4.96508e-10
2.03081e-10
-5.5444e-10
1.95681e-10
-6.08792e-10
1.84357e-10
-6.58378e-10
1.69039e-10
-7.02016e-10
1.49742e-10
-7.38565e-10
1.2657e-10
-7.66943e-10
9.97205e-11
-7.86167e-10
6.94915e-11
-7.95381e-10
3.62785e-11
-7.93887e-10
5.79088e-13
-7.81182e-10
-3.69996e-11
-7.56969e-10
-7.57299e-11
-7.21177e-10
-1.14807e-10
-6.73983e-10
-1.53379e-10
-6.15817e-10
-1.90568e-10
-5.47362e-10
-2.25497e-10
-4.69549e-10
-2.57312e-10
-3.83544e-10
-2.85204e-10
-2.9073e-10
-3.08435e-10
-1.92671e-10
-3.26357e-10
-9.10832e-11
-3.38427e-10
-3.44251e-10
1.01029e-10
-4.33961e-10
1.89475e-10
-4.25253e-10
2.74624e-10
-4.08678e-10
3.55013e-10
-3.84793e-10
4.29312e-10
-3.54323e-10
4.96353e-10
-3.1812e-10
5.55154e-10
-2.77144e-10
6.04938e-10
-2.3243e-10
6.45142e-10
-1.85065e-10
6.75418e-10
-1.36155e-10
6.95635e-10
-8.68012e-11
7.05867e-10
-3.80625e-11
7.06381e-10
9.06904e-12
6.97623e-10
5.37032e-11
6.80202e-10
9.50911e-11
6.54865e-10
1.32617e-10
6.22468e-10
1.65794e-10
5.83953e-10
1.94265e-10
5.40315e-10
2.17794e-10
4.92581e-10
2.36269e-10
4.41784e-10
2.4969e-10
3.88943e-10
2.58164e-10
3.3504e-10
2.6189e-10
2.81005e-10
2.61152e-10
2.277e-10
2.563e-10
1.75908e-10
2.47739e-10
1.26325e-10
2.35913e-10
7.95517e-11
2.21293e-10
3.60941e-11
2.0436e-10
-3.64063e-12
1.85593e-10
-3.93405e-11
1.65461e-10
-7.0785e-11
1.44409e-10
-9.78396e-11
1.22853e-10
-1.20449e-10
1.0117e-10
-1.3863e-10
7.96976e-11
-1.52462e-10
5.87272e-11
-1.62079e-10
3.85042e-11
-1.67663e-10
1.92291e-11
-1.69432e-10
1.06011e-12
-1.67638e-10
-1.58811e-11
-1.62552e-10
-3.14985e-11
-1.5446e-10
-4.57181e-11
-1.4366e-10
-5.84894e-11
-1.30458e-10
-6.97837e-11
-1.15163e-10
-7.95906e-11
-9.80855e-11
-8.79138e-11
-7.95362e-11
-9.47668e-11
-5.98236e-11
-1.00168e-10
-3.92542e-11
-1.04138e-10
-1.81318e-11
-1.06695e-10
3.2415e-12
-1.07852e-10
2.45646e-11
-1.07616e-10
4.55366e-11
-1.05988e-10
6.58557e-11
-1.0296e-10
8.52185e-11
-9.85202e-11
1.0332e-10
-9.26506e-11
1.19852e-10
-8.53336e-11
1.34507e-10
-7.65534e-11
1.46976e-10
-6.63007e-11
1.56955e-10
-5.4577e-11
1.64142e-10
-4.13987e-11
1.68245e-10
-2.68016e-11
1.68987e-10
-1.08436e-11
1.66103e-10
6.39455e-12
1.59356e-10
2.48118e-11
1.48539e-10
4.42775e-11
1.33485e-10
6.46234e-11
1.14079e-10
8.56383e-11
9.02597e-11
1.07066e-10
6.20309e-11
1.28606e-10
2.94701e-11
1.49914e-10
-7.26487e-12
1.70604e-10
-4.79297e-11
1.90257e-10
-9.21882e-11
2.08427e-10
-1.39609e-10
2.24646e-10
-1.89665e-10
2.3844e-10
-2.41733e-10
2.49334e-10
-2.95099e-10
2.56871e-10
-3.48966e-10
2.6062e-10
-4.02459e-10
2.60194e-10
-4.54641e-10
2.55263e-10
-5.04526e-10
2.45567e-10
-5.511e-10
2.30932e-10
-5.93338e-10
2.11278e-10
-6.30226e-10
1.86631e-10
-6.60789e-10
1.57132e-10
-6.8411e-10
1.23042e-10
-6.99364e-10
8.47449e-11
-7.05838e-10
4.27534e-11
-7.02967e-10
-2.29225e-12
-6.90349e-10
-4.96172e-11
-6.67762e-10
-9.83161e-11
-6.35178e-10
-1.47391e-10
-5.92774e-10
-1.95783e-10
-5.4094e-10
-2.42402e-10
-4.80282e-10
-2.86155e-10
-4.11612e-10
-3.25981e-10
-3.35942e-10
-3.60874e-10
-2.54461e-10
-3.89917e-10
-1.68512e-10
-4.12305e-10
-7.95668e-11
-4.27372e-10
-4.34637e-10
8.67216e-11
-5.11274e-10
1.62567e-10
-5.01098e-10
2.3567e-10
-4.81781e-10
3.04819e-10
-4.53942e-10
3.68903e-10
-4.18407e-10
4.26942e-10
-3.76159e-10
4.78105e-10
-3.28307e-10
5.21725e-10
-2.7605e-10
5.5731e-10
-2.20649e-10
5.84544e-10
-1.63389e-10
6.03288e-10
-1.05545e-10
6.13572e-10
-4.83465e-11
6.15588e-10
7.05396e-12
6.09675e-10
5.96165e-11
5.96313e-10
1.08453e-10
5.76102e-10
1.52828e-10
5.49741e-10
1.92156e-10
5.18002e-10
2.26003e-10
4.81714e-10
2.54083e-10
4.41734e-10
2.76249e-10
3.98933e-10
2.92491e-10
3.54173e-10
3.02924e-10
3.0829e-10
3.07773e-10
2.62082e-10
3.0736e-10
2.16292e-10
3.02089e-10
1.71602e-10
2.92429e-10
1.28622e-10
2.78894e-10
8.78829e-11
2.62032e-10
4.98384e-11
2.42405e-10
1.48595e-11
2.20572e-10
-1.67629e-11
1.97083e-10
-4.48155e-11
1.72462e-10
-6.9159e-11
1.47196e-10
-8.97227e-11
1.21734e-10
-1.06499e-10
9.64736e-11
-1.19536e-10
7.17639e-11
-1.28931e-10
4.78995e-11
-1.34826e-10
2.5124e-11
-1.37398e-10
3.63177e-12
-1.36853e-10
-1.64259e-11
-1.3342e-10
-3.49323e-11
-1.2734e-10
-5.17977e-11
-1.1887e-10
-6.69601e-11
-1.08272e-10
-8.03822e-11
-9.58146e-11
-9.20481e-11
-8.17701e-11
-1.01959e-10
-6.64116e-11
-1.10126e-10
-5.00121e-11
-1.16568e-10
-3.28444e-11
-1.21306e-10
-1.518e-11
-1.2436e-10
2.71023e-12
-1.25742e-10
2.05561e-11
-1.25462e-10
3.80875e-11
-1.2352e-10
5.50341e-11
-1.19907e-10
7.1125e-11
-1.14611e-10
8.60886e-11
-1.07614e-10
9.96533e-11
-9.88982e-11
1.11548e-10
-8.84482e-11
1.21504e-10
-7.62567e-11
1.29256e-10
-6.23292e-11
1.34546e-10
-4.66886e-11
1.37124e-10
-2.93799e-11
1.36754e-10
-1.04739e-11
1.33217e-10
9.9315e-12
1.26317e-10
3.17121e-11
1.15888e-10
5.47062e-11
1.01803e-10
7.87075e-11
8.39805e-11
1.03461e-10
6.2388e-11
1.28658e-10
3.70515e-11
1.53942e-10
8.06085e-12
1.78904e-10
-2.4425e-11
2.03089e-10
-6.01726e-11
2.26004e-10
-9.88708e-11
2.47125e-10
-1.40129e-10
2.65904e-10
-1.83475e-10
2.81786e-10
-2.2836e-10
2.94219e-10
-2.7416e-10
3.02671e-10
-3.20181e-10
3.06641e-10
-3.65671e-10
3.05683e-10
-4.09826e-10
2.99418e-10
-4.51808e-10
2.87551e-10
-4.9076e-10
2.69884e-10
-5.25818e-10
2.46336e-10
-5.56137e-10
2.1695e-10
-5.80908e-10
1.81902e-10
-5.99378e-10
1.41511e-10
-6.10875e-10
9.62425e-11
-6.14832e-10
4.67102e-11
-6.10802e-10
-6.32148e-12
-5.98483e-10
-6.1936e-11
-5.77721e-10
-1.19079e-10
-5.48522e-10
-1.7659e-10
-5.11063e-10
-2.33242e-10
-4.65696e-10
-2.8777e-10
-4.12945e-10
-3.38906e-10
-3.53508e-10
-3.85418e-10
-2.8824e-10
-4.26143e-10
-2.18142e-10
-4.60016e-10
-1.44339e-10
-4.86108e-10
-6.80587e-11
-5.03655e-10
-5.12103e-10
7.40563e-11
-5.77182e-10
1.38752e-10
-5.65794e-10
2.01185e-10
-5.44215e-10
2.6036e-10
-5.13117e-10
3.15359e-10
-4.73405e-10
3.65364e-10
-4.26164e-10
4.09676e-10
-3.7262e-10
4.4773e-10
-3.14104e-10
4.79094e-10
-2.52015e-10
5.03485e-10
-1.8778e-10
5.20758e-10
-1.22818e-10
5.30908e-10
-5.84973e-11
5.34064e-10
3.8983e-12
5.30476e-10
6.3204e-11
5.20515e-10
1.18414e-10
5.04655e-10
1.68688e-10
4.83456e-10
2.13355e-10
4.57549e-10
2.51911e-10
4.27612e-10
2.84019e-10
3.94359e-10
3.09502e-10
3.58516e-10
3.28334e-10
3.20808e-10
3.40632e-10
2.81945e-10
3.46636e-10
2.42607e-10
3.46698e-10
2.03433e-10
3.41262e-10
1.65015e-10
3.30847e-10
1.27884e-10
3.16025e-10
9.25122e-11
2.97404e-10
5.93043e-11
2.75612e-10
2.85981e-11
2.51278e-10
6.64168e-13
2.25017e-10
-2.42927e-11
1.97419e-10
-4.61309e-11
1.69034e-10
-6.47681e-11
1.40371e-10
-8.0177e-11
1.11883e-10
-9.23802e-11
8.39672e-11
-1.01445e-10
5.69647e-11
-1.07479e-10
3.11579e-11
-1.10622e-10
6.77515e-12
-1.11043e-10
-1.60042e-11
-1.08933e-10
-3.70429e-11
-1.04495e-10
-5.62353e-11
-9.79483e-11
-7.3507e-11
-8.95185e-11
-8.88121e-11
-7.94387e-11
-1.02128e-10
-6.79465e-11
-1.13451e-10
-5.52819e-11
-1.2279e-10
-4.16867e-11
-1.30163e-10
-2.74032e-11
-1.3559e-10
-1.26741e-11
-1.39089e-10
2.25806e-12
-1.40674e-10
1.71511e-11
-1.40355e-10
3.17628e-11
-1.38131e-10
4.58511e-11
-1.33995e-10
5.91743e-11
-1.27934e-10
7.14912e-11
-1.19931e-10
8.25617e-11
-1.09968e-10
9.21481e-11
-9.80342e-11
1.00016e-10
-8.41241e-11
1.05935e-10
-6.82485e-11
1.09685e-10
-5.04378e-11
1.11052e-10
-3.07468e-11
1.09837e-10
-9.25944e-12
1.0586e-10
1.39092e-11
9.89595e-11
3.86122e-11
8.90071e-11
6.46584e-11
7.59081e-11
9.18063e-11
5.96085e-11
1.1976e-10
4.01002e-11
1.48166e-10
1.74263e-11
1.76616e-10
-8.3146e-12
2.04645e-10
-3.69641e-11
2.31738e-10
-6.83005e-11
2.57341e-10
-1.02036e-10
2.80861e-10
-1.37818e-10
3.01685e-10
-1.75225e-10
3.19193e-10
-2.13772e-10
3.32767e-10
-2.52915e-10
3.41814e-10
-2.92055e-10
3.45781e-10
-3.30543e-10
3.44173e-10
-3.67698e-10
3.36573e-10
-4.02809e-10
3.22662e-10
-4.35153e-10
3.0223e-10
-4.64013e-10
2.75197e-10
-4.88688e-10
2.41625e-10
-5.08512e-10
2.01726e-10
-5.22876e-10
1.55875e-10
-5.31241e-10
1.04608e-10
-5.33159e-10
4.86296e-11
-5.28291e-10
-1.11893e-11
-5.16413e-10
-7.38133e-11
-4.9743e-10
-1.38063e-10
-4.71374e-10
-2.02646e-10
-4.38421e-10
-2.66196e-10
-3.98883e-10
-3.27307e-10
-3.53219e-10
-3.8457e-10
-3.02019e-10
-4.36619e-10
-2.46003e-10
-4.82159e-10
-1.86007e-10
-5.20012e-10
-1.22965e-10
-5.4915e-10
-5.78903e-11
-5.6873e-10
-5.78142e-10
6.23421e-11
-6.32554e-10
1.1673e-10
-6.20183e-10
1.69283e-10
-5.96768e-10
2.19194e-10
-5.63028e-10
2.65717e-10
-5.19928e-10
3.08183e-10
-4.6863e-10
3.46014e-10
-4.10452e-10
3.78737e-10
-3.46826e-10
4.05983e-10
-2.79261e-10
4.27499e-10
-2.09296e-10
4.43143e-10
-1.38462e-10
4.52884e-10
-6.82383e-11
4.56797e-10
-1.58469e-14
4.55062e-10
6.4939e-11
4.47954e-10
1.25521e-10
4.35839e-10
1.80803e-10
4.19157e-10
2.30037e-10
3.9841e-10
2.72658e-10
3.74147e-10
3.08282e-10
3.46947e-10
3.36701e-10
3.17409e-10
3.57873e-10
2.86134e-10
3.71908e-10
2.53712e-10
3.79057e-10
2.20718e-10
3.79693e-10
1.87692e-10
3.74288e-10
1.5514e-10
3.63399e-10
1.23522e-10
3.47643e-10
9.32465e-11
3.27679e-10
6.46725e-11
3.04186e-10
3.81022e-11
2.77848e-10
1.37825e-11
2.49337e-10
-8.09428e-12
2.19296e-10
-2.73892e-11
1.8833e-10
-4.40141e-11
1.56996e-10
-5.79278e-11
1.25797e-10
-6.91335e-11
9.51731e-11
-7.76738e-11
6.55054e-11
-8.36273e-11
3.71117e-11
-8.71034e-11
1.02515e-11
-8.82374e-11
-1.48701e-11
-8.71847e-11
-3.80956e-11
-8.4116e-11
-5.9304e-11
-7.92142e-11
-7.84089e-11
-7.26715e-11
-9.53549e-11
-6.46871e-11
-1.10112e-10
-5.54654e-11
-1.22673e-10
-4.52144e-11
-1.33041e-10
-3.41449e-11
-1.41233e-10
-2.2469e-11
-1.47266e-10
-1.03998e-11
-1.51158e-10
1.84905e-12
-1.52923e-10
1.40638e-11
-1.5257e-10
2.6031e-11
-1.50098e-10
3.75374e-11
-1.45501e-10
4.83709e-11
-1.38767e-10
5.83204e-11
-1.2988e-10
6.71771e-11
-1.18825e-10
7.47351e-11
-1.05592e-10
8.0793e-11
-9.01816e-11
8.51548e-11
-7.26101e-11
8.76326e-11
-5.29154e-11
8.80484e-11
-3.11624e-11
8.62369e-11
-7.44788e-12
8.20498e-11
1.80964e-11
7.53602e-11
4.53017e-11
6.60686e-11
7.39498e-11
5.41078e-11
1.03767e-10
3.94466e-11
1.34421e-10
2.20949e-11
1.65518e-10
2.10677e-12
1.96604e-10
-2.04156e-11
2.27167e-10
-4.53191e-11
2.56642e-10
-7.23976e-11
2.84419e-10
-1.0139e-10
3.09853e-10
-1.31981e-10
3.32277e-10
-1.63802e-10
3.51013e-10
-1.96429e-10
3.65395e-10
-2.29396e-10
3.7478e-10
-2.62189e-10
3.78574e-10
-2.94262e-10
3.76246e-10
-3.2504e-10
3.67352e-10
-3.53932e-10
3.51554e-10
-3.8034e-10
3.28639e-10
-4.03674e-10
2.98532e-10
-4.23364e-10
2.61315e-10
-4.38876e-10
2.17237e-10
-4.49722e-10
1.66721e-10
-4.55482e-10
1.10368e-10
-4.55813e-10
4.89611e-11
-4.50462e-10
-1.654e-11
-4.39275e-10
-8.50006e-11
-4.222e-10
-1.55138e-10
-3.99291e-10
-2.25555e-10
-3.70714e-10
-2.94773e-10
-3.36747e-10
-3.61273e-10
-2.97778e-10
-4.23539e-10
-2.54303e-10
-4.80094e-10
-2.06917e-10
-5.29545e-10
-1.56306e-10
-5.70623e-10
-1.03232e-10
-6.02224e-10
-4.85165e-11
-6.23444e-10
-6.33629e-10
5.12773e-11
-6.77993e-10
9.59367e-11
-6.64842e-10
1.39147e-10
-6.39978e-10
1.80271e-10
-6.04152e-10
2.1872e-10
-5.58377e-10
2.53963e-10
-5.03872e-10
2.85534e-10
-4.42023e-10
3.13047e-10
-3.74338e-10
3.36195e-10
-3.02408e-10
3.54757e-10
-2.27858e-10
3.68599e-10
-1.52304e-10
3.77673e-10
-7.73117e-11
3.82012e-10
-4.35547e-12
3.81734e-10
6.52176e-11
3.77033e-10
1.30222e-10
3.68181e-10
1.89656e-10
3.5551e-10
2.42708e-10
3.39408e-10
2.8876e-10
3.20305e-10
3.27385e-10
2.9866e-10
3.58346e-10
2.74951e-10
3.81581e-10
2.49664e-10
3.97195e-10
2.23281e-10
4.0544e-10
1.96272e-10
4.06702e-10
1.69086e-10
4.01474e-10
1.42144e-10
3.9034e-10
1.15836e-10
3.73952e-10
9.05096e-11
3.53005e-10
6.64746e-11
3.28221e-10
4.39954e-11
3.00328e-10
2.32922e-11
2.7004e-10
4.54043e-12
2.38047e-10
-1.21282e-11
2.04998e-10
-2.66244e-11
1.71492e-10
-3.88988e-11
1.38071e-10
-4.89399e-11
1.05214e-10
-5.67707e-11
7.33362e-11
-6.24453e-11
4.27863e-11
-6.60459e-11
1.38519e-11
-6.76778e-11
-1.32385e-11
-6.74651e-11
-3.83087e-11
-6.55463e-11
-6.12232e-11
-6.20717e-11
-8.18838e-11
-5.72007e-11
-1.00226e-10
-5.10997e-11
-1.16214e-10
-4.39407e-11
-1.29832e-10
-3.58999e-11
-1.41082e-10
-2.71562e-11
-1.49977e-10
-1.78913e-11
-1.56531e-10
-8.28771e-12
-1.60762e-10
1.47085e-12
-1.62682e-10
1.12005e-11
-1.623e-10
2.07175e-11
-1.59615e-10
2.98388e-11
-1.54622e-10
3.83824e-11
-1.4731e-10
4.61682e-11
-1.37665e-10
5.30187e-11
-1.25675e-10
5.87599e-11
-1.11333e-10
6.32224e-11
-9.46442e-11
6.62431e-11
-7.56309e-11
6.76662e-11
-5.43387e-11
6.73459e-11
-3.08423e-11
6.51487e-11
-5.25084e-12
6.09563e-11
2.22885e-11
5.46708e-11
5.15869e-11
4.62189e-11
8.24013e-11
3.55559e-11
1.1443e-10
2.26689e-11
1.47308e-10
7.58045e-12
1.80606e-10
-9.64924e-12
2.13833e-10
-2.89194e-11
2.46437e-10
-5.00868e-11
2.77809e-10
-7.29646e-11
3.07296e-10
-9.73217e-11
3.3421e-10
-1.22883e-10
3.57837e-10
-1.4933e-10
3.7746e-10
-1.76305e-10
3.9237e-10
-2.03414e-10
4.01888e-10
-2.30228e-10
4.05388e-10
-2.56296e-10
4.02314e-10
-2.81146e-10
3.92203e-10
-3.04297e-10
3.74706e-10
-3.25268e-10
3.4961e-10
-3.43586e-10
3.1685e-10
-3.58802e-10
2.7653e-10
-3.70497e-10
2.28932e-10
-3.78297e-10
1.74521e-10
-3.81884e-10
1.13956e-10
-3.81007e-10
4.80841e-11
-3.75489e-10
-2.20591e-11
-3.65231e-10
-9.52597e-11
-3.50217e-10
-1.70153e-10
-3.30514e-10
-2.45258e-10
-3.06275e-10
-3.19011e-10
-2.7774e-10
-3.89809e-10
-2.45231e-10
-4.56049e-10
-2.09153e-10
-5.16172e-10
-1.69986e-10
-5.68712e-10
-1.28276e-10
-6.12333e-10
-8.46282e-11
-6.45872e-10
-3.96942e-11
-6.68377e-10
-6.79163e-10
4.07097e-11
-7.13959e-10
7.60837e-11
-7.00215e-10
1.10362e-10
-6.74256e-10
1.43066e-10
-6.36856e-10
1.73751e-10
-5.89061e-10
2.02009e-10
-5.32131e-10
2.27486e-10
-4.67499e-10
2.49874e-10
-3.96727e-10
2.6893e-10
-3.21464e-10
2.84466e-10
-2.43394e-10
2.96361e-10
-1.64198e-10
3.04553e-10
-8.55038e-11
3.09045e-10
-8.84731e-12
3.099e-10
6.43624e-11
3.07245e-10
1.32877e-10
3.01264e-10
1.95636e-10
2.92196e-10
2.51775e-10
2.80325e-10
3.0063e-10
2.65971e-10
3.41739e-10
2.49481e-10
3.74835e-10
2.31223e-10
3.99839e-10
2.11573e-10
4.16844e-10
1.90909e-10
4.26103e-10
1.69604e-10
4.28006e-10
1.48017e-10
4.2306e-10
1.2649e-10
4.11867e-10
1.05338e-10
3.95103e-10
8.4852e-11
3.73491e-10
6.52891e-11
3.47784e-10
4.68745e-11
3.18742e-10
2.97988e-11
2.87116e-10
1.42172e-11
2.53629e-10
2.50378e-13
2.18965e-10
-1.20155e-11
1.83758e-10
-2.25271e-11
1.48583e-10
-3.12622e-11
1.1395e-10
-3.82277e-11
8.03019e-11
-4.34574e-11
4.80161e-11
-4.70089e-11
1.74034e-11
-4.89607e-11
-1.12869e-11
-4.94077e-11
-3.78619e-11
-4.84584e-11
-6.21725e-11
-4.62319e-11
-8.41104e-11
-4.28559e-11
-1.03602e-10
-3.84647e-11
-1.20605e-10
-3.31984e-11
-1.35099e-10
-2.72009e-11
-1.4708e-10
-2.06199e-11
-1.56558e-10
-1.36052e-11
-1.63546e-10
-6.30839e-12
-1.68058e-10
1.11774e-12
-1.70108e-10
8.52017e-12
-1.69702e-10
1.5746e-11
-1.66841e-10
2.26429e-11
-1.61519e-10
2.90602e-11
-1.53727e-10
3.4849e-11
-1.43454e-10
3.98633e-11
-1.30689e-10
4.3961e-11
-1.15431e-10
4.70044e-11
-9.76875e-11
4.88619e-11
-7.74883e-11
4.94093e-11
-5.4886e-11
4.85312e-11
-2.99643e-11
4.61236e-11
-2.84326e-12
4.20962e-11
2.63159e-11
3.63769e-11
5.73061e-11
2.89155e-11
8.98627e-11
1.96861e-11
1.23659e-10
8.6904e-12
1.58303e-10
-4.0407e-12
1.93337e-10
-1.84448e-11
2.28237e-10
-3.44265e-11
2.62418e-10
-5.18562e-11
2.95238e-10
-7.05697e-11
3.2601e-10
-9.03681e-11
3.54008e-10
-1.11018e-10
3.78488e-10
-1.32255e-10
3.98697e-10
-1.53784e-10
4.13898e-10
-1.75282e-10
4.23387e-10
-1.96405e-10
4.26512e-10
-2.16792e-10
4.22701e-10
-2.3607e-10
4.1148e-10
-2.53862e-10
3.92498e-10
-2.69795e-10
3.65542e-10
-2.83507e-10
3.30563e-10
-2.94659e-10
2.87682e-10
-3.02939e-10
2.37212e-10
-3.08075e-10
1.79657e-10
-3.09842e-10
1.15723e-10
-3.08068e-10
4.63099e-11
-3.02642e-10
-2.74865e-11
-2.93512e-10
-1.0439e-10
-2.8069e-10
-1.82975e-10
-2.64251e-10
-2.61698e-10
-2.4433e-10
-3.38932e-10
-2.21129e-10
-4.13012e-10
-1.94904e-10
-4.82273e-10
-1.65974e-10
-5.45102e-10
-1.34711e-10
-5.99976e-10
-1.01532e-10
-6.45513e-10
-6.68955e-11
-6.80507e-10
-3.12975e-11
-7.03976e-10
-7.15206e-10
3.0533e-11
-7.40813e-10
5.69705e-11
-7.26652e-10
8.26426e-11
-6.99927e-10
1.07216e-10
-6.6143e-10
1.3038e-10
-6.12225e-10
1.51847e-10
-5.53598e-10
1.7136e-10
-4.87012e-10
1.88695e-10
-4.14062e-10
2.03665e-10
-3.36433e-10
2.16119e-10
-2.55849e-10
2.25951e-10
-1.7403e-10
2.33092e-10
-9.26451e-11
2.37518e-10
-1.3274e-11
2.39249e-10
6.26313e-11
2.3835e-10
1.33777e-10
2.34928e-10
1.99057e-10
2.29137e-10
2.57566e-10
2.21164e-10
3.08604e-10
2.11227e-10
3.51676e-10
1.99571e-10
3.86491e-10
1.86458e-10
4.12952e-10
1.72161e-10
4.31141e-10
1.5696e-10
4.41305e-10
1.41132e-10
4.43834e-10
1.2495e-10
4.39242e-10
1.08677e-10
4.28141e-10
9.2557e-11
4.11222e-10
7.68202e-11
3.89228e-10
6.16732e-11
3.62931e-10
4.72993e-11
3.33116e-10
3.38573e-11
3.00558e-10
2.14796e-11
2.66007e-10
1.02725e-11
2.30173e-10
3.16029e-13
1.93716e-10
-8.33541e-12
1.57235e-10
-1.56523e-11
1.21267e-10
-2.16285e-11
8.62786e-11
-2.628e-11
5.26681e-11
-2.96429e-11
2.07666e-11
-3.17705e-11
-9.15894e-12
-3.27309e-11
-3.6901e-11
-3.26041e-11
-6.2299e-11
-3.1479e-11
-8.5235e-11
-2.94526e-11
-1.05628e-10
-2.66278e-11
-1.23429e-10
-2.31127e-11
-1.38613e-10
-1.90197e-11
-1.51173e-10
-1.44644e-11
-1.61113e-10
-9.56491e-12
-1.68445e-10
-4.44121e-12
-1.73182e-10
7.85589e-13
-1.75335e-10
5.99389e-12
-1.7491e-10
1.10622e-11
-1.71908e-10
1.58699e-11
-1.66326e-10
2.02977e-11
-1.58155e-10
2.42284e-11
-1.47384e-10
2.75477e-11
-1.34008e-10
3.0145e-11
-1.18027e-10
3.19141e-11
-9.94561e-11
3.27543e-11
-7.83281e-11
3.25717e-11
-5.4703e-11
3.12803e-11
-2.86724e-11
2.88039e-11
-3.66469e-13
2.50782e-11
3.0042e-11
2.00549e-11
6.23299e-11
1.37039e-11
9.62141e-11
6.0159e-12
1.31348e-10
-2.99648e-12
1.67316e-10
-1.32968e-11
2.03638e-10
-2.48238e-11
2.39765e-10
-3.74904e-11
2.75085e-10
-5.11838e-11
3.08932e-10
-6.57646e-11
3.40591e-10
-8.10683e-11
3.69312e-10
-9.69057e-11
3.94325e-10
-1.13065e-10
4.14857e-10
-1.29314e-10
4.30148e-10
-1.45402e-10
4.39476e-10
-1.61067e-10
4.42177e-10
-1.76035e-10
4.37668e-10
-1.90027e-10
4.25473e-10
-2.02766e-10
4.05238e-10
-2.13983e-10
3.76759e-10
-2.23419e-10
3.39999e-10
-2.30837e-10
2.951e-10
-2.36024e-10
2.424e-10
-2.38803e-10
1.82436e-10
-2.39031e-10
1.1595e-10
-2.36609e-10
4.38872e-11
-2.31481e-10
-3.26145e-11
-2.23638e-10
-1.12233e-10
-2.13113e-10
-1.935e-10
-1.99982e-10
-2.74829e-10
-1.84363e-10
-3.54551e-10
-1.66415e-10
-4.3096e-10
-1.46334e-10
-5.02354e-10
-1.24355e-10
-5.67081e-10
-1.00746e-10
-6.23586e-10
-7.58027e-11
-6.70456e-10
-4.98513e-11
-7.06459e-10
-2.3237e-11
-7.30591e-10
-7.4212e-10
2.06821e-11
-7.58859e-10
3.8476e-11
-7.44447e-10
5.58151e-11
-7.17267e-10
7.2504e-11
-6.78119e-10
8.83567e-11
-6.28077e-10
1.03199e-10
-5.6844e-10
1.16868e-10
-5.00681e-10
1.29217e-10
-4.26411e-10
1.40116e-10
-3.47332e-10
1.49453e-10
-2.65186e-10
1.57136e-10
-1.81713e-10
1.63096e-10
-9.86051e-11
1.67286e-10
-1.74647e-11
1.69688e-10
6.02295e-11
1.70311e-10
1.33154e-10
1.69195e-10
2.00172e-10
1.66413e-10
2.60348e-10
1.62064e-10
3.12953e-10
1.56272e-10
3.57467e-10
1.49184e-10
3.9358e-10
1.40961e-10
4.21175e-10
1.31779e-10
4.40323e-10
1.21822e-10
4.51262e-10
1.11277e-10
4.54379e-10
1.00332e-10
4.50187e-10
8.91713e-11
4.39302e-10
7.79712e-11
4.22422e-10
6.68997e-11
4.00299e-10
5.61117e-11
3.73719e-10
4.57482e-11
3.4348e-10
3.59342e-11
3.10373e-10
2.67774e-11
2.75164e-10
1.83677e-11
2.38583e-10
1.07764e-11
2.01307e-10
4.05645e-12
1.63955e-10
-1.75764e-12
1.27081e-10
-6.64923e-12
9.11703e-11
-1.06187e-11
5.66377e-11
-1.36824e-11
2.38304e-11
-1.58706e-11
-6.97057e-12
-1.72262e-11
-3.55453e-11
-1.78015e-11
-6.17236e-11
-1.76566e-11
-8.53797e-11
-1.68585e-11
-1.06426e-10
-1.54792e-11
-1.24809e-10
-1.35954e-11
-1.40497e-10
-1.12879e-11
-1.5348e-10
-8.6403e-12
-1.6376e-10
-5.73898e-12
-1.71346e-10
-2.67198e-12
-1.76249e-10
4.71463e-13
-1.78478e-10
3.6016e-12
-1.7804e-10
6.62881e-12
-1.74936e-10
9.4642e-12
-1.69161e-10
1.20203e-11
-1.6071e-10
1.42117e-11
-1.49575e-10
1.59556e-11
-1.35752e-10
1.71728e-11
-1.19244e-10
1.77881e-11
-1.00071e-10
1.77312e-11
-7.82712e-11
1.69375e-11
-5.39092e-11