/*--------------------------------*- C++ -*----------------------------------*\
| =========                 |                                                 |
| \\      /  F ield         | OpenFOAM: The Open Source CFD Toolbox           |
|  \\    /   O peration     | Version:  2.3.0                                 |
|   \\  /    A nd           | Web:      www.OpenFOAM.org                      |
|    \\/     M anipulation  |                                                 |
\*---------------------------------------------------------------------------*/
FoamFile
{
    version     2.0;
    format      ascii;
    class       surfaceScalarField;
    location    "1000";
    object      phi;
}
// * * * * * * * * * * * * * * * * * * * * * * * * * * * * * * * * * * * * * //

dimensions      [0 3 -1 0 0 0 0];

internalField   nonuniform List<scalar> 
1464
(
-0.227388
0.146899
-0.288534
0.0611468
-0.268884
-0.0196509
-0.187828
-0.0810553
-0.0650633
-0.122765
0.0743116
-0.139375
0.195898
-0.121587
0.278023
-0.0821251
0.305233
-0.0272099
0.259881
0.0453522
0.131427
0.128453
-0.0571052
0.188533
-0.226571
0.169465
-0.334098
0.107528
-0.382887
0.0487888
-0.390989
0.00810229
-0.373613
-0.0173768
-0.335871
-0.0377416
-0.272728
-0.0631435
-0.176047
-0.0966808
-0.0459813
-0.130066
0.0981748
-0.144156
0.222441
-0.124266
0.31159
-0.0891497
0.364142
-0.0525515
0.376964
-0.0128223
0.337053
0.0399117
0.227597
0.109456
0.0471077
0.180489
-0.155464
0.202572
-0.304454
0.14899
-0.385817
0.0813626
-0.415481
0.029664
-0.413652
-0.00182902
-0.392581
-0.0210712
-0.352236
-0.0403452
-0.283237
-0.0689981
-0.17598
-0.107257
-0.0336364
-0.142344
0.117228
-0.150864
0.239579
-0.122352
0.320476
-0.0808962
0.366403
-0.0459275
0.390648
-0.0242454
0.404235
-0.0135863
0.410358
-0.00612348
0.401603
0.00875498
0.361044
0.0405586
0.267996
0.0930482
0.111896
0.1561
0.192384
-0.255656
0.333639
-0.33237
0.137861
-0.310058
-0.0419633
-0.214497
-0.176616
-0.0704112
-0.266851
0.0914876
-0.301274
0.235656
-0.265755
0.334038
-0.180507
0.365631
-0.0588033
0.307816
0.103167
0.144061
0.292208
-0.097367
0.429961
-0.319667
0.391765
-0.465039
0.2529
-0.533839
0.117589
-0.545739
0.0200021
-0.517612
-0.0455046
-0.455855
-0.0994985
-0.358892
-0.160106
-0.224914
-0.230659
-0.0610605
-0.293919
0.112352
-0.317568
0.268193
-0.280107
0.387113
-0.20807
0.459801
-0.125239
0.478712
-0.0317334
0.427577
0.0910466
0.284881
0.252152
0.0488585
0.416512
-0.215818
0.467249
-0.414252
0.347424
-0.524602
0.191713
-0.56511
0.0701721
-0.558423
-0.00851568
-0.518338
-0.0611562
-0.447037
-0.111647
-0.341092
-0.174943
-0.200106
-0.248243
-0.0342339
-0.308216
0.135879
-0.320977
0.287526
-0.273999
0.406157
-0.199527
0.489738
-0.129509
0.544632
-0.0791396
0.577954
-0.0469087
0.591274
-0.0194441
0.576499
0.0235302
0.515553
0.101505
0.386121
0.22248
0.178354
0.363867
0.439654
-0.183567
0.488482
-0.254255
0.208549
-0.245579
-0.050639
-0.172483
-0.249712
-0.0542212
-0.385113
0.0806089
-0.436104
0.199397
-0.384543
0.275346
-0.256457
0.291561
-0.0750181
0.235154
0.159574
0.0976674
0.429695
-0.097285
0.624914
-0.280382
0.574862
-0.406858
0.379376
-0.473814
0.184545
-0.493109
0.0392967
-0.474661
-0.0639528
-0.421805
-0.152355
-0.333537
-0.248374
-0.210903
-0.353293
-0.063693
-0.441129
0.0897081
-0.470969
0.227997
-0.418396
0.332103
-0.312176
0.390899
-0.184034
0.39886
-0.039695
0.347224
0.142683
0.223134
0.376242
0.0280674
0.611579
-0.187537
0.682854
-0.354516
0.514402
-0.45353
0.290727
-0.495904
0.112547
-0.496037
-0.00838286
-0.462078
-0.0951161
-0.395433
-0.178291
-0.295745
-0.274631
-0.167797
-0.376191
-0.0240585
-0.451955
0.121569
-0.466604
0.256825
-0.409255
0.368798
-0.3115
0.451069
-0.21178
0.505295
-0.133365
0.53548
-0.0770939
0.542577
-0.0265411
0.521384
0.0447223
0.460344
0.162546
0.345202
0.337621
0.171452
0.537617
0.639829
-0.0999589
0.58972
-0.155891
0.264481
-0.161105
-0.0454251
-0.116887
-0.29393
-0.0352183
-0.466781
0.0601598
-0.531482
0.14223
-0.466614
0.188372
-0.302598
0.187817
-0.0744633
0.139649
0.207742
0.0473461
0.521998
-0.0727311
0.744991
-0.190174
0.692304
-0.280843
0.470046
-0.338176
0.241879
-0.364254
0.0653738
-0.361062
-0.067144
-0.328168
-0.185249
-0.263924
-0.312617
-0.170686
-0.446532
-0.0592623
-0.552552
0.0554483
-0.58568
0.158978
-0.521926
0.234551
-0.387749
0.270902
-0.220385
0.265789
-0.0345817
0.219393
0.189079
0.130874
0.464761
0.00683207
0.735621
-0.126294
0.81598
-0.23737
0.625478
-0.312266
0.365623
-0.3522
0.15248
-0.361183
0.000600337
-0.340786
-0.115513
-0.290701
-0.228376
-0.212398
-0.352935
-0.1146
-0.473988
-0.0105219
-0.556033
0.0935642
-0.57069
0.195379
-0.51107
0.284347
-0.400468
0.350566
-0.277999
0.391968
-0.174767
0.410504
-0.0956302
0.407313
-0.0233498
0.380712
0.0713234
0.326625
0.216633
0.240783
0.423463
0.125546
0.652854
0.764097
-0.034375
0.635479
-0.0698168
0.299923
-0.0824651
-0.0327767
-0.0634558
-0.312939
-0.0184822
-0.511755
0.0356803
-0.585644
0.0807309
-0.511664
0.100436
-0.322304
0.0894958
-0.0635231
0.055846
0.241392
0.0115034
0.56634
-0.0353541
0.791848
-0.0874801
0.744429
-0.139155
0.52172
-0.181258
0.283982
-0.208429
0.0925441
-0.217146
-0.0584269
-0.204389
-0.198005
-0.168303
-0.348704
-0.112397
-0.502438
-0.0472793
-0.617669
0.0178625
-0.650822
0.0781523
-0.582215
0.121871
-0.431468
0.138062
-0.236576
0.126052
-0.0225719
0.0921428
0.222988
0.0445531
0.512351
-0.00679751
0.786972
-0.0582812
0.867463
-0.111266
0.678463
-0.156821
0.411178
-0.187811
0.18347
-0.20021
0.0129996
-0.190885
-0.124839
-0.158526
-0.260734
-0.107012
-0.404449
-0.0488895
-0.532111
0.00382589
-0.608749
0.0544656
-0.62133
0.112188
-0.568792
0.170144
-0.458425
0.215277
-0.323132
0.241618
-0.201107
0.249118
-0.103131
0.239078
-0.0133104
0.21255
0.0978513
0.171042
0.258141
0.118151
0.476353
0.0617716
0.709234
0.814483
0.0120009
0.631044
0.000741873
0.311182
-0.0121084
-0.0199265
-0.0131808
-0.311867
-0.00374955
-0.521186
0.00865644
-0.59805
0.0179621
-0.52097
0.0166722
-0.321014
0.0032114
-0.0500625
-0.0108019
0.255405
-0.0102334
0.565772
0.0049309
0.776684
0.00987233
0.739488
-0.00400085
0.535593
-0.0270179
0.307
-0.048755
0.114281
-0.0624319
-0.0447501
-0.064318
-0.196119
-0.0543585
-0.358663
-0.0386844
-0.518112
-0.0268727
-0.629481
-0.0195435
-0.658151
-0.00810498
-0.593654
0.0042575
-0.44383
0.00675315
-0.239072
-0.00356042
-0.0122583
-0.018514
0.237941
-0.0249095
0.518746
-0.0126407
0.774703
0.00485519
0.849967
0.0042901
0.679028
-0.0107108
0.426179
-0.0275453
0.200305
-0.0365246
0.0219788
-0.0318327
-0.129531
-0.0129154
-0.279652
0.0116395
-0.429004
0.0245311
-0.545002
0.0170553
-0.601273
0.00499926
-0.609274
0.0116166
-0.57541
0.0355978
-0.482406
0.060579
-0.348113
0.0752519
-0.21578
0.0765464
-0.104425
0.065346
-0.00211008
0.0444887
0.118709
0.0193514
0.283278
-0.000816208
0.496521
-0.00469485
0.713112
0.802223
0.0470477
0.583902
0.0618985
0.296331
0.0550508
-0.0130789
0.0377915
-0.294608
0.011302
-0.494697
-0.0203452
-0.566403
-0.04696
-0.494355
-0.0648585
-0.303115
-0.0737956
-0.0411255
-0.0645432
0.246152
-0.024229
0.525458
0.0401258
0.712329
0.0921252
0.687489
0.113526
0.514192
0.112258
0.308268
0.101474
0.125065
0.0899616
-0.0332376
0.0809366
-0.187094
0.0703019
-0.348028
0.0467296
-0.49454
0.00149957
-0.584251
-0.0547141
-0.601937
-0.0954274
-0.552941
-0.112301
-0.426957
-0.116562
-0.234811
-0.117251
-0.0115696
-0.108625
0.229315
-0.076534
0.486656
-0.0133682
0.711537
0.0575217
0.779078
0.101
0.63555
0.115447
0.411731
0.115563
0.200189
0.114659
0.0228824
0.120244
-0.135116
0.130809
-0.290216
0.131119
-0.429314
0.0980287
-0.511912
0.0271232
-0.530367
-0.0509759
-0.531175
-0.0966757
-0.52971
-0.105179
-0.473903
-0.0965092
-0.356783
-0.088751
-0.223539
-0.0889391
-0.104237
-0.0969215
0.00587213
-0.108348
0.130135
-0.114824
0.289755
-0.103499
0.485196
-0.0624798
0.672093
0.739838
0.0793432
0.501675
0.120519
0.255156
0.123891
-0.016451
0.0927304
-0.263448
0.0289725
-0.430939
-0.0498929
-0.487538
-0.113741
-0.430507
-0.145792
-0.271065
-0.145397
-0.0415202
-0.111204
0.211958
-0.0370773
0.451331
0.064412
0.610839
0.152978
0.598922
0.205889
0.461281
0.227991
0.286166
0.232328
0.120728
0.228308
-0.0292175
0.218195
-0.176982
0.192983
-0.322816
0.134662
-0.436219
0.0347115
-0.484301
-0.0842214
-0.483004
-0.17572
-0.461442
-0.218909
-0.383768
-0.225313
-0.228407
-0.211653
-0.0252297
-0.177864
0.195526
-0.112581
0.421373
-0.0120543
0.61101
0.096585
0.670438
0.174337
0.557798
0.21534
0.370727
0.233008
0.182521
0.241526
0.0143647
0.24909
-0.14268
0.252238
-0.293364
0.229873
-0.40695
0.155553
-0.437592
0.0309895
-0.405804
-0.101257
-0.398928
-0.191872
-0.439095
-0.229625
-0.43615
-0.235548
-0.35086
-0.23343
-0.225657
-0.233537
-0.10413
-0.236176
0.00851136
-0.235765
0.129724
-0.222039
0.276028
-0.181161
0.444318
-0.103506
0.594437
0.639214
0.112978
0.392386
0.17787
0.190263
0.192073
-0.0306538
0.148319
-0.219694
0.048902
-0.331522
-0.0755707
-0.363065
-0.175312
-0.330765
-0.22058
-0.225796
-0.210203
-0.0518977
-0.153035
0.154791
-0.052241
0.350537
0.0748238
0.483775
0.188985
0.484761
0.267292
0.382974
0.311386
0.242072
0.331907
0.100207
0.336755
-0.034065
0.326693
-0.16692
0.289622
-0.285745
0.203908
-0.350504
0.0636907
-0.344084
-0.0988057
-0.320508
-0.229499
-0.330748
-0.29611
-0.317158
-0.305996
-0.218522
-0.280353
-0.0508726
-0.225399
0.140572
-0.135293
0.331266
-0.010966
0.486683
0.120688
0.538784
0.222012
0.456474
0.284056
0.308683
0.31656
0.150017
0.331286
-0.000361089
0.334545
-0.145938
0.321212
-0.280032
0.268856
-0.354593
0.161263
-0.329998
0.0229504
-0.267491
-0.11328
-0.262698
-0.232777
-0.319598
-0.302598
-0.36633
-0.330783
-0.322675
-0.340601
-0.215839
-0.343697
-0.101034
-0.341273
0.00608687
-0.328386
0.116837
-0.295027
0.24267
-0.22882
0.378111
-0.12379
0.489407
0.511735
0.144015
0.267238
0.223371
0.110907
0.241662
-0.0489458
0.186089
-0.16412
0.0637083
-0.209142
-0.0868804
-0.212476
-0.21002
-0.207626
-0.268397
-0.16742
-0.25536
-0.064934
-0.184808
0.0842381
-0.0685541
0.234284
0.0710702
0.34415
0.198319
0.357512
0.292545
0.288748
0.352513
0.182104
0.38462
0.0680998
0.392028
-0.041473
0.372952
-0.147844
0.316605
-0.229397
0.209861
-0.24376
0.0643951
-0.198618
-0.0765013
-0.179612
-0.214729
-0.192521
-0.305219
-0.226668
-0.333323
-0.190417
-0.311175
-0.0730213
-0.247689
0.0770863
-0.14537
0.228946
-0.0113863
0.3527
0.12922
0.398177
0.24253
0.343165
0.31728
0.233932
0.358154
0.109143
0.370871
-0.0130775
0.355799
-0.130867
0.306775
-0.231007
0.211465
-0.259284
0.0940765
-0.212609
0.00907228
-0.182487
-0.0680798
-0.185546
-0.180592
-0.207085
-0.288266
-0.258656
-0.35564
-0.255301
-0.390921
-0.180557
-0.404487
-0.0874676
-0.400076
0.00167542
-0.376979
0.0937405
-0.328035
0.193726
-0.244008
0.294084
-0.122806
0.368205
0.370063
0.157345
0.146437
0.227673
0.0405794
0.229671
-0.050944
0.161582
-0.096031
0.052093
-0.0996523
-0.0638055
-0.0965779
-0.173114
-0.0983176
-0.244846
-0.0956875
-0.249881
-0.0598999
-0.19036
0.0247171
-0.0796056
0.12353
0.0548375
0.209707
0.179793
0.232557
0.276426
0.192115
0.340133
0.118398
0.371574
0.0366584
0.365892
-0.035791
0.318773
-0.100725
0.229283
-0.139907
0.119763
-0.134241
0.0337175
-0.112572
-0.0276682
-0.118226
-0.109517
-0.110672
-0.20905
-0.127135
-0.276942
-0.122525
-0.286199
-0.0637641
-0.237199
0.0280867
-0.141373
0.13312
-0.0139108
0.225238
0.121419
0.262848
0.233999
0.230586
0.310455
0.157476
0.350396
0.0692012
0.351875
-0.0145561
0.308461
-0.0874527
0.21941
-0.141956
0.105863
-0.145737
0.0305108
-0.137258
0.00257631
-0.154553
-0.0262101
-0.156759
-0.0898897
-0.143406
-0.20085
-0.147696
-0.305459
-0.150693
-0.37166
-0.114356
-0.401324
-0.0578036
-0.399722
7.38848e-05
-0.372283
0.0663015
-0.315962
0.137405
-0.22532
0.203442
-0.102234
0.245119
0.231284
0.125792
0.0633151
0.152644
0.0137272
0.121212
-0.0195124
0.0653209
-0.0401395
0.017425
-0.0517564
-0.0209111
-0.0582418
-0.0664593
-0.0527694
-0.12213
-0.0400166
-0.159044
-0.0229865
-0.143265
0.00893822
-0.0712106
0.0514757
0.0318404
0.106656
0.134487
0.12991
0.2153
0.111302
0.264462
0.0692357
0.278504
0.0226158
0.250234
-0.00752079
0.18183
-0.0323206
0.0984479
-0.0565253
0.0393332
-0.075126
0.0167447
-0.0899838
-0.00634909
-0.0951321
-0.0280512
-0.08897
-0.0825422
-0.0726439
-0.155009
-0.0500583
-0.199096
-0.019677
-0.184947
0.0139374
-0.118821
0.0669942
-0.017571
0.123988
0.0961935
0.149083
0.192579
0.1342
0.255655
0.0944003
0.281802
0.0430545
0.266637
0.000608807
0.206274
-0.0270903
0.120855
-0.0565367
0.0537954
-0.0786779
0.0258564
-0.109319
0.000161292
-0.128858
-0.0257628
-0.130835
-0.054029
-0.115139
-0.115136
-0.086589
-0.201011
-0.0648172
-0.276183
-0.0391844
-0.318237
-0.0157499
-0.325948
0.00778493
-0.30519
0.0455439
-0.254864
0.0870792
-0.173383
0.12196
-0.0676889
0.139425
0.120926
0.0560291
0.0366297
0.055969
0.0137873
0.0426306
-0.00617399
0.0260208
-0.0235297
0.00860803
-0.0343436
-0.0107107
-0.0389231
-0.028435
-0.0350451
-0.0436549
-0.0247967
-0.0577341
-0.00890735
-0.0602761
0.0114803
-0.0401892
0.0313888
0.00920072
0.0572662
0.070579
0.0685321
0.118524
0.0633576
0.139588
0.0481713
0.135399
0.0268045
0.11721
0.0106687
0.092599
-0.00770972
0.0671992
-0.0311255
0.0431527
-0.0510795
0.0192452
-0.0660764
-0.0052181
-0.0706688
-0.0287033
-0.0654847
-0.0520171
-0.0493302
-0.0748296
-0.0272458
-0.0927525
-0.00175402
-0.0976584
0.0188434
-0.0746635
0.0439992
-0.0179079
0.0672323
0.0555818
0.0755934
0.117987
0.0717958
0.152865
0.0595217
0.157078
0.0388419
0.139957
0.0177292
0.112977
-0.00011014
0.0845831
-0.0281425
0.0602672
-0.0543621
0.0317424
-0.0807937
-0.0012832
-0.0958321
-0.0348511
-0.0972674
-0.064862
-0.0851284
-0.090693
-0.0607581
-0.119996
-0.0355142
-0.149239
-0.00994171
-0.172664
0.00767522
-0.186427
0.0215481
-0.181353
0.0404699
-0.150978
0.0567037
-0.096402
0.0673845
-0.0286983
0.0717212
0.0628844
0.0438183
0.0202714
0.0463252
0.0112803
0.0395399
0.000611341
0.0259916
-0.0099814
0.00916182
-0.0175139
-0.00935759
-0.0204037
-0.0263984
-0.0180043
-0.0401902
-0.0110049
-0.0482475
-0.000850023
-0.0467945
0.0100272
-0.0342363
0.0188307
-0.00385057
0.0268805
0.0343794
0.0303019
0.0683198
0.0294173
0.0918384
0.0246527
0.101721
0.0169221
0.102242
0.0101474
0.0941093
0.000423271
0.0762085
-0.0132247
0.0524393
-0.0273103
0.023474
-0.037111
-0.00693468
-0.0402601
-0.0354169
-0.0370025
-0.057996
-0.0267511
-0.0735227
-0.0117191
-0.0782137
0.0029369
-0.0732103
0.01384
-0.0521031
0.0228919
-0.0154476
0.0305769
0.0267012
0.0334446
0.0656998
0.0327973
0.0961999
0.0290216
0.113511
0.0215307
0.117971
0.0132692
0.113947
0.00391348
0.0973326
-0.0115277
0.0727198
-0.0297493
0.0381601
-0.046234
-0.00219027
-0.0554817
-0.0431855
-0.0562722
-0.0796909
-0.048623
-0.107037
-0.0334118
-0.126719
-0.0158321
-0.135735
-0.000926386
-0.136573
0.00851386
-0.129764
0.0147385
-0.111527
0.022233
-0.0829893
0.0281663
-0.0468963
0.0312914
-0.0068849
0.0317098
0.0285396
0.0316253
0.0403142
0.0388892
0.0279628
0.0104544
-0.00958873
-0.0276635
-0.0397843
-0.0429868
-0.0361598
-0.0206356
0.00277938
0.0297881
0.0558662
0.0771713
0.0911005
0.0983155
0.0966958
0.0835267
0.0589108
0.0264986
-0.00830659
-0.0402258
-0.0635616
-0.0742525
-0.0721295
-0.0597375
-0.0383579
-0.00943341
0.0224896
0.0536955
0.0809437
0.100924
0.112958
0.116249
0.1064
0.0815492
0.0432603
-0.00265947
-0.0493367
-0.0899064
-0.118306
-0.132548
-0.13445
-0.127996
-0.115486
-0.0958346
-0.0702776
-0.0414264
-0.0120923
)
;

boundaryField
{
    top
    {
        type            calculated;
        value           nonuniform List<scalar> 
51
(
0.00249637
0.00259149
0.00203636
0.000945024
-5.5367e-06
-0.000360603
7.04878e-05
0.00111582
0.00235246
0.00320022
0.00330646
0.00346558
0.00329319
0.00333912
0.00334761
0.0029929
0.00293228
0.002043
-5.5617e-05
-0.00269435
-0.00469883
-0.00545495
-0.00508323
-0.00341532
-0.00102821
0.000813943
0.00144803
0.00151236
0.00165243
0.0015216
0.00159139
0.00177337
0.00155036
0.00123484
0.000623323
-0.00167892
-0.00489863
-0.00794521
-0.00956202
-0.00959485
-0.00805339
-0.00501217
-0.00159035
0.000976174
0.00205961
0.00222858
0.00258139
0.00260923
0.0024403
0.00237572
0.00259698
)
;
    }
    bottom
    {
        type            calculated;
        value           uniform 0;
    }
    frontAndBack
    {
        type            empty;
        value           nonuniform 0();
    }
    left_cyc
    {
        type            cyclic;
        value           nonuniform List<scalar> 
15
(
0.0804886
0.0689158
0.0287234
-0.00127892
-0.0113851
-0.00756604
9.50086e-05
0.00288308
-0.00368868
-0.0188665
-0.0365446
-0.0426697
-0.029344
-0.02746
-0.0138503
)
;
    }
    right_cyc
    {
        type            cyclic;
        value           nonuniform List<scalar> 
15
(
-0.0804886
-0.0689158
-0.0287234
0.00127892
0.0113851
0.00756604
-9.50086e-05
-0.00288308
0.00368868
0.0188665
0.0365446
0.0426697
0.029344
0.02746
0.0138503
)
;
    }
}


// ************************************************************************* //
