/*--------------------------------*- C++ -*----------------------------------*\
| =========                 |                                                 |
| \\      /  F ield         | OpenFOAM: The Open Source CFD Toolbox           |
|  \\    /   O peration     | Version:  2.3.0                                 |
|   \\  /    A nd           | Web:      www.OpenFOAM.org                      |
|    \\/     M anipulation  |                                                 |
\*---------------------------------------------------------------------------*/
FoamFile
{
    version     2.0;
    format      ascii;
    class       volScalarField;
    location    "1000";
    object      T;
}
// * * * * * * * * * * * * * * * * * * * * * * * * * * * * * * * * * * * * * //

dimensions      [0 0 0 1 0 0 0];

internalField   nonuniform List<scalar> 
765
(
31.5643
31.6807
31.886
32.1685
32.5184
32.927
33.378
33.8076
34.2202
34.6194
34.9875
35.2886
35.4716
35.4779
35.3033
35.0053
34.6353
34.2293
33.8043
33.3504
32.8906
32.4838
32.1481
31.8949
31.7363
31.6872
31.7606
31.9401
32.2114
32.5628
32.9827
33.4501
33.8935
34.3147
34.7155
35.0743
35.3515
35.4933
35.4461
35.234
34.9155
34.5385
34.1358
33.7205
33.2814
32.8375
32.4403
32.1036
31.8363
31.6484
31.5523
23.2957
23.5746
24.0649
24.738
25.5721
26.5498
27.6519
28.8456
30.0391
31.1905
32.2383
33.0907
33.6199
33.6395
33.1339
32.289
31.2355
30.0664
28.8466
27.6205
26.5066
25.5386
24.7415
24.1392
23.7605
23.6429
23.8189
24.2469
24.8919
25.7264
26.7262
27.864
29.0966
30.3123
31.4655
32.4841
33.272
33.6852
33.5446
32.9352
32.0345
30.9584
29.7955
28.6012
27.4153
26.3353
25.3857
24.5834
23.9462
23.4973
23.2667
17.3609
17.7403
18.4045
19.3111
20.4286
21.7369
23.2236
24.8756
26.6295
28.3896
30.009
31.3186
32.1269
32.158
31.3855
30.0873
28.4597
26.6756
24.8908
23.2122
21.7134
20.4172
19.3469
18.5338
18.0204
17.8609
18.0996
18.6796
19.5495
20.6691
22.0087
23.5455
25.2539
27.0495
28.816
30.3888
31.5966
32.2278
32.0113
31.0803
29.6933
28.0305
26.2615
24.5226
22.9007
21.4492
20.1791
19.1033
18.2441
17.6353
17.3215
13.5629
14.0136
14.798
15.8551
17.1389
18.6244
20.3074
22.1981
24.2651
26.3835
28.3667
29.9817
30.9635
31.0005
30.0628
28.4624
26.4684
24.3211
22.2195
20.3038
18.6007
17.1185
15.8791
14.9256
14.3187
14.1306
14.4126
15.0976
16.1153
17.4082
18.9378
20.6859
22.6471
24.7703
26.9033
28.8358
30.3213
31.0837
30.8246
29.6886
27.9765
25.9467
23.8249
21.7846
19.9395
18.2982
16.8536
15.6141
14.6094
13.8891
13.5164
11.2829
11.8059
12.71
13.9067
15.3253
16.9266
18.7085
20.7018
22.8887
25.1447
27.2736
29.0118
30.053
30.0893
29.0939
27.37
25.2267
22.9358
20.7056
18.6765
16.8552
15.2375
13.8528
12.7661
12.0673
11.8516
12.1757
12.9635
14.1193
15.5571
17.2189
19.083
21.1604
23.415
25.6936
27.7731
29.3713
30.1759
29.9084
28.6967
26.8529
24.6772
22.4209
20.2646
18.3202
16.5776
15.013
13.6362
12.4938
11.6617
11.2294
9.90754
10.5181
11.568
12.9328
14.5062
16.2238
18.0737
20.0938
22.2715
24.503
26.604
28.3105
29.3149
29.3449
28.3798
26.6826
24.5612
22.2853
20.0488
17.9691
16.0509
14.2907
12.7384
11.4937
10.6851
10.4369
10.8107
11.7213
13.0406
14.6433
16.4392
18.3896
20.5076
22.7629
25.0243
27.0811
28.6512
29.4274
29.1781
28.0024
26.1889
24.0408
21.8074
19.6555
17.6753
15.8542
14.164
12.6272
11.3183
10.3498
9.84563
8.99749
9.71123
10.9342
12.5011
14.2635
16.1234
18.0457
20.0544
22.1455
24.2482
26.2051
27.7759
28.6825
28.7026
27.8218
26.2502
24.263
22.1022
19.9301
17.8279
15.8035
13.8734
12.1218
10.6906
9.75376
9.4677
9.89931
10.9538
12.4661
14.2654
16.2208
18.2607
20.3809
22.5588
24.699
26.6211
28.0711
28.7772
28.561
27.4939
25.8198
23.8147
21.7039
19.6263
17.6386
15.7288
13.8845
12.153
10.6446
9.5145
8.92582
8.28671
9.11168
10.5193
12.3028
14.2725
16.2963
18.3069
20.2872
22.2531
24.1687
25.9142
27.2941
28.0808
28.0902
27.3103
25.914
24.1238
22.1324
20.0594
17.946
15.8021
13.6836
11.719
10.0903
9.01631
8.68876
9.18332
10.391
12.1079
14.1182
16.2526
18.3925
20.4974
22.5582
24.5195
26.245
27.5307
28.1572
27.9761
27.0476
25.5728
23.7773
21.8436
19.8739
17.889
15.8715
13.8526
11.909
10.1871
8.88444
8.20424
7.62655
8.56169
10.1399
12.1179
14.2737
16.4414
18.5209
20.4648
22.3057
24.0337
25.5668
26.7579
27.4293
27.4275
26.7415
25.515
23.9189
22.0946
20.1202
18.0075
15.7672
13.4918
11.3402
9.53294
8.32693
7.95454
8.51541
9.8682
11.7687
13.9637
16.2443
18.4652
20.5456
22.4902
24.2748
25.8068
26.9347
27.4879
27.3404
26.5462
25.2692
23.6848
21.9282
20.0658
18.0937
15.9918
13.8172
11.6832
9.76907
8.30515
7.53208
6.91465
7.92943
9.62025
11.722
13.9982
16.2654
18.3976
20.3155
22.0609
23.636
24.9893
26.0177
26.5882
26.5744
25.9666
24.8821
23.4459
21.7542
19.8539
17.7433
15.4368
13.0589
10.7906
8.87001
7.57392
7.16728
7.77763
9.22758
11.2436
13.5541
15.9322
18.2091
20.2701
22.1263
23.7694
25.1413
26.1369
26.6298
26.5131
25.836
24.7293
23.3223
21.7084
19.927
17.9642
15.7982
13.518
11.2617
9.22466
7.65254
6.81048
6.08318
7.11866
8.8259
10.9388
13.227
15.508
17.6435
19.5393
21.2203
22.6877
23.9082
24.8119
25.3027
25.2767
24.726
23.7457
22.4237
20.824
18.9772
16.8865
14.5786
12.1961
9.92394
7.99505
6.68279
6.26525
6.88999
8.35478
10.3776
12.6919
15.0748
17.351
19.3855
21.1796
22.7242
23.9809
24.8794
25.3287
25.2388
24.6535
23.6763
22.3994
20.8855
19.1598
17.215
15.04
12.745
10.4767
8.42773
6.83749
5.97534
5.08949
6.06288
7.65457
9.62137
11.7612
13.9141
15.9522
17.7824
19.3954
20.7774
21.8995
22.7114
23.1421
23.1048
22.5948
21.69
20.4543
18.9345
17.1607
15.1564
12.9702
10.7378
8.62372
6.83112
5.60493
5.21019
5.7992
7.16547
9.04456
11.1998
13.4367
15.5979
17.5523
19.2737
20.7366
21.9076
22.736
23.1548
23.0867
22.5701
21.6884
20.5086
19.0767
17.4178
15.5446
13.4721
11.31
9.19136
7.28417
5.79965
4.98686
3.90634
4.7183
6.03648
7.66356
9.44453
11.262
13.0247
14.6629
16.1256
17.3777
18.3849
19.1039
19.4787
19.4349
18.9712
18.1542
17.0351
15.6566
14.0585
12.2913
10.4256
8.55809
6.80754
5.3265
4.30878
3.97792
4.47045
5.6026
7.1545
8.94099
10.8174
12.6706
14.4074
15.9631
17.2907
18.3506
19.0988
19.4817
19.431
18.9795
18.1964
17.135
15.8367
14.3351
12.6684
10.8866
9.06777
7.30764
5.73028
4.49949
3.81985
2.51832
3.0665
3.94891
5.0332
6.22292
7.45399
8.68841
9.90378
11.0192
11.9873
12.77
13.3281
13.6167
13.5772
13.2107
12.5708
11.7003
10.6399
9.43542
8.15305
6.8694
5.61536
4.44934
3.4615
2.77808
2.55384
2.88696
3.64576
4.67963
5.86975
7.13278
8.41592
9.69354
10.8736
11.8982
12.7242
13.311
13.6148
13.5802
13.2316
12.6234
11.7992
10.7975
9.65772
8.43256
7.19679
5.97027
4.79608
3.74445
2.91926
2.4594
0.917093
1.11602
1.43099
1.81106
2.22237
2.64896
3.09596
3.58712
4.05712
4.47564
4.81979
5.06754
5.1959
5.17748
5.01341
4.72963
4.34896
3.89496
3.39544
2.89548
2.44186
2.00888
1.60364
1.25459
1.0089
0.927244
1.04827
1.3201
1.68391
2.09608
2.53189
2.9886
3.49972
3.99373
4.43481
4.7973
5.05814
5.19442
5.17972
5.02461
4.75503
4.39368
3.96264
3.48584
2.99841
2.55852
2.13506
1.72842
1.35849
1.06285
0.895486
)
;

boundaryField
{
    top
    {
        type            fixedValue;
        value           uniform 0;
    }
    bottom
    {
        type            fixedValue;
        value           uniform 36.5;
    }
    frontAndBack
    {
        type            empty;
    }
    left_cyc
    {
        type            cyclic;
    }
    right_cyc
    {
        type            cyclic;
    }
}


// ************************************************************************* //
