/*--------------------------------*- C++ -*----------------------------------*\
| =========                 |                                                 |
| \\      /  F ield         | OpenFOAM: The Open Source CFD Toolbox           |
|  \\    /   O peration     | Version:  2.3.0                                 |
|   \\  /    A nd           | Web:      www.OpenFOAM.org                      |
|    \\/     M anipulation  |                                                 |
\*---------------------------------------------------------------------------*/
FoamFile
{
    version     2.0;
    format      ascii;
    class       volVectorField;
    location    "1000";
    object      U;
}
// * * * * * * * * * * * * * * * * * * * * * * * * * * * * * * * * * * * * * //

dimensions      [0 1 -1 0 0 0 0];

internalField   nonuniform List<vector> 
3060
(
(0.000797502 0 -0.00027536)
(0.00208539 0 -0.000269764)
(0.00333347 0 -0.000258285)
(0.00451717 0 -0.000241979)
(0.00561523 0 -0.000221447)
(0.00660895 0 -0.000197286)
(0.00748243 0 -0.000170121)
(0.00822292 0 -0.000140631)
(0.00882097 0 -0.000109537)
(0.0092706 0 -7.7593e-05)
(0.00956934 0 -4.55708e-05)
(0.00971824 0 -1.42419e-05)
(0.00972179 0 1.56248e-05)
(0.00958763 0 4.34059e-05)
(0.00932575 0 6.87754e-05)
(0.0089478 0 9.14581e-05)
(0.00846683 0 0.00011122)
(0.00789698 0 0.000127884)
(0.00725315 0 0.000141338)
(0.00655066 0 0.000151541)
(0.00580488 0 0.000158519)
(0.00503094 0 0.000162366)
(0.0042434 0 0.000163235)
(0.00345604 0 0.000161334)
(0.00268157 0 0.000156903)
(0.00193151 0 0.000150219)
(0.00121602 0 0.000141584)
(0.000543849 0 0.000131312)
(-7.77459e-05 0 0.000119719)
(-0.000642982 0 0.000107111)
(-0.00114753 0 9.37935e-05)
(-0.00158845 0 8.00532e-05)
(-0.00196408 0 6.61532e-05)
(-0.00227398 0 5.23273e-05)
(-0.00251874 0 3.87795e-05)
(-0.00269989 0 2.56825e-05)
(-0.00281967 0 1.31694e-05)
(-0.00288094 0 1.32693e-06)
(-0.00288695 0 -9.80684e-06)
(-0.00284117 0 -2.02118e-05)
(-0.00274739 0 -2.97889e-05)
(-0.00260971 0 -3.84678e-05)
(-0.00243246 0 -4.62127e-05)
(-0.00222008 0 -5.30139e-05)
(-0.00197705 0 -5.88774e-05)
(-0.0017078 0 -6.3819e-05)
(-0.00141669 0 -6.78604e-05)
(-0.00110801 0 -7.10265e-05)
(-0.000785936 0 -7.33423e-05)
(-0.000454565 0 -7.48286e-05)
(-0.000117923 0 -7.54995e-05)
(0.000220011 0 -7.53612e-05)
(0.000555276 0 -7.44123e-05)
(0.000883893 0 -7.26441e-05)
(0.00120184 0 -7.00425e-05)
(0.001505 0 -6.65882e-05)
(0.00178922 0 -6.22584e-05)
(0.00205021 0 -5.70296e-05)
(0.00228363 0 -5.08812e-05)
(0.00248506 0 -4.38008e-05)
(0.00265011 0 -3.5789e-05)
(0.0027744 0 -2.68657e-05)
(0.00285371 0 -1.70771e-05)
(0.00288408 0 -6.49957e-06)
(0.00286187 0 4.78339e-06)
(0.00278371 0 1.67604e-05)
(0.00264651 0 2.93779e-05)
(0.00244761 0 4.25351e-05)
(0.00218499 0 5.60897e-05)
(0.00185741 0 6.98628e-05)
(0.00146459 0 8.36426e-05)
(0.00100729 0 9.71879e-05)
(0.000487509 0 0.000110232)
(-9.14503e-05 0 0.000122488)
(-0.000724895 0 0.000133655)
(-0.00140669 0 0.000143426)
(-0.00212922 0 0.000151491)
(-0.00288343 0 0.000157544)
(-0.0036589 0 0.000161292)
(-0.00444388 0 0.000162469)
(-0.00522549 0 0.00016084)
(-0.00598985 0 0.000156216)
(-0.00672238 0 0.000148462)
(-0.00740798 0 0.000137501)
(-0.0080314 0 0.000123323)
(-0.00857754 0 0.000105988)
(-0.00903178 0 8.56213e-05)
(-0.00938036 0 6.24148e-05)
(-0.00961063 0 3.66115e-05)
(-0.00971146 0 8.49246e-06)
(-0.00967339 0 -2.16075e-05)
(-0.00948949 0 -5.29862e-05)
(-0.00915611 0 -8.48744e-05)
(-0.008673 0 -0.000116498)
(-0.00804335 0 -0.000147094)
(-0.00727389 0 -0.000175932)
(-0.00637474 0 -0.000202312)
(-0.00535931 0 -0.000225561)
(-0.00424404 0 -0.000245022)
(-0.0030481 0 -0.000260084)
(-0.00179317 0 -0.000270247)
(-0.000503432 0 -0.000275045)
(0.00167496 0 -0.00241637)
(0.00437071 0 -0.00236714)
(0.00698493 0 -0.0022705)
(0.00946803 0 -0.00213172)
(0.0117757 0 -0.00195567)
(0.0138687 0 -0.00174746)
(0.0157139 0 -0.00151261)
(0.0172845 0 -0.0012571)
(0.0185606 0 -0.000987197)
(0.0195295 0 -0.000709396)
(0.0201855 0 -0.000430193)
(0.0205301 0 -0.000155976)
(0.0205718 0 0.000107179)
(0.020325 0 0.000354107)
(0.0198093 0 0.000581127)
(0.0190482 0 0.000785293)
(0.0180686 0 0.000964246)
(0.0168997 0 0.00111624)
(0.0155723 0 0.00124019)
(0.0141184 0 0.00133561)
(0.0125699 0 0.00140268)
(0.0109585 0 0.00144213)
(0.00931471 0 0.00145522)
(0.00766741 0 0.00144367)
(0.00604338 0 0.00140955)
(0.00446692 0 0.00135523)
(0.00295959 0 0.00128328)
(0.00153998 0 0.0011964)
(0.000223637 0 0.00109733)
(-0.000976955 0 0.000988789)
(-0.00205233 0 0.000873421)
(-0.0029959 0 0.000753721)
(-0.00380381 0 0.000632001)
(-0.00447467 0 0.000510346)
(-0.00500935 0 0.000390588)
(-0.0054106 0 0.000274278)
(-0.00568283 0 0.000162667)
(-0.00583173 0 5.66927e-05)
(-0.00586399 0 -4.30097e-05)
(-0.00578701 0 -0.000135977)
(-0.00560881 0 -0.000221582)
(-0.00533797 0 -0.000299335)
(-0.00498351 0 -0.000368941)
(-0.00455468 0 -0.000430272)
(-0.00406078 0 -0.000483326)
(-0.00351113 0 -0.000528187)
(-0.00291491 0 -0.000564996)
(-0.00228118 0 -0.000593919)
(-0.00161882 0 -0.000615121)
(-0.000936559 0 -0.000628746)
(-0.000242997 0 -0.000634896)
(0.00045335 0 -0.000633622)
(0.00114399 0 -0.000624923)
(0.00182042 0 -0.000608742)
(0.00247402 0 -0.000584974)
(0.00309608 0 -0.000553482)
(0.00367772 0 -0.00051411)
(0.00420992 0 -0.000466709)
(0.00468353 0 -0.00041116)
(0.00508933 0 -0.000347411)
(0.00541811 0 -0.000275507)
(0.0056608 0 -0.000195634)
(0.0058086 0 -0.000108144)
(0.00585318 0 -1.35688e-05)
(0.00578681 0 8.75071e-05)
(0.00560239 0 0.000194608)
(0.00529357 0 0.000307022)
(0.0048551 0 0.00042373)
(0.00428309 0 0.000543407)
(0.00357536 0 0.000664442)
(0.00273169 0 0.000784951)
(0.00175415 0 0.000902806)
(0.000647306 0 0.00101567)
(-0.000581505 0 0.00112102)
(-0.00192207 0 0.00121625)
(-0.00336116 0 0.00129864)
(-0.00488252 0 0.00136551)
(-0.00646692 0 0.00141421)
(-0.00809225 0 0.00144225)
(-0.00973375 0 0.00144735)
(-0.0113643 0 0.00142755)
(-0.0129548 0 0.00138127)
(-0.0144748 0 0.00130739)
(-0.0158926 0 0.00120532)
(-0.0171765 0 0.00107506)
(-0.0182952 0 0.000917212)
(-0.0192182 0 0.000733018)
(-0.0199173 0 0.000524354)
(-0.0203665 0 0.000293695)
(-0.0205434 0 4.41037e-05)
(-0.0204296 0 -0.000220593)
(-0.0200121 0 -0.000494911)
(-0.0192842 0 -0.000772722)
(-0.0182458 0 -0.00104766)
(-0.0169042 0 -0.0013133)
(-0.0152735 0 -0.00156327)
(-0.013375 0 -0.00179143)
(-0.0112367 0 -0.00199189)
(-0.00889279 0 -0.00215921)
(-0.0063831 0 -0.00228854)
(-0.00375241 0 -0.00237578)
(-0.0010497 0 -0.00241781)
(0.00199129 0 -0.00556254)
(0.0051876 0 -0.00544949)
(0.00828904 0 -0.00523073)
(0.0112385 0 -0.00491591)
(0.013984 0 -0.0045155)
(0.0164792 0 -0.004041)
(0.0186849 0 -0.00350507)
(0.0205695 0 -0.00292136)
(0.0221091 0 -0.00230426)
(0.0232884 0 -0.00166847)
(0.0241003 0 -0.00102867)
(0.0245458 0 -0.000399134)
(0.0246337 0 0.000206718)
(0.0243796 0 0.000777172)
(0.0238056 0 0.0013032)
(0.0229385 0 0.00177752)
(0.0218094 0 0.00219439)
(0.0204525 0 0.00254959)
(0.018904 0 0.00284046)
(0.0172014 0 0.00306582)
(0.0153825 0 0.00322594)
(0.0134847 0 0.00332243)
(0.0115441 0 0.0033581)
(0.0095951 0 0.00333679)
(0.00766946 0 0.00326321)
(0.00579623 0 0.00314273)
(0.00400122 0 0.00298121)
(0.00230677 0 0.00278482)
(0.000731692 0 0.00255983)
(-0.000708852 0 0.00231248)
(-0.00200323 0 0.00204882)
(-0.00314321 0 0.00177459)
(-0.00412378 0 0.00149512)
(-0.00494286 0 0.00121523)
(-0.00560103 0 0.000939156)
(-0.0061012 0 0.000670529)
(-0.00644822 0 0.000412322)
(-0.00664858 0 0.000166862)
(-0.00671008 0 -6.41411e-05)
(-0.00664155 0 -0.000279428)
(-0.00645255 0 -0.000477689)
(-0.00615326 0 -0.000657905)
(-0.00575427 0 -0.000819426)
(-0.00526648 0 -0.000961931)
(-0.00470088 0 -0.00108537)
(-0.0040685 0 -0.00118989)
(-0.00338026 0 -0.00127575)
(-0.00264695 0 -0.0013433)
(-0.0018792 0 -0.00139286)
(-0.00108748 0 -0.00142473)
(-0.000282139 0 -0.00143912)
(0.000526572 0 -0.00143616)
(0.00132843 0 -0.00141582)
(0.00211317 0 -0.001378)
(0.00287047 0 -0.00132249)
(0.00358985 0 -0.001249)
(0.00426072 0 -0.00115722)
(0.00487231 0 -0.00104684)
(0.00541377 0 -0.000917667)
(0.00587419 0 -0.000769617)
(0.00624269 0 -0.000602837)
(0.00650857 0 -0.000417752)
(0.00666148 0 -0.00021513)
(0.00669155 0 3.92169e-06)
(0.00658952 0 0.000238134)
(0.00634696 0 0.000486149)
(0.00595653 0 0.000746107)
(0.00541229 0 0.00101553)
(0.00470999 0 0.00129128)
(0.00384743 0 0.00156961)
(0.00282478 0 0.00184615)
(0.00164493 0 0.002116)
(0.000313749 0 0.00237376)
(-0.00115967 0 0.00261369)
(-0.00276279 0 0.00282973)
(-0.00447959 0 0.00301571)
(-0.00629044 0 0.00316544)
(-0.00817224 0 0.0032729)
(-0.0100986 0 0.00333242)
(-0.0120399 0 0.00333884)
(-0.0139639 0 0.00328771)
(-0.015836 0 0.0031755)
(-0.0176202 0 0.00299972)
(-0.0192792 0 0.00275911)
(-0.0207754 0 0.00245374)
(-0.022072 0 0.00208514)
(-0.0231334 0 0.0016563)
(-0.0239265 0 0.00117176)
(-0.0244214 0 0.000637562)
(-0.0245924 0 6.12939e-05)
(-0.0244191 0 -0.000547664)
(-0.0238877 0 -0.00117713)
(-0.022991 0 -0.00181355)
(-0.0217298 0 -0.00244271)
(-0.0201131 0 -0.00305007)
(-0.0181578 0 -0.00362117)
(-0.0158893 0 -0.00414193)
(-0.0133405 0 -0.00459899)
(-0.0105517 0 -0.00498007)
(-0.00756984 0 -0.00527442)
(-0.00444702 0 -0.0054729)
(-0.00124017 0 -0.00556861)
(0.0019208 0 -0.00887124)
(0.00499642 0 -0.00869159)
(0.00798261 0 -0.008347)
(0.010826 0 -0.00785071)
(0.0134772 0 -0.00721851)
(0.0158924 0 -0.0064684)
(0.018034 0 -0.00562039)
(0.0198717 0 -0.0046961)
(0.0213825 0 -0.00371823)
(0.0225513 0 -0.00270992)
(0.0233707 0 -0.00169419)
(0.0238407 0 -0.000693291)
(0.0239687 0 0.000271959)
(0.0237684 0 0.0011831)
(0.0232596 0 0.00202522)
(0.0224671 0 0.00278621)
(0.0214198 0 0.00345654)
(0.02015 0 0.00402925)
(0.0186919 0 0.00449987)
(0.0170811 0 0.00486639)
(0.0153537 0 0.00512909)
(0.0135454 0 0.00529041)
(0.011691 0 0.00535469)
(0.00982336 0 0.00532793)
(0.0079733 0 0.00521752)
(0.00616889 0 0.00503193)
(0.00443522 0 0.00478041)
(0.00279412 0 0.0044727)
(0.00126403 0 0.00411874)
(-0.000140023 0 0.00372844)
(-0.00140638 0 0.00331142)
(-0.00252664 0 0.00287681)
(-0.0034955 0 0.00243309)
(-0.00431046 0 0.00198797)
(-0.00497162 0 0.00154824)
(-0.00548133 0 0.00111976)
(-0.00584386 0 0.000707386)
(-0.00606517 0 0.000315003)
(-0.00615254 0 -5.44135e-05)
(-0.0061144 0 -0.000398638)
(-0.00595992 0 -0.000715696)
(-0.00569881 0 -0.00100406)
(-0.00534121 0 -0.00126272)
(-0.0048975 0 -0.00149114)
(-0.00437824 0 -0.0016892)
(-0.00379402 0 -0.00185706)
(-0.00315538 0 -0.00199509)
(-0.00247277 0 -0.00210375)
(-0.00175651 0 -0.00218354)
(-0.00101681 0 -0.00223488)
(-0.000263763 0 -0.00225808)
(0.000492594 0 -0.00225331)
(0.00124226 0 -0.00222058)
(0.0019752 0 -0.00215971)
(0.00268134 0 -0.00207039)
(0.00335047 0 -0.00195222)
(0.00397231 0 -0.00180474)
(0.00453645 0 -0.00162756)
(0.00503241 0 -0.00142038)
(0.00544971 0 -0.00118315)
(0.00577795 0 -0.000916137)
(0.00600689 0 -0.000620031)
(0.00612663 0 -0.000296003)
(0.00612774 0 5.42795e-05)
(0.00600134 0 0.000428831)
(0.00573944 0 0.000825234)
(0.00533521 0 0.00124029)
(0.00478326 0 0.0016699)
(0.00407988 0 0.00210896)
(0.00322342 0 0.00255142)
(0.00221452 0 0.0029903)
(0.00105644 0 0.00341777)
(-0.000244681 0 0.00382525)
(-0.00167962 0 0.00420356)
(-0.00323587 0 0.00454313)
(-0.00489759 0 0.00483412)
(-0.00664556 0 0.00506677)
(-0.00845723 0 0.00523153)
(-0.0103069 0 0.00531947)
(-0.0121661 0 0.00532246)
(-0.0140035 0 0.00523354)
(-0.0157861 0 0.00504719)
(-0.0174792 0 0.00475956)
(-0.0190471 0 0.00436879)
(-0.0204541 0 0.00387514)
(-0.0216652 0 0.00328118)
(-0.0226467 0 0.0025919)
(-0.0233677 0 0.00181481)
(-0.0238 0 0.000959936)
(-0.0239204 0 3.98995e-05)
(-0.0237104 0 -0.000929817)
(-0.023158 0 -0.00193026)
(-0.0222576 0 -0.00294045)
(-0.0210106 0 -0.00393817)
(-0.0194261 0 -0.00490063)
(-0.0175208 0 -0.00580502)
(-0.015319 0 -0.00662913)
(-0.0128523 0 -0.0073519)
(-0.010159 0 -0.00795415)
(-0.00728373 0 -0.008419)
(-0.0042758 0 -0.0087322)
(-0.0011888 0 -0.00888332)
(0.001685 0 -0.0118351)
(0.00437653 0 -0.0115968)
(0.00699172 0 -0.0111425)
(0.00948524 0 -0.0104879)
(0.0118149 0 -0.00965305)
(0.013943 0 -0.00866158)
(0.0158372 0 -0.00753977)
(0.017471 0 -0.0063161)
(0.0188242 0 -0.00502042)
(0.0198831 0 -0.00368314)
(0.0206407 0 -0.00233446)
(0.0210961 0 -0.00100353)
(0.0212546 0 0.000282421)
(0.021127 0 0.00149902)
(0.0207292 0 0.00262594)
(0.0200818 0 0.00364657)
(0.019209 0 0.00454779)
(0.0181381 0 0.00531997)
(0.0168982 0 0.0059569)
(0.0155199 0 0.00645559)
(0.0140343 0 0.00681622)
(0.0124723 0 0.00704179)
(0.010864 0 0.0071379)
(0.00923822 0 0.00711235)
(0.00762198 0 0.00697482)
(0.00604002 0 0.00673644)
(0.00451457 0 0.00640943)
(0.00306512 0 0.00600666)
(0.00170829 0 0.0055413)
(0.000457748 0 0.00502651)
(-0.00067573 0 0.00447505)
(-0.00168419 0 0.00389909)
(-0.00256235 0 0.00330997)
(-0.00330743 0 0.00271796)
(-0.0039189 0 0.00213221)
(-0.00439827 0 0.00156063)
(-0.00474881 0 0.00100982)
(-0.00497531 0 0.00048517)
(-0.00508383 0 -9.11392e-06)
(-0.0050815 0 -0.000469819)
(-0.00497621 0 -0.000894355)
(-0.00477636 0 -0.00128072)
(-0.00449075 0 -0.00162757)
(-0.00412843 0 -0.00193415)
(-0.00369867 0 -0.00220022)
(-0.00321077 0 -0.00242593)
(-0.00267407 0 -0.00261168)
(-0.00209787 0 -0.00275803)
(-0.00149138 0 -0.00286555)
(-0.000863759 0 -0.00293478)
(-0.000224095 0 -0.00296609)
(0.000418575 0 -0.00295969)
(0.00105523 0 -0.00291559)
(0.00167683 0 -0.00283357)
(0.00227432 0 -0.00271328)
(0.00283854 0 -0.0025542)
(0.00336033 0 -0.00235582)
(0.00383042 0 -0.00211767)
(0.00423957 0 -0.00183945)
(0.00457854 0 -0.00152115)
(0.00483823 0 -0.0011632)
(0.00500973 0 -0.000766524)
(0.00508443 0 -0.00033269)
(0.00505418 0 0.000136125)
(0.0049114 0 0.000637219)
(0.00464934 0 0.00116713)
(0.00426235 0 0.00172138)
(0.00374615 0 0.00229428)
(0.003098 0 0.00287893)
(0.002317 0 0.00346717)
(0.00140431 0 0.00404964)
(0.000363403 0 0.00461584)
(-0.000799732 0 0.00515436)
(-0.00207642 0 0.00565299)
(-0.00345516 0 0.00609897)
(-0.00492158 0 0.00647929)
(-0.0064584 0 0.00678098)
(-0.00804555 0 0.00699147)
(-0.00966028 0 0.00709896)
(-0.0112774 0 0.00709277)
(-0.0128697 0 0.0069638)
(-0.0144082 0 0.00670488)
(-0.0158627 0 0.00631109)
(-0.0172025 0 0.00578016)
(-0.0183969 0 0.00511267)
(-0.0194157 0 0.00431232)
(-0.0202305 0 0.00338607)
(-0.0208149 0 0.00234427)
(-0.0211457 0 0.00120071)
(-0.0212034 0 -2.73008e-05)
(-0.0209734 0 -0.00131871)
(-0.0204463 0 -0.00264868)
(-0.0196182 0 -0.0039898)
(-0.0184913 0 -0.00531296)
(-0.017074 0 -0.00658821)
(-0.0153814 0 -0.00778558)
(-0.0134347 0 -0.00887584)
(-0.0112613 0 -0.0098314)
(-0.00889458 0 -0.010627)
(-0.0063726 0 -0.0112406)
(-0.00373784 0 -0.0116537)
(-0.00103593 0 -0.011853)
(0.00144804 0 -0.0142699)
(0.00375516 0 -0.0139847)
(0.00599875 0 -0.0134428)
(0.00814125 0 -0.0126619)
(0.0101476 0 -0.0116653)
(0.0119862 0 -0.0104808)
(0.0136299 0 -0.00913958)
(0.015056 0 -0.00767554)
(0.016247 0 -0.00612408)
(0.017191 0 -0.00452133)
(0.0178811 0 -0.00290316)
(0.0183156 0 -0.00130416)
(0.0184981 0 0.00024331)
(0.0184365 0 0.00171012)
(0.0181433 0 0.00307155)
(0.0176348 0 0.00430719)
(0.0169307 0 0.0054009)
(0.0160532 0 0.0063407)
(0.0150265 0 0.00711878)
(0.0138759 0 0.00773124)
(0.0126277 0 0.00817798)
(0.0113079 0 0.00846233)
(0.00994217 0 0.00859075)
(0.00855503 0 0.00857239)
(0.00716974 0 0.00841868)
(0.00580773 0 0.0081428)
(0.00448841 0 0.00775926)
(0.00322895 0 0.00728344)
(0.00204414 0 0.00673106)
(0.000946328 0 0.00611785)
(-5.45543e-05 0 0.00545917)
(-0.000950975 0 0.00476963)
(-0.00173768 0 0.00406288)
(-0.00241156 0 0.00335137)
(-0.00297148 0 0.0026462)
(-0.00341811 0 0.00195701)
(-0.00375368 0 0.00129193)
(-0.00398183 0 0.000657666)
(-0.00410739 0 5.95144e-05)
(-0.00413616 0 -0.000498415)
(-0.00407472 0 -0.00101293)
(-0.00393016 0 -0.00148158)
(-0.00370997 0 -0.00190268)
(-0.00342195 0 -0.00227524)
(-0.00307411 0 -0.00259889)
(-0.00267455 0 -0.00287369)
(-0.00223147 0 -0.00310005)
(-0.00175307 0 -0.00327852)
(-0.00124754 0 -0.00340974)
(-0.000723047 0 -0.00349427)
(-0.000187719 0 -0.00353253)
(0.000350328 0 -0.00352475)
(0.000882994 0 -0.00347095)
(0.00140218 0 -0.00337089)
(0.00189975 0 -0.00322418)
(0.00236759 0 -0.00303028)
(0.00279754 0 -0.00278865)
(0.00318144 0 -0.00249882)
(0.00351119 0 -0.00216052)
(0.00377877 0 -0.00177385)
(0.0039763 0 -0.00133939)
(0.00409614 0 -0.000858358)
(0.00413098 0 -0.000332666)
(0.00407394 0 0.000235005)
(0.00391874 0 0.000841269)
(0.0036599 0 0.00148173)
(0.003293 0 0.00215074)
(0.00281484 0 0.00284128)
(0.00222366 0 0.00354487)
(0.00151932 0 0.00425156)
(0.000703505 0 0.00494999)
(-0.000220088 0 0.0056275)
(-0.0012456 0 0.00627033)
(-0.0023649 0 0.0068638)
(-0.00356745 0 0.00739261)
(-0.00484032 0 0.00784121)
(-0.00616817 0 0.00819408)
(-0.00753337 0 0.00843626)
(-0.00891609 0 0.00855371)
(-0.0102946 0 0.00853381)
(-0.0116454 0 0.00836583)
(-0.0129438 0 0.00804137)
(-0.0141643 0 0.00755481)
(-0.0152808 0 0.00690368)
(-0.0162677 0 0.00608899)
(-0.0171 0 0.00511551)
(-0.0177539 0 0.00399197)
(-0.0182081 0 0.00273118)
(-0.0184438 0 0.00135012)
(-0.0184455 0 -0.000129993)
(-0.018202 0 -0.00168362)
(-0.0177064 0 -0.00328118)
(-0.0169563 0 -0.00489011)
(-0.0159545 0 -0.00647586)
(-0.0147088 0 -0.00800286)
(-0.0132325 0 -0.00943548)
(-0.0115438 0 -0.0107391)
(-0.0096663 0 -0.0118808)
(-0.00762784 0 -0.0128308)
(-0.00546049 0 -0.0135628)
(-0.00319977 0 -0.0140553)
(-0.000883635 0 -0.0142926)
(0.00123812 0 -0.0163937)
(0.00320518 0 -0.0160688)
(0.00511982 0 -0.0154527)
(0.00695114 0 -0.0145649)
(0.00867026 0 -0.0134314)
(0.010251 0 -0.0120833)
(0.0116705 0 -0.0105559)
(0.0129097 0 -0.00888733)
(0.0139537 0 -0.00711767)
(0.0147916 0 -0.00528781)
(0.0154171 0 -0.00343831)
(0.0158279 0 -0.00160833)
(0.0160261 0 0.000165421)
(0.0160173 0 0.00184975)
(0.0158108 0 0.00341613)
(0.0154196 0 0.00484084)
(0.0148592 0 0.00610498)
(0.0141477 0 0.00719446)
(0.0133048 0 0.00809989)
(0.0123516 0 0.00881645)
(0.0113097 0 0.00934363)
(0.010201 0 0.00968491)
(0.00904723 0 0.00984735)
(0.00786927 0 0.00984111)
(0.006687 0 0.009679)
(0.00551892 0 0.00937588)
(0.00438193 0 0.00894816)
(0.00329113 0 0.00841324)
(0.00225967 0 0.00778903)
(0.0012987 0 0.00709346)
(0.000417335 0 0.00634405)
(-0.000377305 0 0.00555756)
(-0.00108005 0 0.00474966)
(-0.00168757 0 0.0039347)
(-0.00219826 0 0.00312553)
(-0.00261209 0 0.00233335)
(-0.00293044 0 0.00156772)
(-0.00315598 0 0.000836555)
(-0.00329246 0 0.000146197)
(-0.00334457 0 -0.000498385)
(-0.00331775 0 -0.00109338)
(-0.00321795 0 -0.00163587)
(-0.00305152 0 -0.00212381)
(-0.00282515 0 -0.00255595)
(-0.00254575 0 -0.00293172)
(-0.00222039 0 -0.0032511)
(-0.00185625 0 -0.0035144)
(-0.00146055 0 -0.00372217)
(-0.00104056 0 -0.00387504)
(-0.000603571 0 -0.00397357)
(-0.00015685 0 -0.00401821)
(0.000292329 0 -0.0040092)
(0.000736699 0 -0.00394653)
(0.001169 0 -0.00383)
(0.00158197 0 -0.0036592)
(0.00196836 0 -0.00343359)
(0.00232095 0 -0.00315266)
(0.00263257 0 -0.00281597)
(0.00289611 0 -0.00242334)
(0.00310461 0 -0.001975)
(0.00325127 0 -0.00147175)
(0.00332956 0 -0.00091508)
(0.00333328 0 -0.000307303)
(0.00325668 0 0.000348385)
(0.00309461 0 0.00104792)
(0.00284267 0 0.00178599)
(0.00249747 0 0.00255589)
(0.00205674 0 0.00334931)
(0.00151951 0 0.00415634)
(0.000886272 0 0.00496542)
(0.000159107 0 0.00576341)
(-0.000658153 0 0.00653575)
(-0.00155983 0 0.00726662)
(-0.0025383 0 0.00793924)
(-0.00358394 0 0.00853613)
(-0.00468514 0 0.00903956)
(-0.0058283 0 0.00943192)
(-0.00699794 0 0.00969624)
(-0.00817684 0 0.00981666)
(-0.00934625 0 0.00977899)
(-0.0104861 0 0.00957121)
(-0.0115755 0 0.00918401)
(-0.0125927 0 0.0086113)
(-0.0135161 0 0.00785058)
(-0.0143243 0 0.0069034)
(-0.0149965 0 0.00577562)
(-0.0155137 0 0.00447761)
(-0.0158584 0 0.00302446)
(-0.0160156 0 0.00143601)
(-0.0159735 0 -0.000263121)
(-0.0157235 0 -0.00204355)
(-0.0152608 0 -0.00387161)
(-0.0145845 0 -0.0057104)
(-0.0136976 0 -0.0075208)
(-0.0126073 0 -0.00926256)
(-0.0113254 0 -0.0108954)
(-0.00986747 0 -0.0123801)
(-0.00825341 0 -0.0136796)
(-0.00650659 0 -0.0147601)
(-0.0046537 0 -0.0155922)
(-0.00272412 0 -0.0161515)
(-0.000749253 0 -0.0164206)
(0.00104377 0 -0.0182281)
(0.00269669 0 -0.0178701)
(0.00430704 0 -0.0171922)
(0.00584983 0 -0.0162153)
(0.00730164 0 -0.0149675)
(0.00864114 0 -0.0134828)
(0.00984954 0 -0.0117995)
(0.010911 0 -0.00995917)
(0.0118129 0 -0.00800574)
(0.0125458 0 -0.0059839)
(0.0131038 0 -0.00393806)
(0.0134844 0 -0.00191116)
(0.0136882 0 5.6492e-05)
(0.0137192 0 0.00192828)
(0.0135841 0 0.00367239)
(0.0132927 0 0.0052622)
(0.0128572 0 0.00667634)
(0.0122918 0 0.00789873)
(0.0116124 0 0.00891853)
(0.010836 0 0.00972993)
(0.00998048 0 0.0103319)
(0.0090638 0 0.010728)
(0.00810399 0 0.0109255)
(0.00711858 0 0.0109354)
(0.00612437 0 0.0107715)
(0.0051371 0 0.0104501)
(0.00417129 0 0.00998899)
(0.00324002 0 0.00940734)
(0.00235483 0 0.00872484)
(0.00152562 0 0.00796126)
(0.000760646 0 0.00713599)
(6.64767e-05 0 0.00626759)
(-0.000551934 0 0.00537351)
(-0.0010912 0 0.00446975)
(-0.0015494 0 0.00357071)
(-0.00192601 0 0.00268902)
(-0.00222173 0 0.00183553)
(-0.00243843 0 0.00101929)
(-0.00257894 0 0.000247625)
(-0.002647 0 -0.000473676)
(-0.00264699 0 -0.00114018)
(-0.00258385 0 -0.00174849)
(-0.00246289 0 -0.00229619)
(-0.00228976 0 -0.00278175)
(-0.00207034 0 -0.00320441)
(-0.00181071 0 -0.00356397)
(-0.00151707 0 -0.00386066)
(-0.00119569 0 -0.00409497)
(-0.000852922 0 -0.00426748)
(-0.000495159 0 -0.00437874)
(-0.000128801 0 -0.00442919)
(0.00023974 0 -0.00441906)
(0.000604054 0 -0.00434837)
(0.000957739 0 -0.0042169)
(0.00129441 0 -0.00402428)
(0.00160772 0 -0.00377)
(0.00189136 0 -0.00345359)
(0.0021391 0 -0.0030747)
(0.00234482 0 -0.00263326)
(0.00250255 0 -0.00212969)
(0.00260651 0 -0.00156499)
(0.0026512 0 -0.000940963)
(0.00263144 0 -0.000260328)
(0.0025425 0 0.000473208)
(0.00238021 0 0.0012549)
(0.00214113 0 0.00207859)
(0.00182272 0 0.00293653)
(0.00142349 0 0.00381926)
(0.000943071 0 0.00471554)
(0.000382405 0 0.00561236)
(-0.00025619 0 0.00649504)
(-0.000968906 0 0.00734731)
(-0.00175037 0 0.00815161)
(-0.00259358 0 0.00888933)
(-0.00348989 0 0.00954117)
(-0.00442901 0 0.0100876)
(-0.00539905 0 0.0105092)
(-0.00638663 0 0.0107874)
(-0.00737699 0 0.0109049)
(-0.00835419 0 0.0108462)
(-0.00930132 0 0.0105983)
(-0.0102008 0 0.0101514)
(-0.0110348 0 0.00949905)
(-0.0117853 0 0.00863887)
(-0.0124348 0 0.00757302)
(-0.0129667 0 0.00630845)
(-0.0133654 0 0.00485714)
(-0.0136174 0 0.00323622)
(-0.013711 0 0.0014681)
(-0.0136373 0 -0.000419656)
(-0.01339 0 -0.00239434)
(-0.0129661 0 -0.00441886)
(-0.0123655 0 -0.0064527)
(-0.0115916 0 -0.00845298)
(-0.0106509 0 -0.0103756)
(-0.00955358 0 -0.0121766)
(-0.00831284 0 -0.0138129)
(-0.00694512 0 -0.0152442)
(-0.00546973 0 -0.0164335)
(-0.00390849 0 -0.0173487)
(-0.00228528 0 -0.0179634)
(-0.000625696 0 -0.0182587)
(0.000860011 0 -0.0197354)
(0.00221657 0 -0.0193512)
(0.00353952 0 -0.0186243)
(0.00480913 0 -0.0175769)
(0.00600694 0 -0.0162387)
(0.00711605 0 -0.0146457)
(0.00812144 0 -0.0128385)
(0.00901029 0 -0.0108614)
(0.00977216 0 -0.00876113)
(0.0103991 0 -0.00658529)
(0.0108859 0 -0.00438128)
(0.0112297 0 -0.00219496)
(0.0114303 0 -6.94791e-05)
(0.01149 0 0.00195582)
(0.0114136 0 0.00384646)
(0.011208 0 0.00557336)
(0.0108824 0 0.00711308)
(0.0104478 0 0.0084478)
(0.00991635 0 0.00956534)
(0.00930161 0 0.010459)
(0.00861769 0 0.0111272)
(0.00787913 0 0.0115732)
(0.00710051 0 0.0118046)
(0.00629619 0 0.0118328)
(0.00548 0 0.0116724)
(0.00466507 0 0.0113405)
(0.00386357 0 0.0108563)
(0.00308659 0 0.0102401)
(0.00234405 0 0.00951314)
(0.00164453 0 0.00869654)
(0.00099533 0 0.00781121)
(0.000402371 0 0.00687722)
(-0.000129747 0 0.00591345)
(-0.000597724 0 0.0049373)
(-0.000999498 0 0.00396449)
(-0.00133418 0 0.00300887)
(-0.00160195 0 0.0020824)
(-0.00180402 0 0.00119513)
(-0.00194244 0 0.00035528)
(-0.00202006 0 -0.00043062)
(-0.00204036 0 -0.00115756)
(-0.0020073 0 -0.00182167)
(-0.00192525 0 -0.00242019)
(-0.00179885 0 -0.00295131)
(-0.00163301 0 -0.00341405)
(-0.00143281 0 -0.00380806)
(-0.00120349 0 -0.00413344)
(-0.000950386 0 -0.00439058)
(-0.000678904 0 -0.00458002)
(-0.000394516 0 -0.00470227)
(-0.00010272 0 -0.00475774)
(0.000190967 0 -0.00474667)
(0.000481029 0 -0.00466906)
(0.000761958 0 -0.00452474)
(0.00102828 0 -0.00431333)
(0.00127455 0 -0.00403442)
(0.0014954 0 -0.00368757)
(0.00168555 0 -0.00327255)
(0.00183985 0 -0.00278943)
(0.00195329 0 -0.00223879)
(0.00202107 0 -0.00162188)
(0.00203866 0 -0.000940806)
(0.00200184 0 -0.00019866)
(0.00190681 0 0.000600364)
(0.00175029 0 0.00145089)
(0.00152969 0 0.00234598)
(0.00124319 0 0.00327697)
(0.000889914 0 0.00423336)
(0.000469986 0 0.0052028)
(-1.53747e-05 0 0.00617103)
(-0.000563769 0 0.00712203)
(-0.00117155 0 0.00803816)
(-0.00183378 0 0.0089004)
(-0.00254419 0 0.00968865)
(-0.00329517 0 0.0103822)
(-0.00407781 0 0.0109599)
(-0.00488196 0 0.0114012)
(-0.00569628 0 0.0116861)
(-0.00650841 0 0.0117962)
(-0.0073051 0 0.0117152)
(-0.00807243 0 0.0114295)
(-0.00879606 0 0.0109286)
(-0.00946146 0 0.0102061)
(-0.0100543 0 0.00926)
(-0.0105605 0 0.00809298)
(-0.0109672 0 0.00671304)
(-0.0112622 0 0.00513356)
(-0.0114352 0 0.00337349)
(-0.0114774 0 0.00145738)
(-0.0113826 0 -0.000584732)
(-0.0111463 0 -0.00271748)
(-0.0107671 0 -0.00490101)
(-0.0102455 0 -0.00709196)
(-0.00958494 0 -0.00924455)
(-0.00879123 0 -0.0113118)
(-0.00787285 0 -0.0132466)
(-0.00684076 0 -0.0150034)
(-0.00570822 0 -0.016539)
(-0.00449074 0 -0.0178143)
(-0.00320568 0 -0.0187951)
(-0.00187192 0 -0.0194535)
(-0.000509721 0 -0.0197692)
(0.000684356 0 -0.0209541)
(0.00175821 0 -0.0205493)
(0.0028067 0 -0.0197844)
(0.0038149 0 -0.0186824)
(0.00476891 0 -0.0172741)
(0.0056559 0 -0.015597)
(0.0064644 0 -0.0136934)
(0.00718443 0 -0.0116096)
(0.0078077 0 -0.00939427)
(0.00832772 0 -0.00709728)
(0.00873986 0 -0.00476824)
(0.00904136 0 -0.00245521)
(0.00923137 0 -0.000203518)
(0.00931086 0 0.00194537)
(0.00928268 0 0.00395482)
(0.00915155 0 0.00579377)
(0.00892387 0 0.00743702)
(0.00860752 0 0.00886527)
(0.00821163 0 0.0100652)
(0.00774629 0 0.0110291)
(0.00722228 0 0.0117549)
(0.00665083 0 0.0122457)
(0.00604332 0 0.0125089)
(0.00541105 0 0.0125564)
(0.00476507 0 0.0124031)
(0.0041159 0 0.012067)
(0.00347346 0 0.0115679)
(0.00284686 0 0.0109273)
(0.00224432 0 0.0101674)
(0.00167312 0 0.00931044)
(0.00113949 0 0.0083786)
(0.000648609 0 0.00739312)
(0.000204623 0 0.00637404)
(-0.000189379 0 0.00533993)
(-0.000531313 0 0.00430758)
(-0.00082006 0 0.00329189)
(-0.00105541 0 0.00230577)
(-0.00123799 0 0.00136015)
(-0.00136919 0 0.000464022)
(-0.00145109 0 -0.000375413)
(-0.0014863 0 -0.00115261)
(-0.00147792 0 -0.00186328)
(-0.00142936 0 -0.00250433)
(-0.00134435 0 -0.00307369)
(-0.00122682 0 -0.00357014)
(-0.0010809 0 -0.00399319)
(-0.000910862 0 -0.0043428)
(-0.000721081 0 -0.00461927)
(-0.000516027 0 -0.00482306)
(-0.000300227 0 -0.00495464)
(-7.82509e-05 0 -0.00501438)
(0.000145311 0 -0.00500251)
(0.000365865 0 -0.00491905)
(0.000578829 0 -0.00476384)
(0.000779653 0 -0.00453655)
(0.000963838 0 -0.0042368)
(0.00112695 0 -0.00386427)
(0.00126467 0 -0.00341882)
(0.00137279 0 -0.00290067)
(0.00144726 0 -0.00231058)
(0.00148423 0 -0.00165003)
(0.00148009 0 -0.000921397)
(0.00143153 0 -0.000128139)
(0.00133562 0 0.000725109)
(0.00118988 0 0.00163239)
(0.000992464 0 0.00258607)
(0.000742202 0 0.00357669)
(0.000438714 0 0.00459286)
(8.24743e-05 0 0.00562124)
(-0.000325131 0 0.00664654)
(-0.000781746 0 0.00765165)
(-0.001284 0 0.00861777)
(-0.0018275 0 0.0095247)
(-0.00240678 0 0.0103512)
(-0.00301536 0 0.0110753)
(-0.00364575 0 0.0116748)
(-0.00428953 0 0.0121281)
(-0.00493741 0 0.0124143)
(-0.00557937 0 0.0125142)
(-0.00620476 0 0.0124107)
(-0.00680254 0 0.0120898)
(-0.00736139 0 0.011541)
(-0.00787001 0 0.0107577)
(-0.00831732 0 0.00973841)
(-0.00869273 0 0.00848638)
(-0.0089864 0 0.00701054)
(-0.00918952 0 0.00532554)
(-0.00929456 0 0.00345186)
(-0.00929553 0 0.00141585)
(-0.00918814 0 -0.000750437)
(-0.00896995 0 -0.00300953)
(-0.00864036 0 -0.00531941)
(-0.00820066 0 -0.00763456)
(-0.00765402 0 -0.00990697)
(-0.00700548 0 -0.0120874)
(-0.00626194 0 -0.0141268)
(-0.00543206 0 -0.0159773)
(-0.0045262 0 -0.0175939)
(-0.00355627 0 -0.0189358)
(-0.00253548 0 -0.0199672)
(-0.00147817 0 -0.0206591)
(-0.000399617 0 -0.0209905)
(0.00051501 0 -0.0218934)
(0.00131696 0 -0.0214736)
(0.00210117 0 -0.020681)
(0.00285725 0 -0.0195391)
(0.00357554 0 -0.0180797)
(0.00424703 0 -0.0163411)
(0.00486353 0 -0.0143668)
(0.00541778 0 -0.0122044)
(0.0059036 0 -0.00990404)
(0.00631591 0 -0.00751698)
(0.00665085 0 -0.00509436)
(0.00690577 0 -0.00268582)
(0.0070793 0 -0.000338234)
(0.00717135 0 0.00190536)
(0.00718317 0 0.0040067)
(0.00711737 0 0.00593319)
(0.00697792 0 0.00765818)
(0.00676992 0 0.00916117)
(0.00649953 0 0.0104278)
(0.00617376 0 0.0114495)
(0.00580022 0 0.0122239)
(0.00538701 0 0.0127534)
(0.00494246 0 0.0130456)
(0.00447497 0 0.0131123)
(0.00399284 0 0.0129688)
(0.00350411 0 0.0126334)
(0.00301645 0 0.0121266)
(0.00253699 0 0.0114705)
(0.00207228 0 0.0106881)
(0.00162821 0 0.00980256)
(0.00120989 0 0.00883687)
(0.000821714 0 0.0078132)
(0.000467257 0 0.00675251)
(0.000149313 0 0.00567427)
(-0.00013011 0 0.00459616)
(-0.000369759 0 0.0035339)
(-0.000569111 0 0.00250122)
(-0.000728328 0 0.00150975)
(-0.000848206 0 0.00056917)
(-0.000930104 0 -0.000312758)
(-0.000975871 0 -0.00113001)
(-0.000987744 0 -0.00187793)
(-0.000968273 0 -0.0025531)
(-0.000920259 0 -0.00315323)
(-0.000846708 0 -0.00367689)
(-0.000750794 0 -0.00412343)
(-0.000635831 0 -0.00449269)
(-0.000505242 0 -0.00478486)
(-0.000362539 0 -0.00500033)
(-0.0002113 0 -0.00513951)
(-5.51465e-05 0 -0.00520274)
(0.000102277 0 -0.00519024)
(0.000257321 0 -0.00510202)
(0.000406348 0 -0.00493795)
(0.000545754 0 -0.00469776)
(0.000671988 0 -0.00438112)
(0.000781571 0 -0.0039878)
(0.000871123 0 -0.00351776)
(0.000937385 0 -0.00297136)
(0.000977247 0 -0.00234955)
(0.000987781 0 -0.00165401)
(0.000966275 0 -0.00088738)
(0.000910287 0 -5.34294e-05)
(0.000817682 0 0.000842818)
(0.000686743 0 0.00179489)
(0.000516282 0 0.00279455)
(0.000305692 0 0.00383165)
(5.50108e-05 0 0.00489407)
(-0.000235035 0 0.00596767)
(-0.000562988 0 0.00703632)