/*--------------------------------*- C++ -*----------------------------------*\
| =========                 |                                                 |
| \\      /  F ield         | OpenFOAM: The Open Source CFD Toolbox           |
|  \\    /   O peration     | Version:  2.3.0                                 |
|   \\  /    A nd           | Web:      www.OpenFOAM.org                      |
|    \\/     M anipulation  |                                                 |
\*---------------------------------------------------------------------------*/
FoamFile
{
    version     2.0;
    format      ascii;
    class       volVectorField;
    location    "1000";
    object      U;
}
// * * * * * * * * * * * * * * * * * * * * * * * * * * * * * * * * * * * * * //

dimensions      [0 1 -1 0 0 0 0];

internalField   nonuniform List<vector> 
3060
(
(0.0008023 0 -0.000387044)
(0.00209772 0 -0.000379159)
(0.00335303 0 -0.000362994)
(0.00454341 0 -0.000339957)
(0.0056475 0 -0.000310977)
(0.00664654 0 -0.000276896)
(0.00752455 0 -0.000238592)
(0.00826874 0 -0.000197021)
(0.00886961 0 -0.000153194)
(0.00932115 0 -0.000108172)
(0.00962089 0 -6.30397e-05)
(0.00976987 0 -1.88925e-05)
(0.00977265 0 2.31869e-05)
(0.00963697 0 6.23283e-05)
(0.00937293 0 9.80586e-05)
(0.00899226 0 0.000129999)
(0.00850807 0 0.000157824)
(0.00793459 0 0.000181285)
(0.00728678 0 0.000200225)
(0.00658004 0 0.000214585)
(0.00582982 0 0.000224404)
(0.00505134 0 0.000229813)
(0.00425922 0 0.000231031)
(0.00346731 0 0.000228345)
(0.00268842 0 0.0002221)
(0.0019341 0 0.000212685)
(0.00121458 0 0.000200525)
(0.000538652 0 0.000186063)
(-8.6384e-05 0 0.000169741)
(-0.000654713 0 0.000151996)
(-0.00116198 0 0.000133254)
(-0.00160523 0 0.00011392)
(-0.00198281 0 9.4363e-05)
(-0.00229425 0 7.49141e-05)
(-0.00254016 0 5.58612e-05)
(-0.00272208 0 3.74466e-05)
(-0.00284228 0 1.98575e-05)
(-0.00290363 0 3.21439e-06)
(-0.00290938 0 -1.24309e-05)
(-0.00286304 0 -2.70468e-05)
(-0.00276837 0 -4.05022e-05)
(-0.00262951 0 -5.26961e-05)
(-0.00245082 0 -6.3576e-05)
(-0.00223676 0 -7.31275e-05)
(-0.00199184 0 -8.136e-05)
(-0.00172052 0 -8.82965e-05)
(-0.00142721 0 -9.39686e-05)
(-0.0011162 0 -9.84114e-05)
(-0.000791711 0 -0.00010166)
(-0.000457866 0 -0.000103743)
(-0.000118716 0 -0.000104683)
(0.000221734 0 -0.000104487)
(0.000559498 0 -0.000103155)
(0.00089057 0 -0.000100674)
(0.0012109 0 -9.70235e-05)
(0.00151635 0 -9.21757e-05)
(0.00180273 0 -8.60983e-05)
(0.00206572 0 -7.8758e-05)
(0.00230096 0 -7.01253e-05)
(0.002504 0 -6.01816e-05)
(0.00267039 0 -4.89272e-05)
(0.00279576 0 -3.63903e-05)
(0.00287584 0 -2.26377e-05)
(0.00290666 0 -7.77731e-06)
(0.00288457 0 8.08044e-06)
(0.00280622 0 2.49142e-05)
(0.00266847 0 4.26517e-05)
(0.00246866 0 6.11526e-05)
(0.00220474 0 8.02165e-05)
(0.00187548 0 9.95916e-05)
(0.00148057 0 0.00011898)
(0.00102079 0 0.000138041)
(0.000498148 0 0.000156401)
(-8.40361e-05 0 0.000173654)
(-0.000721043 0 0.000189378)
(-0.0014067 0 0.000203136)
(-0.00213335 0 0.000214493)
(-0.00289189 0 0.000223018)
(-0.00367184 0 0.000228299)
(-0.00446138 0 0.00022996)
(-0.00524756 0 0.000227672)
(-0.00601643 0 0.000221167)
(-0.00675333 0 0.000210253)
(-0.00744308 0 0.00019482)
(-0.00807035 0 0.000174856)
(-0.00861997 0 0.000150442)
(-0.00907724 0 0.000121759)
(-0.00942831 0 8.90746e-05)
(-0.0096605 0 5.2726e-05)
(-0.00976257 0 1.31019e-05)
(-0.00972496 0 -2.93042e-05)
(-0.00954065 0 -7.35201e-05)
(-0.00920595 0 -0.00011846)
(-0.0087206 0 -0.000163034)
(-0.00808782 0 -0.000206167)
(-0.00731436 0 -0.000246823)
(-0.00641041 0 -0.000284014)
(-0.00538946 0 -0.000316795)
(-0.00426799 0 -0.000344248)
(-0.0030653 0 -0.000365501)
(-0.00180323 0 -0.000379817)
(-0.000506136 0 -0.00038668)
(0.0016779 0 -0.002376)
(0.00437668 0 -0.00232761)
(0.00699395 0 -0.00223254)
(0.00948014 0 -0.00209602)
(0.0117909 0 -0.0019229)
(0.0138871 0 -0.0017182)
(0.0157354 0 -0.00148735)
(0.017309 0 -0.00123618)
(0.0185881 0 -0.000970882)
(0.0195598 0 -0.000697801)
(0.0202184 0 -0.000423328)
(0.0205656 0 -0.000153745)
(0.0206094 0 0.000104961)
(0.0203644 0 0.000347694)
(0.0198501 0 0.000570861)
(0.01909 0 0.000771581)
(0.0181109 0 0.000947543)
(0.0169419 0 0.00109704)
(0.015614 0 0.00121898)
(0.0141589 0 0.00131291)
(0.0126088 0 0.00137898)
(0.0109953 0 0.00141791)
(0.00934888 0 0.00143093)
(0.0076985 0 0.00141972)
(0.00607101 0 0.00138631)
(0.00449078 0 0.00133303)
(0.00297941 0 0.00126239)
(0.00155559 0 0.00117706)
(0.000234952 0 0.00107971)
(-0.000969944 0 0.000973035)
(-0.00204955 0 0.000859614)
(-0.0029972 0 0.000741907)
(-0.00380895 0 0.000622188)
(-0.00448337 0 0.000502509)
(-0.00502124 0 0.000384674)
(-0.00542527 0 0.000270212)
(-0.00569982 0 0.000160356)
(-0.00585055 0 5.6029e-05)
(-0.00588413 0 -4.21483e-05)
(-0.00580794 0 -0.000133727)
(-0.00563001 0 -0.000218079)
(-0.00535892 0 -0.000294713)
(-0.00500372 0 -0.000363331)
(-0.00457365 0 -0.000423802)
(-0.00407809 0 -0.000476119)
(-0.00352638 0 -0.000520363)
(-0.00292776 0 -0.000556669)
(-0.00229133 0 -0.000585199)
(-0.00162605 0 -0.000606115)
(-0.00094071 0 -0.000619557)
(-0.000243976 0 -0.000625625)
(0.000455568 0 -0.00062437)
(0.00114937 0 -0.000615788)
(0.00182883 0 -0.000599825)
(0.00248529 0 -0.000576378)
(0.00310996 0 -0.000545313)
(0.0036939 0 -0.000506479)
(0.00422805 0 -0.00045973)
(0.00470319 0 -0.000404952)
(0.00511007 0 -0.000342096)
(0.00543945 0 -0.000271213)
(0.00568221 0 -0.000192489)
(0.00582957 0 -0.000106283)
(0.00587319 0 -1.31258e-05)
(0.00580532 0 8.64024e-05)
(0.00561889 0 0.00019184)
(0.00530757 0 0.000302488)
(0.00486614 0 0.000417343)
(0.00429078 0 0.0005351)
(0.00357935 0 0.000654169)
(0.00273169 0 0.000772696)
(0.00174994 0 0.000888586)
(0.00063876 0 0.000999537)
(-0.000594447 0 0.00110308)
(-0.00193938 0 0.00119664)
(-0.00338272 0 0.00127755)
(-0.00490815 0 0.00134318)
(-0.00649634 0 0.00139092)
(-0.00812511 0 0.00141834)
(-0.00976964 0 0.0014232)
(-0.0114028 0 0.00140357)
(-0.0129953 0 0.00135791)
(-0.0145168 0 0.00128513)
(-0.0159356 0 0.00118465)
(-0.0172199 0 0.00105648)
(-0.0183384 0 0.000901208)
(-0.0192608 0 0.000720073)
(-0.0199586 0 0.000514911)
(-0.0204061 0 0.000288145)
(-0.0205809 0 4.2768e-05)
(-0.0204647 0 -0.000217476)
(-0.0200444 0 -0.00048717)
(-0.0193135 0 -0.00076028)
(-0.0182721 0 -0.00103054)
(-0.0169272 0 -0.00129164)
(-0.0152931 0 -0.00153734)
(-0.0133914 0 -0.00176159)
(-0.0112498 0 -0.00195864)
(-0.00890256 0 -0.00212313)
(-0.00638964 0 -0.00225026)
(-0.00375576 0 -0.00233603)
(-0.00104989 0 -0.00237732)
(0.00199252 0 -0.00557845)
(0.00518878 0 -0.00546514)
(0.00829034 0 -0.00524588)
(0.0112403 0 -0.00493034)
(0.0139866 0 -0.00452904)
(0.0164831 0 -0.0040535)
(0.0186906 0 -0.00351639)
(0.0205773 0 -0.00293138)
(0.0221196 0 -0.00231285)
(0.0233019 0 -0.00167553)
(0.0241172 0 -0.00103412)
(0.0245663 0 -0.000402912)
(0.0246578 0 0.000204627)
(0.0244074 0 0.000776748)
(0.0238369 0 0.00130441)
(0.022973 0 0.00178031)
(0.0218468 0 0.00219871)
(0.0204922 0 0.00255538)
(0.0189454 0 0.00284762)
(0.017244 0 0.00307422)
(0.0154255 0 0.00323545)
(0.0135274 0 0.0033329)
(0.0115859 0 0.00336935)
(0.00963516 0 0.00334864)
(0.0077072 0 0.00327545)
(0.00583105 0 0.00315517)
(0.00403259 0 0.00299365)
(0.00233427 0 0.00279706)
(0.000754962 0 0.00257169)
(-0.000690043 0 0.00232377)
(-0.00198901 0 0.00205938)
(-0.0031336 0 0.00178428)
(-0.00411869 0 0.00150381)
(-0.00494211 0 0.00122282)
(-0.00560434 0 0.000945565)
(-0.00610819 0 0.000675695)
(-0.00645845 0 0.000416205)
(-0.00666155 0 0.000169438)
(-0.00672524 0 -6.28768e-05)
(-0.00665832 0 -0.000279468)
(-0.00647034 0 -0.000479006)
(-0.00617147 0 -0.000660448)
(-0.00577232 0 -0.00082312)
(-0.00528381 0 -0.000966683)
(-0.00471697 0 -0.00109107)
(-0.00408287 0 -0.00119642)
(-0.00339249 0 -0.00128298)
(-0.00265669 0 -0.00135109)
(-0.00188617 0 -0.00140107)
(-0.00109149 0 -0.00143321)
(-0.000283073 0 -0.00144773)
(0.000528748 0 -0.00144474)
(0.00133366 0 -0.00142423)
(0.00212132 0 -0.0013861)
(0.0028813 0 -0.00133012)
(0.00360308 0 -0.00125602)
(0.00427596 0 -0.00116349)
(0.00488914 0 -0.00105225)
(0.0054317 0 -0.000922087)
(0.00589267 0 -0.000772945)
(0.00626115 0 -0.000604983)
(0.00652643 0 -0.000418649)
(0.00667813 0 -0.000214733)
(0.00670639 0 5.63322e-06)
(0.00660199 0 0.000241166)
(0.0063565 0 0.000490491)
(0.00596265 0 0.000751733)
(0.00541456 0 0.00102239)
(0.00470806 0 0.00129932)
(0.00384102 0 0.00157873)
(0.00281374 0 0.00185624)
(0.00162918 0 0.00212693)
(0.000293337 0 0.00238538)
(-0.00118459 0 0.00262583)
(-0.00279197 0 0.0028422)
(-0.00451265 0 0.00302832)
(-0.00632693 0 0.00317799)
(-0.00821162 0 0.00328519)
(-0.0101402 0 0.00334424)
(-0.0120831 0 0.00334999)
(-0.0140079 0 0.003298)
(-0.0158803 0 0.00318475)
(-0.0176639 0 0.00300778)
(-0.0193215 0 0.00276584)
(-0.0208158 0 0.00245903)
(-0.0221099 0 0.00208889)
(-0.0231683 0 0.00165844)
(-0.023958 0 0.00117225)
(-0.0244491 0 0.00063636)
(-0.0246162 0 5.83715e-05)
(-0.0244391 0 -0.00055231)
(-0.0239038 0 -0.00118345)
(-0.0230036 0 -0.00182149)
(-0.0217391 0 -0.00245215)
(-0.0201195 0 -0.00306089)
(-0.0181618 0 -0.00363322)
(-0.0158913 0 -0.00415507)
(-0.0133411 0 -0.00461304)
(-0.0105513 0 -0.00499487)
(-0.00756886 0 -0.00528979)
(-0.00444578 0 -0.00548865)
(-0.00123888 0 -0.00558452)
(0.00192091 0 -0.00888431)
(0.00499475 0 -0.00870458)
(0.0079794 0 -0.00835989)
(0.0108217 0 -0.00786345)
(0.0134724 0 -0.00723106)
(0.0158877 0 -0.00648068)
(0.0180302 0 -0.0056323)
(0.0198694 0 -0.00470753)
(0.0213825 0 -0.00372903)
(0.0225543 0 -0.00271993)
(0.0233771 0 -0.00170322)
(0.0238511 0 -0.00070117)
(0.0239833 0 0.000265403)
(0.0237874 0 0.00117802)
(0.0232829 0 0.00202174)
(0.0224946 0 0.00278444)
(0.0214513 0 0.00345659)
(0.020185 0 0.00403117)
(0.0187298 0 0.0045037)
(0.0171213 0 0.00487211)
(0.0153955 0 0.00513664)
(0.0135881 0 0.00529968)
(0.0117337 0 0.00536553)
(0.00986539 0 0.00534016)
(0.00801388 0 0.00523092)
(0.00620732 0 0.00504626)
(0.00447086 0 0.00479538)
(0.00282642 0 0.00448804)
(0.00129254 0 0.00413416)
(-0.000115645 0 0.00374366)
(-0.00138637 0 0.00332615)
(-0.00251112 0 0.00289078)
(-0.00348445 0 0.00244607)
(-0.0043038 0 0.00199974)
(-0.00496912 0 0.00155861)
(-0.00548269 0 0.00112857)
(-0.00584869 0 0.000714506)
(-0.00607301 0 0.000320344)
(-0.00616287 0 -5.09102e-05)
(-0.00612667 0 -0.000396996)
(-0.00597356 0 -0.000715906)
(-0.00571324 0 -0.00100607)
(-0.00535585 0 -0.00126645)
(-0.00491182 0 -0.00149648)
(-0.00439172 0 -0.00169599)
(-0.00380618 0 -0.00186513)
(-0.00316582 0 -0.00200425)
(-0.00248113 0 -0.00211381)
(-0.00176252 0 -0.00219426)
(-0.00102027 0 -0.00224603)
(-0.000264564 0 -0.00226943)
(0.000494488 0 -0.00226463)
(0.00124679 0 -0.00223163)
(0.00198224 0 -0.00217025)
(0.00269065 0 -0.0020802)
(0.00336176 0 -0.00196107)
(0.00398521 0 -0.00181244)
(0.00455053 0 -0.00163391)
(0.00504719 0 -0.00142522)
(0.00546466 0 -0.00118635)
(0.0057925 0 -0.000917581)
(0.00602048 0 -0.000619643)
(0.00613868 0 -0.000293745)
(0.00613766 0 5.84073e-05)
(0.0060086 0 0.000434797)
(0.00574352 0 0.000832973)
(0.00533567 0 0.00124971)
(0.00477971 0 0.00168085)
(0.00407204 0 0.00212128)
(0.0032111 0 0.00256492)
(0.00219762 0 0.00300475)
(0.001035 0 0.00343291)
(-0.000270537 0 0.00384082)
(-0.00170963 0 0.00421927)
(-0.00326966 0 0.00455868)
(-0.0049347 0 0.00484923)
(-0.0066854 0 0.00508114)
(-0.00849917 0 0.00524491)
(-0.0103502 0 0.00533159)
(-0.01221 0 0.0053331)
(-0.0140473 0 0.00524252)
(-0.0158289 0 0.00505435)
(-0.0175202 0 0.00476481)
(-0.0190856 0 0.00437207)
(-0.0204895 0 0.00387643)
(-0.0216969 0 0.0032805)
(-0.0226744 0 0.00258934)
(-0.0233909 0 0.00181046)
(-0.0238188 0 0.000953919)
(-0.0239345 0 3.23589e-05)
(-0.0237202 0 -0.000938712)
(-0.0231637 0 -0.00194032)
(-0.0222596 0 -0.00295148)
(-0.0210096 0 -0.00394997)
(-0.0194226 0 -0.00491302)
(-0.0175156 0 -0.00581782)
(-0.0153128 0 -0.00664218)
(-0.0128458 0 -0.0073651)
(-0.0101529 0 -0.0079674)
(-0.00727859 0 -0.00843223)
(-0.00427209 0 -0.0087454)
(-0.00118683 0 -0.00889646)
(0.00168916 0 -0.0118483)
(0.00438579 0 -0.0116101)
(0.00700601 0 -0.0111559)
(0.00950449 0 -0.0105015)
(0.011839 0 -0.00966695)
(0.0139719 0 -0.0086757)
(0.0158707 0 -0.00755402)
(0.0175088 0 -0.00633034)
(0.0188661 0 -0.00503443)
(0.0199289 0 -0.00369668)
(0.0206898 0 -0.00234725)
(0.0211481 0 -0.00101527)
(0.021309 0 0.000272039)
(0.0211832 0 0.00149028)
(0.0207866 0 0.00261911)
(0.0201398 0 0.00364188)
(0.0192669 0 0.00454545)
(0.0181951 0 0.00532014)
(0.0169537 0 0.00595965)
(0.0155733 0 0.00646097)
(0.0140848 0 0.00682417)
(0.0125193 0 0.00705222)
(0.0109071 0 0.00715062)
(0.00927691 0 0.00712714)
(0.00765586 0 0.00699141)
(0.0060688 0 0.0067545)
(0.00453804 0 0.0064286)
(0.00308317 0 0.00602655)
(0.00172091 0 0.00556154)
(0.00046502 0 0.00504668)
(-0.000673629 0 0.00449478)
(-0.001687 0 0.00391801)
(-0.00256972 0 0.00332773)
(-0.00331895 0 0.00273425)
(-0.00393409 0 0.00214676)
(-0.00441661 0 0.0015732)
(-0.00476972 0 0.00102023)
(-0.00499818 0 0.000493276)
(-0.00510806 0 -3.40142e-06)
(-0.00510647 0 -0.00046654)
(-0.00500132 0 -0.0008935)
(-0.00480101 0 -0.00128223)
(-0.00451437 0 -0.00163134)
(-0.00415052 0 -0.00194003)
(-0.00371873 0 -0.00220803)
(-0.00322838 0 -0.00243543)
(-0.00268887 0 -0.00262264)
(-0.00210954 0 -0.00277016)
(-0.00149969 0 -0.00287857)
(-0.00086853 0 -0.00294838)
(-0.00022523 0 -0.00297996)
(0.0004211 0 -0.00297351)
(0.00106137 0 -0.00292905)
(0.00168646 0 -0.00284636)
(0.00228724 0 -0.00272508)
(0.0028545 0 -0.00256474)
(0.00337899 0 -0.00236483)
(0.0038514 0 -0.0021249)
(0.00426242 0 -0.00184469)
(0.00460278 0 -0.00152423)
(0.0048633 0 -0.00116397)
(0.00503507 0 -0.000764891)
(0.00510944 0 -0.000328608)
(0.00507824 0 0.00014265)
(0.00493389 0 0.000646136)
(0.00466964 0 0.00117834)
(0.00427988 0 0.00173472)
(0.00376033 0 0.00230957)
(0.00310831 0 0.00289592)
(0.00232298 0 0.00348558)
(0.00140555 0 0.00406913)
(0.000359585 0 0.00463607)
(-0.000808856 0 0.00517495)
(-0.002091 0 0.00567354)
(-0.00347526 0 0.00611909)
(-0.00494716 0 0.00649857)
(-0.00648932 0 0.00679905)
(-0.00808158 0 0.00700797)
(-0.00970109 0 0.00711355)
(-0.0113226 0 0.00710518)
(-0.0129187 0 0.0069738)
(-0.0144605 0 0.00671229)
(-0.0159177 0 0.00631582)
(-0.0172595 0 0.00578217)
(-0.0184552 0 0.00511199)
(-0.0194746 0 0.00430905)
(-0.0202893 0 0.00338037)
(-0.0208728 0 0.00233634)
(-0.0212021 0 0.00119081)
(-0.0212576 0 -3.88917e-05)
(-0.0210249 0 -0.00133168)
(-0.0204946 0 -0.00266272)
(-0.0196628 0 -0.00400458)
(-0.0185318 0 -0.00532818)
(-0.0171101 0 -0.0066036)
(-0.0154128 0 -0.0078009)
(-0.0134612 0 -0.00889092)
(-0.0112828 0 -0.00984611)
(-0.00891098 0 -0.0106413)
(-0.00638386 0 -0.0112545)
(-0.00374393 0 -0.0116672)
(-0.00103688 0 -0.0118663)
(0.00145621 0 -0.0142826)
(0.00377516 0 -0.0139975)
(0.00603024 0 -0.0134558)
(0.00818368 0 -0.0126752)
(0.0102003 0 -0.011679)
(0.0120483 0 -0.0104949)
(0.0137002 0 -0.00915412)
(0.0151335 0 -0.00769029)
(0.0163305 0 -0.00613883)
(0.0172792 0 -0.00453582)
(0.0179725 0 -0.00291708)
(0.0184091 0 -0.00131718)
(0.0185922 0 0.000231545)
(0.0185299 0 0.00169994)
(0.0182348 0 0.00306328)
(0.0177232 0 0.00430113)
(0.0170149 0 0.0053973)
(0.0161322 0 0.00633977)
(0.0150995 0 0.00712064)
(0.0139422 0 0.00773596)
(0.0126867 0 0.00818554)
(0.0113591 0 0.00847265)
(0.00998534 0 0.00860366)
(0.00859001 0 0.00858766)
(0.00719651 0 0.00843601)
(0.00582641 0 0.00816185)
(0.00449923 0 0.00777965)
(0.00323224 0 0.00730474)
(0.00204034 0 0.00675284)
(0.000935967 0 0.00613967)
(-7.08879e-05 0 0.00548058)
(-0.000972629 0 0.00479022)
(-0.00176396 0 0.00408225)
(-0.00244173 0 0.00336917)
(-0.0030048 0 0.00266211)
(-0.00345382 0 0.00197075)
(-0.00379104 0 0.0013033)
(-0.0040201 0 0.000666482)
(-0.00414583 0 6.5673e-05)
(-0.00417411 0 -0.000494964)
(-0.00411154 0 -0.00101218)
(-0.00396524 0 -0.00148347)
(-0.00374278 0 -0.00190709)
(-0.00345198 0 -0.00228202)
(-0.00310092 0 -0.00260781)
(-0.00269775 0 -0.00288452)
(-0.00225074 0 -0.0031125)
(-0.00176814 0 -0.0032923)
(-0.00125821 0 -0.00342451)
(-0.000729159 0 -0.00350969)
(-0.000189199 0 -0.00354826)
(0.000353501 0 -0.00354043)
(0.000890777 0 -0.00348621)
(0.00141446 0 -0.00338539)
(0.00191638 0 -0.00323758)
(0.00238833 0 -0.00304227)
(0.0028221 0 -0.00279892)
(0.00320949 0 -0.0025071)
(0.00354231 0 -0.00216658)
(0.0038125 0 -0.00177748)
(0.00401213 0 -0.00134045)
(0.0041335 0 -0.000856729)
(0.00416925 0 -0.000328307)
(0.00411247 0 0.000242085)
(0.00395683 0 0.000851005)
(0.00369683 0 0.001494)
(0.00332802 0 0.00216537)
(0.0028472 0 0.00285803)
(0.0022526 0 0.00356346)
(0.0015441 0 0.00427166)
(0.000723402 0 0.00497123)
(-0.000205755 0 0.00564948)
(-0.00123747 0 0.00629262)
(-0.00236354 0 0.00688595)
(-0.00357335 0 0.00741418)
(-0.00485389 0 0.00786174)
(-0.00618972 0 0.00821317)
(-0.00756309 0 0.0084535)
(-0.00895404 0 0.00856876)
(-0.0103407 0 0.00854638)
(-0.0116995 0 0.00837568)
(-0.0130055 0 0.00804834)
(-0.0142331 0 0.00755882)
(-0.0153562 0 0.00690471)
(-0.0163488 0 0.00608711)
(-0.0171859 0 0.00511087)
(-0.0178437 0 0.00398477)
(-0.0183006 0 0.00272169)
(-0.0185377 0 0.00133865)
(-0.0185396 0 -0.000143113)
(-0.018295 0 -0.00169802)
(-0.0177969 0 -0.00329651)
(-0.017043 0 -0.004906)
(-0.016036 0 -0.00649199)
(-0.0147839 0 -0.00801893)
(-0.0133 0 -0.00945125)
(-0.0116026 0 -0.0107544)
(-0.00971538 0 -0.0118955)
(-0.0076664 0 -0.0128449)
(-0.00548788 0 -0.0135764)
(-0.0032155 0 -0.0140684)
(-0.000887447 0 -0.0143054)
(0.00124669 0 -0.0164274)
(0.00322645 0 -0.0161021)
(0.00515339 0 -0.0154854)
(0.0069964 0 -0.0145967)
(0.00872639 0 -0.0134621)
(0.010317 0 -0.0121126)
(0.0117452 0 -0.0105835)
(0.0129918 0 -0.00891286)
(0.0140417 0 -0.00714082)
(0.0148842 0 -0.00530823)
(0.0155128 0 -0.00345569)
(0.0159252 0 -0.00162237)
(0.0161235 0 0.000154996)
(0.0161134 0 0.00184315)
(0.0159044 0 0.00341351)
(0.0155093 0 0.00484231)
(0.014944 0 0.00611056)
(0.0142266 0 0.0072041)
(0.013377 0 0.00811348)
(0.0124164 0 0.00883378)
(0.0113666 0 0.00936443)
(0.0102497 0 0.00970884)
(0.00908746 0 0.00987399)
(0.00790099 0 0.00987)
(0.00671029 0 0.00970964)
(0.005534 0 0.00940772)
(0.00438913 0 0.00898065)
(0.00329087 0 0.00844581)
(0.00225248 0 0.00782114)
(0.00128516 0 0.00712456)
(0.00039811 0 0.00637363)
(-0.000401522 0 0.00558516)
(-0.00110853 0 0.00477487)
(-0.00171957 0 0.00395715)
(-0.00223302 0 0.0031449)
(-0.00264886 0 0.00234941)
(-0.00296849 0 0.00158029)
(-0.0031946 0 0.000845515)
(-0.00333097 0 0.000151506)
(-0.00338234 0 -0.00049671)
(-0.00335418 0 -0.00109526)
(-0.00325248 0 -0.00164116)
(-0.00308367 0 -0.00213232)
(-0.00285446 0 -0.00256743)
(-0.00257183 0 -0.00294589)
(-0.0022429 0 -0.00326762)
(-0.0018749 0 -0.00353292)
(-0.0014751 0 -0.00374231)
(-0.00105085 0 -0.00389639)
(-0.000609466 0 -0.00399572)
(-0.000158281 0 -0.00404072)
(0.000295378 0 -0.00403164)
(0.000744193 0 -0.00396847)
(0.00118085 0 -0.00385102)
(0.00159802 0 -0.00367887)
(0.00198843 0 -0.00345152)
(0.00234478 0 -0.00316847)
(0.00265985 0 -0.00282931)
(0.00292649 0 -0.00243389)
(0.00313767 0 -0.00198249)
(0.00328654 0 -0.00147594)
(0.00336653 0 -0.00091579)
(0.00337139 0 -0.000304409)
(0.00329532 0 0.000354948)
(0.00313311 0 0.00105815)
(0.00288036 0 0.00179983)
(0.00253362 0 0.00257321)
(0.00209062 0 0.00336991)
(0.00155036 0 0.00417996)
(0.000913339 0 0.00499174)
(0.000181654 0 0.00579204)
(-0.000640846 0 0.00656626)
(-0.00154844 0 0.00729853)
(-0.00253347 0 0.00797201)
(-0.00358623 0 0.00856922)
(-0.00469504 0 0.0090724)
(-0.0058462 0 0.00946394)
(-0.00702414 0 0.00972687)
(-0.0082115 0 0.00984536)
(-0.0093894 0 0.00980523)
(-0.0105377 0 0.00959453)
(-0.0116351 0 0.00920402)
(-0.0126601 0 0.00862763)
(-0.0135907 0 0.00786297)
(-0.0144053 0 0.00691166)
(-0.0150831 0 0.00577963)
(-0.0156048 0 0.00447735)
(-0.0159529 0 0.00301998)
(-0.0161122 0 0.00142744)
(-0.0160709 0 -0.000275614)
(-0.0158203 0 -0.0020597)
(-0.0153556 0 -0.00389113)
(-0.0146757 0 -0.00573295)
(-0.0137837 0 -0.00754602)
(-0.012687 0 -0.00929006)
(-0.0113972 0 -0.0109248)
(-0.00993025 0 -0.012411)
(-0.008306 0 -0.0137117)
(-0.00654803 0 -0.0147931)
(-0.00468324 0 -0.0156257)
(-0.0027412 0 -0.0161853)
(-0.000753552 0 -0.0164545)
(0.00105189 0 -0.0182732)
(0.00271699 0 -0.0179146)
(0.00433913 0 -0.0172356)
(0.00589311 0 -0.0162572)
(0.0073553 0 -0.0150075)
(0.00870419 0 -0.0135204)
(0.00992085 0 -0.0118343)
(0.0109893 0 -0.00999077)
(0.0118968 0 -0.0080337)
(0.0126339 0 -0.00600783)
(0.0131947 0 -0.00395764)
(0.0135766 0 -0.00192609)
(0.0137804 0 4.64467e-05)
(0.01381 0 0.00192327)
(0.0136723 0 0.00367251)
(0.0133771 0 0.00526745)
(0.0129367 0 0.00668663)
(0.0123656 0 0.0079139)
(0.0116797 0 0.00893831)
(0.0108962 0 0.009754)
(0.0100331 0 0.0103599)
(0.00910857 0 0.0107593)
(0.00814074 0 0.0109597)
(0.0071473 0 0.0109718)
(0.00614516 0 0.0108096)
(0.00515021 0 0.0104891)
(0.00417705 0 0.0100283)
(0.00323887 0 0.00944638)
(0.00234727 0 0.00876292)
(0.00151224 0 0.00799779)
(0.00074207 0 0.00717041)
(4.33699e-05 0 0.0062994)
(-0.000578881 0 0.00540226)
(-0.00112128 0 0.00449507)
(-0.00158193 0 0.00359229)
(-0.00196028 0 0.00270663)
(-0.00225707 0 0.00184901)
(-0.00247419 0 0.00102854)
(-0.00261451 0 0.000252631)
(-0.00268179 0 -0.000472858)
(-0.00268048 0 -0.00114343)
(-0.00261554 0 -0.00175562)
(-0.00249233 0 -0.00230697)
(-0.00231656 0 -0.00279588)
(-0.00209417 0 -0.00322155)
(-0.00183125 0 -0.00358375)
(-0.00153407 0 -0.00388268)
(-0.00120895 0 -0.00411879)
(-0.000862291 0 -0.00429265)
(-0.000500527 0 -0.00440479)
(-0.000130107 0 -0.00445564)
(0.000242511 0 -0.00444543)
(0.00061087 0 -0.00437418)
(0.000968521 0 -0.00424169)
(0.00130903 0 -0.00404756)
(0.00162601 0 -0.00379134)
(0.0019131 0 -0.00347256)
(0.00216402 0 -0.0030909)
(0.0023726 0 -0.00264633)
(0.00253283 0 -0.00213929)
(0.00263888 0 -0.00157085)
(0.0026852 0 -0.000942865)
(0.00266656 0 -0.000258097)
(0.00257819 0 0.000479676)
(0.00241587 0 0.00126564)
(0.00217614 0 0.00209357)
(0.00185643 0 0.00295564)
(0.00145521 0 0.00384231)
(0.000972112 0 0.00474228)
(0.000408064 0 0.00564246)
(-0.000234609 0 0.0065281)
(-0.000952085 0 0.00738287)
(-0.00173896 0 0.00818914)
(-0.00258819 0 0.00892826)
(-0.00349108 0 0.00958088)
(-0.00443726 0 0.0101274)
(-0.00541476 0 0.0105485)
(-0.0064101 0 0.0108255)
(-0.00740842 0 0.0109411)
(-0.00839364 0 0.0108799)
(-0.00934874 0 0.010629)
(-0.010256 0 0.0101784)
(-0.0110974 0 0.00952194)
(-0.0118547 0 0.00865723)
(-0.0125105 0 0.00758653)
(-0.0130478 0 0.00631686)
(-0.0134511 0 0.0048603)
(-0.0137065 0 0.00323409)
(-0.0138024 0 0.0014607)
(-0.0137296 0 -0.000432202)
(-0.0134819 0 -0.00241183)
(-0.0130561 0 -0.00444103)
(-0.0124523 0 -0.00647921)
(-0.0116737 0 -0.00848344)
(-0.010727 0 -0.0104096)
(-0.00962229 0 -0.0122136)
(-0.00837294 0 -0.0138525)
(-0.00699553 0 -0.0152859)
(-0.00550949 0 -0.0164768)
(-0.00393687 0 -0.0173931)
(-0.00230173 0 -0.0180086)
(-0.000629902 0 -0.0183041)
(0.000867583 0 -0.0197922)
(0.0022356 0 -0.0194071)
(0.00356963 0 -0.0186786)
(0.00484974 0 -0.0176291)
(0.00605729 0 -0.0162881)
(0.00717519 0 -0.0146917)
(0.00818829 0 -0.0128805)
(0.00908365 0 -0.010899)
(0.00985074 0 -0.00879371)
(0.0104816 0 -0.00661248)
(0.0109708 0 -0.00440273)
(0.0113158 0 -0.00221041)
(0.0115162 0 -7.87399e-05)
(0.0115745 0 0.00195284)
(0.0114955 0 0.00384974)
(0.0112862 0 0.00558281)
(0.010956 0 0.00712848)
(0.0105158 0 0.00846885)
(0.00997827 0 0.00959165)
(0.00935683 0 0.0104901)
(0.0086658 0 0.0111625)
(0.00791988 0 0.0116121)
(0.00713377 0 0.0118464)
(0.00632197 0 0.0118768)
(0.00549844 0 0.0117178)
(0.00467641 0 0.0113866)
(0.00386814 0 0.0109024)
(0.00308483 0 0.0102854)
(0.00233644 0 0.00955695)
(0.00163163 0 0.00873821)
(0.000977732 0 0.00785016)
(0.000380698 0 0.00691291)
(-0.000154851 0 0.00594543)
(-0.000625609 0 0.00496519)
(-0.00102952 0 0.00398798)
(-0.0013657 0 0.00302774)
(-0.00163437 0 0.00209652)
(-0.00183673 0 0.00120443)
(-0.0019749 0 0.000359783)
(-0.00205175 0 -0.000430822)
(-0.0020708 0 -0.0011623)
(-0.00203606 0 -0.00183073)
(-0.00195193 0 -0.00243328)
(-0.00182311 0 -0.0029681)
(-0.00165454 0 -0.00343415)
(-0.00145136 0 -0.00383105)
(-0.00121883 0 -0.00415887)
(-0.000962344 0 -0.00441798)
(-0.000687349 0 -0.00460888)
(-0.000399355 0 -0.00473209)
(-0.0001039 0 -0.004788)
(0.000193458 0 -0.00477684)
(0.000487163 0 -0.00469863)
(0.000771668 0 -0.00455317)
(0.00104145 0 -0.00434014)
(0.00129104 0 -0.0040591)
(0.00151502 0 -0.00370966)
(0.00170807 0 -0.0032916)
(0.00186499 0 -0.00280503)
(0.00198073 0 -0.00225057)
(0.00205045 0 -0.00162952)
(0.00206957 0 -0.000944036)
(0.00203383 0 -0.000197266)
(0.00193939 0 0.000606524)
(0.00178293 0 0.00146189)
(0.00156181 0 0.00236181)
(0.00127421 0 0.00329756)
(0.00091922 0 0.00425855)
(0.000496935 0 0.00523233)
(8.57007e-06 0 0.00620458)
(-0.000543474 0 0.00715919)
(-0.00115554 0 0.00807846)
(-0.00182267 0 0.00894327)
(-0.00253855 0 0.00973348)
(-0.00329553 0 0.0104283)
(-0.00408465 0 0.0110066)
(-0.00489566 0 0.0114477)
(-0.00571716 0 0.0117316)
(-0.00653666 0 0.01184)
(-0.00734082 0 0.0117566)
(-0.00811559 0 0.0114676)
(-0.00884649 0 0.0109628)
(-0.00951885 0 0.0102359)
(-0.0101182 0 0.00928467)
(-0.0106304 0 0.00811211)
(-0.0110422 0 0.00672626)
(-0.0113416 0 0.00514058)
(-0.0115179 0 0.00337415)
(-0.0115624 0 0.0014516)
(-0.0114685 0 -0.000596912)
(-0.0112321 0 -0.00273592)
(-0.0108513 0 -0.00492549)
(-0.0103268 0 -0.00712215)
(-0.0096619 0 -0.00928004)
(-0.00886258 0 -0.0113521)
(-0.00793735 0 -0.0132912)
(-0.00689721 0 -0.0150517)
(-0.0057556 0 -0.0165904)
(-0.00452815 0 -0.0178681)
(-0.0032324 0 -0.0188506)
(-0.00188744 0 -0.0195101)
(-0.000513739 0 -0.0198263)
(0.000691381 0 -0.0210218)
(0.00177594 0 -0.0206159)
(0.00283479 0 -0.019849)
(0.0038528 0 -0.0187442)
(0.00481589 0 -0.0173323)
(0.00571108 0 -0.0156508)
(0.00652674 0 -0.0137421)
(0.0072528 0 -0.0116526)
(0.00788088 0 -0.00943109)
(0.00840444 0 -0.00712742)
(0.00881883 0 -0.00479134)
(0.0091213 0 -0.00247104)
(0.00931104 0 -0.000211927)
(0.00938907 0 0.00194439)
(0.00935835 0 0.00396117)
(0.00922366 0 0.00580725)
(0.00899154 0 0.00745729)
(0.00867 0 0.0088919)
(0.00826829 0 0.0100976)
(0.00779663 0 0.0110667)
(0.00726597 0 0.0117971)
(0.00668763 0 0.0122916)
(0.00607315 0 0.0125578)
(0.00543395 0 0.0126074)
(0.00478118 0 0.0124554)
(0.00412547 0 0.0121196)
(0.00347683 0 0.0116201)
(0.00284443 0 0.0109783)
(0.00223659 0 0.0102164)
(0.00166059 0 0.00935675)
(0.00112273 0 0.00842161)
(0.000628208 0 0.00743226)
(0.000181177 0 0.00640886)
(-0.00021527 0 0.00537004)
(-0.000559055 0 0.0043327)
(-0.000849073 0 0.00331181)
(-0.00108514 0 0.00232037)
(-0.0012679 0 0.00136941)
(-0.00139879 0 0.000467989)
(-0.00147992 0 -0.000376611)
(-0.00151394 0 -0.00115877)
(-0.00150397 0 -0.00187414)
(-0.00145349 0 -0.00251956)
(-0.00136625 0 -0.0030929)
(-0.00124623 0 -0.00359293)
(-0.0010976 0 -0.00401908)
(-0.000924663 0 -0.00437131)
(-0.000731834 0 -0.00464988)
(-0.000523617 0 -0.00485524)
(-0.000304576 0 -0.00498784)
(-7.93156e-05 0 -0.00504805)
(0.000147541 0 -0.00503609)
(0.000371366 0 -0.00495198)
(0.000587545 0 -0.00479556)
(0.000791491 0 -0.00456652)
(0.000978672 0 -0.0042645)
(0.00114462 0 -0.00388919)
(0.00128497 0 -0.00344047)
(0.00139549 0 -0.0029186)
(0.00147207 0 -0.00232438)
(0.00151084 0 -0.00165933)
(0.00150815 0 -0.000925894)
(0.00146064 0 -0.000127579)
(0.00136534 0 0.000730907)
(0.00121974 0 0.00164354)
(0.00102195 0 0.00260259)
(0.000770781 0 0.00359853)
(0.000465824 0 0.00461988)
(0.000107533 0 0.00565321)
(-0.000302718 0 0.00668314)
(-0.000762576 0 0.00769247)
(-0.00126867 0 0.00866231)
(-0.00181657 0 0.00957239)
(-0.00240081 0 0.0104014)
(-0.00301485 0 0.0111272)
(-0.00365116 0 0.0117278)
(-0.00430124 0 0.0121812)
(-0.00495573 0 0.0124667)
(-0.0056045 0 0.012565)
(-0.00623683 0 0.0124591)
(-0.00684153 0 0.0121349)
(-0.00740717 0 0.011582)
(-0.00792233 0 0.0107939)
(-0.00837578 0 0.00976902)
(-0.0087568 0 0.00851084)
(-0.00905542 0 0.00702835)
(-0.00926269 0 0.00533628)
(-0.00937096 0 0.00345525)
(-0.00937414 0 0.00141172)
(-0.00926784 0 -0.000762147)
(-0.00904955 0 -0.00302874)
(-0.00871861 0 -0.00534594)
(-0.00827629 0 -0.00766809)
(-0.00772573 0 -0.00994708)
(-0.00707204 0 -0.0121336)
(-0.00632214 0 -0.0141784)
(-0.0054848 0 -0.0160336)
(-0.00457049 0 -0.0176542)
(-0.00359128 0 -0.0189993)
(-0.00256051 0 -0.0200331)
(-0.00149274 0 -0.0207265)
(-0.000403427 0 -0.0210585)
(0.000521526 0 -0.0219717)
(0.00133348 0 -0.0215505)
(0.00212737 0 -0.0207555)
(0.00289262 0 -0.0196101)
(0.00361938 0 -0.0181463)
(0.0042985 0 -0.0164024)
(0.00492165 0 -0.014422)
(0.00548149 0 -0.0122528)
(0.00597173 0 -0.00994494)
(0.00638726 0 -0.00754993)
(0.00672421 0 -0.00511902)
(0.00697993 0 -0.00270195)
(0.00715309 0 -0.000345758)
(0.00724367 0 0.00190639)
(0.00725298 0 0.00401609)
(0.00718375 0 0.00595062)
(0.00704004 0 0.00768321)
(0.00682709 0 0.00919323)
(0.00655119 0 0.0104662)
(0.00621945 0 0.0114936)
(0.00583965 0 0.0122727)
(0.00541999 0 0.0128061)
(0.00496894 0 0.0131013)
(0.004495 0 0.01317)
(0.00400659 0 0.0130276)
(0.00351184 0 0.0126922)
(0.00301848 0 0.0121847)
(0.00253373 0 0.0115269)
(0.0020642 0 0.010742)
(0.0016158 0 0.00985323)
(0.00119369 0 0.00888367)
(0.000802275 0 0.00785556)
(0.000445137 0 0.00678996)
(0.000125069 0 0.00570644)
(-0.000155931 0 0.00462275)
(-0.000396628 0 0.00355475)
(-0.000596522 0 0.00251622)
(-0.000755804 0 0.00151892)
(-0.000875302 0 0.000572584)
(-0.000956412 0 -0.000314932)
(-0.00100102 0 -0.00113753)
(-0.00101139 0 -0.00189049)
(-0.000990127 0 -0.00257034)
(-0.000940056 0 -0.00317472)
(-0.000864224 0 -0.00370219)
(-0.00076584 0 -0.00415203)
(-0.000648249 0 -0.00452406)
(-0.000514908 0 -0.00481846)
(-0.00036936 0 -0.00503559)
(-0.00021521 0 -0.00517584)
(-5.61086e-05 0 -0.00523957)
(0.000104271 0 -0.00522696)
(0.000262251 0 -0.00513806)
(0.000414167 0 -0.00497272)
(0.000556385 0 -0.00473068)
(0.000685325 0 -0.00441163)
(0.000797477 0 -0.00401535)
(0.000889431 0 -0.00354183)
(0.000957892 0 -0.00299148)
(0.000999716 0 -0.00236525)
(0.00101194 0 -0.00166489)
(0.000991811 0 -0.000893102)
(0.000936853 0 -5.36977e-05)
(0.000844894 0 0.000848223)
(0.000714181 0 0.00180611)
(0.000543492 0 0.00281165)
(0.000332189 0 0.0038546)
(8.02829e-05 0 0.00492276)
(-0.000211521 0 0.00600188)
(-0.000541779 0 0.00707574)