/*--------------------------------*- C++ -*----------------------------------*\
| =========                 |                                                 |
| \\      /  F ield         | OpenFOAM: The Open Source CFD Toolbox           |
|  \\    /   O peration     | Version:  2.3.0                                 |
|   \\  /    A nd           | Web:      www.OpenFOAM.org                      |
|    \\/     M anipulation  |                                                 |
\*---------------------------------------------------------------------------*/
FoamFile
{
    version     2.0;
    format      ascii;
    class       volScalarField;
    location    "23000";
    object      p;
}
// * * * * * * * * * * * * * * * * * * * * * * * * * * * * * * * * * * * * * //

dimensions      [0 2 -2 0 0 0 0];

internalField   nonuniform List<scalar> 
191
(
-1582.03
-1562.11
-1537.61
-1506.31
-1464.62
-1408.55
-1341.64
-1263.82
-1171.78
-1109.86
-1126.57
-1208.21
-1296.79
-1432.72
-1418.72
-1402.52
-1383.64
-1360.75
-1332.15
-1298.78
-1274.31
-1281.53
-1282.47
-1282.88
-1276.87
-1280.62
-1317.58
-1310.88
-1304.21
-1297.71
-1284.42
-1268.13
-1247.79
-1212.52
-1204.31
-1203.23
-1203.67
-1205.29
-1224.76
-1212.56
-1209.29
-1205.81
-1201.84
-1186.98
-1161.26
-1139.36
-1129.94
-1122.95
-1117.61
-1119.13
-1125.72
-1133.2
-1104.35
-1101.66
-1098.07
-1093.83
-1083.83
-1062.77
-1030.36
-1022.71
-1022.93
-1021.6
-1022.06
-1022.96
-990.444
-988.251
-985.098
-981.196
-974.815
-961.882
-935.974
-931.769
-933.137
-932.675
-932.909
-932.335
-870.884
-869.624
-867.72
-865.38
-862.006
-857.369
-847.553
-846.897
-846.505
-845.832
-846.095
-846.513
-746.394
-746.376
-746.15
-745.983
-745.317
-748.696
-761.531
-765.864
-762.881
-761.195
-761.631
-764.79
-616.91
-618.503
-620.158
-622.092
-624.61
-626.941
-638.923
-675.715
-684.606
-679.246
-676.728
-677.353
-683.392
-485.675
-489.105
-492.971
-497.64
-503.461
-510.29
-533.616
-590.791
-600.224
-592.836
-590.722
-591.082
-597.062
-355.211
-361.189
-368.131
-376.617
-386.856
-399.777
-427.144
-492.7
-506.54
-502.143
-502.609
-502.255
-503.197
-230.753
-239.727
-249.432
-259.408
-267.614
-283.784
-319.918
-383.632
-402.572
-410.301
-415.389
-414.087
-407.266
-117.821
-127.79
-135.382
-141.059
-143.852
-158.037
-210.951
-276.313
-311.63
-333.53
-343.792
-341.214
-325.998
-15.18
-15.9171
-15.4393
-20.2311
-35.5111
-66.5329
-119.083
-170.192
-202.643
-223.79
-233.613
-231.162
-216.724
81.8434
71.5976
53.2962
21.4144
-30.2437
-105.097
-194.573
-283.392
-354.723
-404.967
-428.85
-422.919
-388.21
)
;

boundaryField
{
    top
    {
        type            calculated;
        value           nonuniform List<scalar> 
13
(
-9.81
-9.81
-9.81
-9.81
-9.81
-9.81
-9.81
-9.81
-9.81
-9.81
-9.81
-9.81
-9.81
)
;
    }
    bottom
    {
        type            calculated;
        value           nonuniform List<scalar> 
13
(
-1668.02
-1646.46
-1619.93
-1586.13
-1541.43
-1481.67
-1411.39
-1331.06
-1237.26
-1174.6
-1191.52
-1274.28
-1364.93
)
;
    }
    frontAndBack
    {
        type            empty;
    }
    left_cyc
    {
        type            cyclic;
    }
    right_cyc
    {
        type            cyclic;
    }
    procBoundary2to1
    {
        type            processor;
        value           nonuniform List<scalar> 
16
(
-1598.88
-1445.14
-1324.25
-1215.82
-1106.49
-991.948
-871.606
-746.141
-746.141
-615.274
-482.505
-349.923
-222.704
-107.256
-11.7235
86.3246
)
;
    }
    procBoundary2to3
    {
        type            processor;
        value           nonuniform List<scalar> 
16
(
-1368.75
-1312.85
-1257.67
-1143.42
-1024.61
-1024.61
-933.098
-847.788
-766.746
-686.334
-599.109
-504.324
-399.133
-299.762
-191.456
-329.197
)
;
    }
}


// ************************************************************************* //
