/*--------------------------------*- C++ -*----------------------------------*\
| =========                 |                                                 |
| \\      /  F ield         | OpenFOAM: The Open Source CFD Toolbox           |
|  \\    /   O peration     | Version:  2.3.0                                 |
|   \\  /    A nd           | Web:      www.OpenFOAM.org                      |
|    \\/     M anipulation  |                                                 |
\*---------------------------------------------------------------------------*/
FoamFile
{
    version     2.0;
    format      ascii;
    class       volScalarField;
    location    "23000";
    object      p_rgh;
}
// * * * * * * * * * * * * * * * * * * * * * * * * * * * * * * * * * * * * * //

dimensions      [0 2 -2 0 0 0 0];

internalField   nonuniform List<scalar> 
191
(
-1668.02
-1646.46
-1619.93
-1586.13
-1541.43
-1481.67
-1411.39
-1331.06
-1237.26
-1174.6
-1191.52
-1274.28
-1364.93
-1629.84
-1608.22
-1582.66
-1551.88
-1514.69
-1472.7
-1428.37
-1394.85
-1395.09
-1392.32
-1393.78
-1392.92
-1404.58
-1587.48
-1569.06
-1549.34
-1528.32
-1498.33
-1463.42
-1423.85
-1370.51
-1347.8
-1338.82
-1341.47
-1354.02
-1389.79
-1575.74
-1561.74
-1544.99
-1523.74
-1485.99
-1431.72
-1377.93
-1336.98
-1304.26
-1285.02
-1290.31
-1316.25
-1352.56
-1594.34
-1581.12
-1562.01
-1534.66
-1491.51
-1427.07
-1345.02
-1287.57
-1246.94
-1223.77
-1230.02
-1261.47
-1628.27
-1614.18
-1591.36
-1556.52
-1504.71
-1430.86
-1333.83
-1257.66
-1199.79
-1167.9
-1176.32
-1219.86
-1665.52
-1649.78
-1622.89
-1580.76
-1518.81
-1434.75
-1330.45
-1233.21
-1152.86
-1109.75
-1120.98
-1180.93
-1697.77
-1679.18
-1647.54
-1598.29
-1526.04
-1432.18
-1326.97
-1209.27
-1104.37
-1047.91
-1062.55
-1142.05
-1732.66
-1718.36
-1694.84
-1657.57
-1601.91
-1521.06
-1418.92
-1314.61
-1177.41
-1048.94
-978.712
-997.13
-1096.41
-1740.47
-1719.83
-1689.07
-1644.48
-1581.93
-1494.08
-1387.44
-1283.55
-1127.61
-979.499
-897.921
-919.508
-1033.47
-1711.8
-1683.03
-1643.86
-1591.81
-1523.33
-1430.45
-1314.85
-1207.96
-1045.99
-889.993
-802.364
-825.932
-944.877
-1609.16
-1572.41
-1525.71
-1465.96
-1387.63
-1290.86
-1180.73
-1075.5
-921.537
-777.397
-691.692
-715.412
-828.567
-1372.72
-1331
-1279.92
-1216.39
-1134.65
-1043.08
-965.722
-882.361
-764.463
-649.725
-576.276
-597.082
-691.262
-944.888
-901.051
-852.641
-803.47
-754.565
-706.661
-664.099
-607.798
-529.278
-450.068
-396.984
-412.3
-479.231
-284.613
-272.453
-269.573
-279.624
-306.933
-353.115
-408.47
-457.851
-486.449
-495.955
-493.112
-494.844
-494.115
)
;

boundaryField
{
    top
    {
        type            fixedValue;
        value           uniform 0;
    }
    bottom
    {
        type            fixedFluxPressure;
        gradient        uniform 0;
        value           nonuniform List<scalar> 
13
(
-1668.02
-1646.46
-1619.93
-1586.13
-1541.43
-1481.67
-1411.39
-1331.06
-1237.26
-1174.6
-1191.52
-1274.28
-1364.93
)
;
    }
    frontAndBack
    {
        type            empty;
    }
    left_cyc
    {
        type            cyclic;
    }
    right_cyc
    {
        type            cyclic;
    }
    procBoundary2to1
    {
        type            processor;
        value           nonuniform List<scalar> 
16
(
-1686.18
-1648.7
-1604.78
-1588.32
-1604.15
-1637.01
-1674.23
-1707.99
-1707.99
-1741.69
-1754.58
-1733.21
-1639.04
-1408.99
-985.512
-304.045
)
;
    }
    procBoundary2to3
    {
        type            processor;
        value           nonuniform List<scalar> 
16
(
-1439.69
-1446.55
-1441.53
-1395.14
-1308.8
-1308.8
-1286.76
-1271.24
-1257.01
-1235.12
-1189.57
-1110.23
-983.476
-810.789
-560.295
-477.381
)
;
    }
}


// ************************************************************************* //
