/*--------------------------------*- C++ -*----------------------------------*\
| =========                 |                                                 |
| \\      /  F ield         | OpenFOAM: The Open Source CFD Toolbox           |
|  \\    /   O peration     | Version:  2.3.0                                 |
|   \\  /    A nd           | Web:      www.OpenFOAM.org                      |
|    \\/     M anipulation  |                                                 |
\*---------------------------------------------------------------------------*/
FoamFile
{
    version     2.0;
    format      ascii;
    class       volScalarField;
    location    "23000";
    object      T;
}
// * * * * * * * * * * * * * * * * * * * * * * * * * * * * * * * * * * * * * //

dimensions      [0 0 0 1 0 0 0];

internalField   nonuniform List<scalar> 
191
(
37.8072
37.0906
36.1972
35.1032
33.7885
32.1686
30.6919
29.5935
28.8276
28.4968
28.5899
29.0814
29.987
28.924
27.811
26.4442
24.7065
22.6184
20.6635
19.0635
17.7416
16.7232
16.181
16.3346
17.0867
18.241
23.7865
22.7604
21.6164
20.3448
18.8818
17.2505
15.566
13.9834
12.7127
12.021
12.2139
13.1716
14.5999
22.8683
22.1965
21.3664
20.2849
18.8531
17.0663
15.0709
13.0984
11.4879
10.618
10.8542
12.0655
13.8692
23.9895
23.4769
22.7215
21.5968
19.9839
17.8728
15.4567
13.0332
11.0446
9.9824
10.2638
11.7507
25.5403
25.0664
24.2835
23.0516
21.2427
18.817
15.9851
13.1197
10.7607
9.50938
9.83527
11.5919
26.9162
26.4284
25.5865
24.2461
22.2724
19.5967
16.413
13.1591
10.4651
9.03508
9.4046
11.4106
27.9234
27.381
26.4638
25.0307
22.9403
20.101
16.6541
13.0908
10.1146
8.51531
8.93008
11.1591
28.8901
28.4807
27.832
26.822
25.323
23.1801
20.2395
16.6041
12.8402
9.66828
7.92376
8.38216
10.7844
29.0696
28.5146
27.7164
26.5809
25.0048
22.8222
19.8262
16.1131
12.301
9.05684
7.22496
7.7143
10.2036
28.4378
27.713
26.7513
25.4887
23.8468
21.64
18.6582
15.0614
11.3946
8.23266
6.39526
6.8942
9.35541
26.3929
25.5221
24.4479
23.1201
21.4722
19.3215
16.536
13.3187
10.0261
7.13401
5.40499
5.8815
8.16627
22.1291
21.2236
20.1955
18.983
17.5021
15.6492
13.3668
10.7612
8.07686
5.68296
4.21636
4.62603
6.54266
15.2252
14.5021
13.7245
12.8491
11.8079
10.5275
8.98459
7.24216
5.44197
3.81395
2.79347
3.08169
4.40167
5.67798
5.33958
5.01967
4.68994
4.32219
3.88915
3.37381
2.77816
2.13274
1.51746
1.11381
1.22955
1.74275
)
;

boundaryField
{
    top
    {
        type            fixedValue;
        value           uniform 0;
    }
    bottom
    {
        type            fixedValue;
        value           uniform 43.8;
    }
    frontAndBack
    {
        type            empty;
    }
    left_cyc
    {
        type            cyclic;
    }
    right_cyc
    {
        type            cyclic;
    }
    procBoundary2to1
    {
        type            processor;
        value           nonuniform List<scalar> 
16
(
38.3786
29.8637
24.7176
23.4508
24.3626
25.8283
27.1856
28.2293
28.2293
29.1651
29.468
28.9946
27.1153
22.9496
15.9402
6.03915
)
;
    }
    procBoundary2to3
    {
        type            processor;
        value           nonuniform List<scalar> 
16
(
31.215
19.6626
16.2491
15.8938
13.9739
13.9739
14.2254
14.4103
14.459
14.2825
13.7549
12.7807
11.2712
9.09642
6.12662
2.38131
)
;
    }
}


// ************************************************************************* //
