/*--------------------------------*- C++ -*----------------------------------*\
| =========                 |                                                 |
| \\      /  F ield         | OpenFOAM: The Open Source CFD Toolbox           |
|  \\    /   O peration     | Version:  2.3.0                                 |
|   \\  /    A nd           | Web:      www.OpenFOAM.org                      |
|    \\/     M anipulation  |                                                 |
\*---------------------------------------------------------------------------*/
FoamFile
{
    version     2.0;
    format      ascii;
    class       volVectorField;
    location    "23000";
    object      U;
}
// * * * * * * * * * * * * * * * * * * * * * * * * * * * * * * * * * * * * * //

dimensions      [0 1 -1 0 0 0 0];

internalField   nonuniform List<vector> 
191
(
(-59.8761 0 3.48336)
(-64.0708 0 4.73895)
(-69.2092 0 6.26459)
(-75.0986 0 7.29323)
(-79.7671 0 5.59771)
(-78.0819 0 -0.696838)
(-67.7559 0 -9.56278)
(-50.766 0 -18.4517)
(-29.0143 0 -24.6215)
(-6.83651 0 -25.7153)
(15.396 0 -25.5379)
(37.5416 0 -22.9216)
(58.1175 0 -15.068)
(-79.4072 0 3.96338)
(-77.139 0 4.29039)
(-73.125 0 4.13565)
(-66.9147 0 2.20413)
(-57.7323 0 -4.22537)
(-45.507 0 -15.1444)
(-32.2238 0 -22.2537)
(-21.0107 0 -24.3001)
(-11.9442 0 -26.0003)
(-2.93864 0 -26.8656)
(6.25295 0 -26.6696)
(15.2427 0 -25.429)
(24.7933 0 -23.7297)
(-71.1944 0 -0.107404)
(-65.2886 0 -1.73743)
(-57.1588 0 -4.04559)
(-47.1636 0 -7.5757)
(-35.953 0 -13.5991)
(-28.4841 0 -22.4809)
(-22.5019 0 -29.5013)
(-16.1355 0 -33.2312)
(-9.2523 0 -35.113)
(-2.25432 0 -35.8919)
(4.79633 0 -35.7261)
(11.7757 0 -34.5833)
(18.4977 0 -32.16)
(-60.1488 0 -5.57308)
(-54.0316 0 -9.17035)
(-45.8946 0 -13.3852)
(-36.3717 0 -17.806)
(-26.168 0 -22.4681)
(-20.3536 0 -28.3767)
(-16.1773 0 -34.4141)
(-11.8214 0 -38.3575)
(-6.92684 0 -40.8289)
(-1.70942 0 -41.9639)
(3.60451 0 -41.705)
(8.71536 0 -40.0679)
(13.3986 0 -37.1013)
(-48.2782 0 -10.5289)
(-43.3569 0 -15.9005)
(-36.7078 0 -21.8456)
(-28.8257 0 -26.9584)
(-20.1854 0 -29.9038)
(-14.2732 0 -33.0108)
(-11.0247 0 -38.2623)
(-7.98813 0 -42.3568)
(-4.67942 0 -45.114)
(-1.16521 0 -46.4031)
(2.42362 0 -46.1031)
(5.86661 0 -44.2478)
(-33.7369 0 -14.0991)
(-30.5744 0 -20.8627)
(-26.1083 0 -28.2983)
(-20.524 0 -34.4057)
(-14.133 0 -36.863)
(-8.70037 0 -37.4617)
(-6.50019 0 -41.0044)
(-4.64138 0 -44.8123)
(-2.73199 0 -47.7165)
(-0.690535 0 -49.1421)
(1.40233 0 -48.8044)
(3.40124 0 -46.7779)
(-15.8121 0 -15.9378)
(-14.4774 0 -23.5895)
(-12.3992 0 -32.0818)
(-9.61793 0 -39.0778)
(-6.17108 0 -41.6951)
(-3.14628 0 -40.4868)
(-2.30646 0 -42.5802)
(-1.67206 0 -46.0629)
(-1.03379 0 -49.0215)
(-0.274424 0 -50.5358)
(0.523542 0 -50.1722)
(1.24257 0 -48.0399)
(4.78654 0 -16.2406)
(4.47055 0 -24.2405)
(4.17552 0 -33.163)
(3.77387 0 -40.5518)
(3.64231 0 -43.3142)
(2.721 0 -41.1594)
(1.863 0 -42.6152)
(1.12775 0 -46.0574)
(0.548967 0 -49.1174)
(0.111689 0 -50.7105)
(-0.286492 0 -50.3235)
(-0.778806 0 -48.0827)
(27.3916 0 -9.49214)
(26.1557 0 -15.2729)
(24.4141 0 -22.9713)
(21.8712 0 -31.4388)
(18.2173 0 -38.332)
(14.2288 0 -40.808)
(8.65732 0 -38.8378)
(6.11469 0 -40.7884)
(3.99024 0 -44.7382)
(2.17896 0 -48.0271)
(0.505202 0 -49.7004)
(-1.13537 0 -49.2939)
(-2.87187 0 -46.9275)
(47.1387 0 -8.09611)
(45.1849 0 -13.2401)
(42.1835 0 -19.9162)
(37.6416 0 -26.9707)
(31.1887 0 -32.4024)
(23.6603 0 -34.159)
(14.1758 0 -33.6857)
(10.5026 0 -37.4463)
(7.17717 0 -42.1594)
(4.02603 0 -45.6759)
(0.942649 0 -47.3884)
(-2.14761 0 -46.9705)
(-5.28246 0 -44.5114)
(60.3693 0 -6.20841)
(57.7579 0 -10.3037)
(53.6522 0 -15.518)
(47.5191 0 -20.7642)
(39.1576 0 -24.3676)
(28.929 0 -24.995)
(19.9444 0 -26.0027)
(15.4257 0 -32.993)
(10.976 0 -38.3181)
(6.25587 0 -41.8476)
(1.46701 0 -43.5027)
(-3.38176 0 -43.0921)
(-8.15474 0 -40.6765)
(63.0576 0 -4.06011)
(59.8977 0 -6.75517)
(55.0225 0 -10.0126)
(48.1952 0 -12.5328)
(40.3618 0 -12.974)
(31.3842 0 -14.6898)
(26.2172 0 -20.5747)
(21.3117 0 -27.8549)
(15.3281 0 -32.9856)
(8.83246 0 -36.2096)
(2.0737 0 -37.7017)
(-4.77511 0 -37.3286)
(-11.4391 0 -35.1399)
(56.4115 0 -1.04174)
(54.3819 0 -2.09416)
(51.2322 0 -3.3877)
(46.508 0 -5.15747)
(41.5662 0 -7.47537)
(37.5177 0 -10.8059)
(33.2064 0 -16.0559)
(27.1918 0 -21.8092)
(19.648 0 -26.0549)
(11.3732 0 -28.7887)
(2.67063 0 -30.0578)
(-6.14458 0 -29.7409)
(-14.7103 0 -27.8832)
(55.1888 0 -0.552484)
(53.8807 0 -1.16481)
(52.0711 0 -1.8305)
(49.6667 0 -2.70581)
(46.6846 0 -4.12017)
(43.088 0 -6.5503)
(38.3056 0 -9.94476)
(31.4955 0 -13.584)
(22.9545 0 -16.4214)
(13.3599 0 -18.3034)
(3.14567 0 -19.1801)
(-7.21962 0 -18.9601)
(-17.2411 0 -17.6758)
(55.2977 0 1.60399)
(54.5175 0 1.21402)
(53.4098 0 0.694188)
(51.9354 0 -0.123189)
(49.9003 0 -1.45043)
(46.8188 0 -3.46626)
(41.9586 0 -6.07535)
(34.7943 0 -8.74535)
(25.5912 0 -10.8989)
(14.9828 0 -12.3823)
(3.53927 0 -13.0828)
(-8.10508 0 -12.9079)
(-19.2894 0 -11.8872)
)
;

boundaryField
{
    top
    {
        type            directionMixed;
        refValue        uniform (0 0 0);
        refGradient     uniform (0 0 0);
        valueFraction   uniform (0 0 0 0 0 1);
        value           nonuniform List<vector> 
13
(
(55.2977 0 0)
(54.5175 0 0)
(53.4098 0 0)
(51.9354 0 0)
(49.9003 0 0)
(46.8188 0 0)
(41.9586 0 0)
(34.7943 0 0)
(25.5912 0 0)
(14.9828 0 0)
(3.53927 0 0)
(-8.10508 0 0)
(-19.2894 0 0)
)
;
    }
    bottom
    {
        type            fixedValue;
        value           uniform (0 0 0);
    }
    frontAndBack
    {
        type            empty;
    }
    left_cyc
    {
        type            cyclic;
    }
    right_cyc
    {
        type            cyclic;
    }
    procBoundary2to1
    {
        type            processor;
        value           nonuniform List<vector> 
16
(
(-56.4682 0 2.61281)
(-80.4749 0 3.58531)
(-75.236 0 1.00668)
(-64.5211 0 -2.88134)
(-51.7884 0 -6.45467)
(-35.9209 0 -8.9946)
(-16.626 0 -10.2241)
(5.13302 0 -10.2935)
(5.13302 0 -10.2935)
(28.3471 0 -5.71712)
(48.439 0 -4.65206)
(61.9683 0 -3.41112)
(64.9888 0 -2.17455)
(57.7139 0 -0.0943846)
(56.0366 0 0.0374032)
(55.7145 0 1.93104)
)
;
    }
    procBoundary2to3
    {
        type            processor;
        value           nonuniform List<vector> 
16
(
(72.6912 0 -6.0472)
(37.2401 0 -20.6875)
(24.6769 0 -27.3627)
(17.5863 0 -32.4446)
(9.04827 0 -40.9686)
(9.04827 0 -40.9686)
(5.23205 0 -43.4737)
(1.81914 0 -44.8273)
(-1.43521 0 -44.816)
(-4.7657 0 -43.3327)
(-8.45875 0 -40.4053)
(-12.8203 0 -36.3593)
(-17.804 0 -31.1832)
(-22.7505 0 -24.581)
(-26.4784 0 -15.4173)
(-29.4114 0 -10.1298)
)
;
    }
}


// ************************************************************************* //
