/*--------------------------------*- C++ -*----------------------------------*\
| =========                 |                                                 |
| \\      /  F ield         | OpenFOAM: The Open Source CFD Toolbox           |
|  \\    /   O peration     | Version:  2.3.0                                 |
|   \\  /    A nd           | Web:      www.OpenFOAM.org                      |
|    \\/     M anipulation  |                                                 |
\*---------------------------------------------------------------------------*/
FoamFile
{
    version     2.0;
    format      ascii;
    class       volScalarField;
    location    "3000";
    object      p;
}
// * * * * * * * * * * * * * * * * * * * * * * * * * * * * * * * * * * * * * //

dimensions      [0 2 -2 0 0 0 0];

internalField   nonuniform List<scalar> 
192
(
-1676.13
-1685.99
-1697.65
-1712.04
-1729.37
-1748.69
-1767.41
-1781.42
-1784.25
-1773.83
-1757.47
-1739.69
-1723.46
-1512.21
-1522.18
-1533.2
-1545.42
-1558.66
-1572.15
-1584.08
-1592.46
-1594.22
-1588.21
-1578.26
-1566.18
-1554
-1373.41
-1381.79
-1390.68
-1400.01
-1409.5
-1418.24
-1424.92
-1429.03
-1429.75
-1426.87
-1421.55
-1413.9
-1405.25
-1247.62
-1253.27
-1259.07
-1264.95
-1270.57
-1275.04
-1277.52
-1278.4
-1278.33
-1277.9
-1276.23
-1272.53
-1267.53
-1124.48
-1127.42
-1130.37
-1133.3
-1135.91
-1137.48
-1137.42
-1136.36
-1135.84
-1136.88
-1137.34
-1136.29
-1134.08
-999.56
-1000.36
-1001.14
-1001.82
-1002.19
-1001.78
-1000.21
-998.016
-997.291
-999.148
-1000.82
-1001.49
-1001.32
-871.188
-870.497
-869.743
-868.792
-867.499
-865.597
-862.932
-860.038
-859.269
-861.58
-864.092
-866.029
-867.358
-739.119
-737.377
-735.463
-733.262
-730.613
-727.435
-723.851
-720.573
-719.798
-722.352
-725.528
-728.523
-731.043
-603.615
-600.985
-598.047
-594.701
-590.833
-586.524
-582.188
-578.696
-577.916
-580.58
-584.274
-588.187
-591.759
-465.075
-461.528
-457.561
-453.066
-448.031
-442.69
-437.687
-434.004
-433.203
-435.939
-440.097
-444.845
-449.425
-324.628
-319.945
-314.749
-308.959
-302.655
-296.212
-290.446
-286.451
-285.6
-288.486
-293.226
-298.899
-304.598
-185.688
-179.488
-172.723
-165.324
-157.434
-149.547
-142.64
-137.997
-137.029
-140.315
-145.998
-152.933
-160.066
-52.9653
-44.0691
-34.5825
-24.5002
-14.0584
-3.87768
4.89157
10.7119
11.8095
7.62291
0.245094
-8.84527
40.8367
51.3899
62.6732
74.9114
88.0459
101.447
113.553
122.013
123.681
117.869
107.808
95.925
45.4325
39.3538
32.417
24.5082
15.6851
6.49394
-1.69809
-5.97246
-2.92461
7.47824
21.3925
35.5609
)
;

boundaryField
{
    top
    {
        type            calculated;
        value           nonuniform List<scalar> 
12
(
-9.81
-9.81
-9.81
-9.81
-9.81
-9.81
-9.81
-9.81
-9.81
-9.81
-9.81
-9.81
)
;
    }
    bottom
    {
        type            calculated;
        value           nonuniform List<scalar> 
13
(
-1766.73
-1776.33
-1787.87
-1802.51
-1820.5
-1840.56
-1860.28
-1875.58
-1878.88
-1867.38
-1850.03
-1831.54
-1814.7
)
;
    }
    frontAndBack
    {
        type            empty;
    }
    left_cyc
    {
        type            cyclic;
    }
    right_cyc
    {
        type            cyclic;
    }
    procBoundary0to1
    {
        type            processor;
        value           nonuniform List<scalar> 
16
(
-1709.89
-1542.64
-1396.59
-1262.04
-1131.35
-1000.73
-868.286
-733.115
-594.861
-453.556
-309.908
-166.864
-18.4208
-18.4208
83.9491
48.4962
)
;
    }
    procBoundary0to3throughleft_cyc
    {
        type            processorCyclic;
        value           nonuniform List<scalar> 
15
(
-1667.09
-1502.97
-1365.54
-1242.16
-1121.56
-998.706
-871.818
-740.757
-606.047
-468.326
-328.937
-191.491
-61.3937
30.7157
50.7674
)
;
    }
}


// ************************************************************************* //
