/*--------------------------------*- C++ -*----------------------------------*\
| =========                 |                                                 |
| \\      /  F ield         | OpenFOAM: The Open Source CFD Toolbox           |
|  \\    /   O peration     | Version:  2.3.0                                 |
|   \\  /    A nd           | Web:      www.OpenFOAM.org                      |
|    \\/     M anipulation  |                                                 |
\*---------------------------------------------------------------------------*/
FoamFile
{
    version     2.0;
    format      ascii;
    class       volScalarField;
    location    "3000";
    object      p_rgh;
}
// * * * * * * * * * * * * * * * * * * * * * * * * * * * * * * * * * * * * * //

dimensions      [0 2 -2 0 0 0 0];

internalField   nonuniform List<scalar> 
192
(
-1766.73
-1776.33
-1787.87
-1802.51
-1820.5
-1840.56
-1860.28
-1875.58
-1878.88
-1867.38
-1850.03
-1831.54
-1814.7
-1736.66
-1746.67
-1758.13
-1772.11
-1788.91
-1809.07
-1831.48
-1852.86
-1858.62
-1841.15
-1820.65
-1801.7
-1785.84
-1695.17
-1706.03
-1717.71
-1731.33
-1748.93
-1773.59
-1805.68
-1840.94
-1850.15
-1819.28
-1787.98
-1763.44
-1745.99
-1668.72
-1679.54
-1690.16
-1701.65
-1718.61
-1746.06
-1787.55
-1837.3
-1849.15
-1804.27
-1761.9
-1732.83
-1714.83
-1667.05
-1676.03
-1683.74
-1691.71
-1705.15
-1732.42
-1781.16
-1842.91
-1855.95
-1799.7
-1748.61
-1718.06
-1702.53
-1684.34
-1689.99
-1693.31
-1696.47
-1704.97
-1731.17
-1785.45
-1855.16
-1867.85
-1804.57
-1747.35
-1716.8
-1705.27
-1710.03
-1711.56
-1710.8
-1709.4
-1716.1
-1743.12
-1798.72
-1868.36
-1880.81
-1816.41
-1758.13
-1727.23
-1717.6
-1736.38
-1734.93
-1732.93
-1731.85
-1739.41
-1765.23
-1816.01
-1879.62
-1891.33
-1831.4
-1778.46
-1749.78
-1740
-1763.58
-1762.71
-1761.03
-1761.74
-1769.89
-1792.44
-1834.67
-1888.16
-1898.71
-1847.62
-1803.8
-1779.28
-1769.53
-1789.97
-1790.79
-1791.51
-1794.1
-1801.98
-1819.99
-1852.16
-1893.5
-1902.53
-1862.9
-1829.65
-1810.31
-1801.3
-1802.66
-1808.33
-1813.38
-1818.95
-1827.17
-1841.25
-1864.18
-1893.54
-1900.82
-1873.04
-1849.56
-1834.66
-1825.72
-1769.07
-1783.65
-1797.04
-1809.58
-1822.2
-1836.57
-1854.58
-1875.28
-1880.74
-1862.07
-1844.19
-1829.61
-1816.78
-1610.88
-1636.35
-1660.58
-1683.62
-1705.55
-1726.62
-1747.12
-1765.76
-1769.62
-1754.4
-1735.23
-1714.8
-1225.73
-1256.12
-1285.05
-1312.18
-1337.11
-1359.5
-1379.17
-1394.69
-1396.44
-1384.8
-1366.91
-1345.18
-510.119
-541.629
-573.798
-606.44
-638.892
-669.646
-695.968
-712.934
-711.639
-692.804
-663.654
-629.74
)
;

boundaryField
{
    top
    {
        type            fixedValue;
        value           uniform 0;
    }
    bottom
    {
        type            fixedFluxPressure;
        gradient        uniform 0;
        value           nonuniform List<scalar> 
13
(
-1766.73
-1776.33
-1787.87
-1802.51
-1820.5
-1840.56
-1860.28
-1875.58
-1878.88
-1867.38
-1850.03
-1831.54
-1814.7
)
;
    }
    frontAndBack
    {
        type            empty;
    }
    left_cyc
    {
        type            cyclic;
    }
    right_cyc
    {
        type            cyclic;
    }
    procBoundary0to1
    {
        type            processor;
        value           nonuniform List<scalar> 
16
(
-1800.86
-1772.62
-1732.9
-1703.47
-1693.78
-1700.68
-1717.58
-1739.64
-1767.64
-1797.82
-1819.6
-1804.13
-1693.21
-1693.21
-1320.31
-594.229
)
;
    }
    procBoundary0to3throughleft_cyc
    {
        type            processorCyclic;
        value           nonuniform List<scalar> 
15
(
-1757.87
-1727.09
-1684.44
-1657.58
-1657.18
-1676.92
-1705.9
-1735.69
-1763.41
-1788.16
-1795.93
-1753.18
-1583.95
-1193.97
-479.204
)
;
    }
}


// ************************************************************************* //
