/*--------------------------------*- C++ -*----------------------------------*\
| =========                 |                                                 |
| \\      /  F ield         | OpenFOAM: The Open Source CFD Toolbox           |
|  \\    /   O peration     | Version:  2.3.0                                 |
|   \\  /    A nd           | Web:      www.OpenFOAM.org                      |
|    \\/     M anipulation  |                                                 |
\*---------------------------------------------------------------------------*/
FoamFile
{
    version     2.0;
    format      ascii;
    class       surfaceScalarField;
    location    "3000";
    object      phi;
}
// * * * * * * * * * * * * * * * * * * * * * * * * * * * * * * * * * * * * * //

dimensions      [0 3 -1 0 0 0 0];

internalField   nonuniform List<scalar> 
356
(
0.343834
-0.0182657
0.370558
-0.0267242
0.400001
-0.0294429
0.419851
-0.0198502
0.41143
0.00842134
0.352707
0.0587228
0.225923
0.126784
0.0343439
0.191579
-0.167081
0.201425
-0.307433
0.140352
-0.376371
0.0689385
-0.391347
0.0149758
-0.0155546
0.604295
-0.0438336
0.633509
-0.0559382
0.658423
-0.0543579
0.664528
-0.0259545
0.629812
0.0431374
0.526456
0.162078
0.330132
0.323108
0.0451693
0.476542
-0.252183
0.498777
-0.467417
0.355586
-0.585369
0.18689
-0.629421
0.0590276
-0.0159043
0.630536
-0.0650351
0.649592
-0.0749945
0.659631
-0.0643969
0.649217
-0.0155409
0.600951
0.0914039
0.492386
0.270643
0.302145
0.513349
0.0341361
0.74455
-0.242714
0.775628
-0.447439
0.560311
-0.567223
0.306674
-0.622646
0.114451
-0.00102501
0.549389
-0.0755556
0.554051
-0.0796571
0.547813
-0.058159
0.52308
0.0091922
0.469044
0.14544
0.372184
0.367503
0.219837
0.665695
0.017222
0.947166
-0.188618
0.981467
-0.347249
0.718942
-0.44919
0.408616
-0.506563
0.171824
0.0259365
0.414711
-0.0734201
0.405278
-0.0702239
0.385551
-0.0384317
0.351673
0.0430702
0.299138
0.197976
0.223268
0.443373
0.121629
0.767334
0.0016522
1.06714
-0.11656
1.09968
-0.216822
0.819205
-0.292175
0.483968
-0.344624
0.224273
0.0599548
0.246543
-0.0604588
0.226871
-0.0505518
0.19946
-0.0110203
0.163832
0.0786983
0.120538
0.241269
0.0723371
0.491573
0.0260445
0.813627
-0.00967348
1.10286
-0.0407085
1.13071
-0.080448
0.858944
-0.124326
0.527845
-0.165304
0.265252
0.094395
0.0618216
-0.0407023
0.0372065
-0.0259366
0.00839759
0.0177886
-0.0223257
0.109422
-0.0502666
0.26921
-0.0665039
0.507811
-0.0575167
0.80464
-0.0162332
1.06158
0.0306917
1.08379
0.0486157
0.84102
0.0386924
0.537769
0.0142644
0.28968
0.123245
-0.120455
-0.0180013
-0.145951
-0.000441256
-0.171851
0.0436887
-0.193387
0.130958
-0.201977
0.277801
-0.184166
0.489999
-0.123884
0.744358
-0.0186074
0.956301
0.0921361
0.973046
0.161442
0.771714
0.186011
0.5132
0.181441
0.294249
0.142441
-0.282946
0.00509648
-0.306942
0.0235541
-0.327574
0.0643207
-0.337463
0.140846
-0.324901
0.265239
-0.274296
0.439394
-0.170871
0.640934
-0.0176746
0.803105
0.140259
0.815113
0.25154
0.660433
0.308383
0.456356
0.325034
0.277599
0.149596
-0.409147
0.0265989
-0.429814
0.0442212
-0.443768
0.0782747
-0.441434
0.138512
-0.40927
0.233075
-0.331699
0.361823
-0.197343
0.506578
-0.0141162
0.619877
0.173013
0.627984
0.313788
0.519657
0.396793
0.373351
0.432937
0.241455
0.14421
-0.480179
0.0442004
-0.4956
0.0596417
-0.502131
0.0848061
-0.489274
0.125656
-0.443206
0.187007
-0.349725
0.268342
-0.201051
0.357904
-0.00802339
0.42685
0.188234
0.431726
0.342226
0.365666
0.44054
0.275037
0.490512
0.191484
0.128094
-0.474933
0.0545117
-0.482245
0.0669533
-0.480614
0.0831755
-0.460647
0.105688
-0.410154
0.136514
-0.317205
0.175392
-0.176464
0.217164
0.00133526
0.24905
0.181905
0.251157
0.327276
0.220294
0.424671
0.177643
0.478885
0.137269
-0.385069
0.0520875
-0.378959
0.0608441
-0.365903
0.0701195
-0.34029
0.0800744
-0.294458
0.0906827
-0.220606
0.101541
-0.115032
0.11159
0.0154722
0.118546
0.148026
0.118603
0.257043
0.111277
0.334122
0.100563
0.0890023
-0.283022
0.0288809
-0.255371
0.033193
-0.222905
0.0376538
-0.185032
0.0422005
-0.140987
0.0466386
-0.0900594
0.0506125
-0.0321126
0.053643
0.0311559
0.0552774
0.0945235
0.055235
0.152281
0.0535197
0.202485
0.0503599
0.0462266
-0.266783
-0.237533
-0.203485
-0.164495
-0.120614
-0.0722799
-0.0204829
0.0331688
0.0866018
0.137741
0.184955
)
;

boundaryField
{
    top
    {
        type            calculated;
        value           nonuniform List<scalar> 
12
(
0.00422812
0.00394298
0.00360598
0.0032103
0.00275796
0.00227804
0.00184608
0.00162567
0.00180192
0.00238059
0.00314594
0.00391407
)
;
    }
    bottom
    {
        type            calculated;
        value           uniform 0;
    }
    frontAndBack
    {
        type            empty;
        value           nonuniform 0();
    }
    left_cyc
    {
        type            cyclic;
        value           nonuniform 0();
    }
    right_cyc
    {
        type            cyclic;
        value           nonuniform 0();
    }
    procBoundary0to1
    {
        type            processor;
        value           nonuniform List<scalar> 
16
(
-0.375793
-0.629071
-0.637525
-0.533524
-0.378643
-0.199744
-0.0145857
0.162245
0.317879
0.438323
0.506628
0.501938
0.105041
0.382389
0.24526
0.227267
)
;
    }
    procBoundary0to3throughleft_cyc
    {
        type            processorCyclic;
        value           nonuniform List<scalar> 
15
(
-0.325568
-0.578727
-0.609334
-0.538868
-0.416847
-0.259504
-0.081578
0.0977545
0.259849
0.387644
0.462578
0.464622
0.387493
0.306229
0.291436
)
;
    }
}


// ************************************************************************* //
