/*--------------------------------*- C++ -*----------------------------------*\
| =========                 |                                                 |
| \\      /  F ield         | OpenFOAM: The Open Source CFD Toolbox           |
|  \\    /   O peration     | Version:  2.3.0                                 |
|   \\  /    A nd           | Web:      www.OpenFOAM.org                      |
|    \\/     M anipulation  |                                                 |
\*---------------------------------------------------------------------------*/
FoamFile
{
    version     2.0;
    format      ascii;
    class       volScalarField;
    location    "3000";
    object      T;
}
// * * * * * * * * * * * * * * * * * * * * * * * * * * * * * * * * * * * * * //

dimensions      [0 0 0 1 0 0 0];

internalField   nonuniform List<scalar> 
192
(
39.8258
39.7136
39.6599
39.7685
40.0595
40.3812
40.8206
41.3851
41.5948
41.12
40.6867
40.3741
40.1079
32.9129
32.9186
32.9829
33.2397
33.7594
34.7343
36.2639
38.1615
38.7461
37.0717
35.5313
34.528
33.9922
28.3292
28.5474
28.7915
29.1668
29.8773
31.2717
33.4975
36.2269
36.9704
34.5181
32.242
30.7629
29.9918
26.4926
26.8155
27.1171
27.4686
28.1779
29.6161
32.0566
35.1147
35.8598
33.079
30.5325
28.9446
28.1317
26.5482
26.8422
27.0739
27.319
27.8465
29.0971
31.4716
34.5283
35.189
32.4006
29.8917
28.4564
27.8078
27.4099
27.6029
27.7044
27.8032
28.1267
29.1864
31.4101
34.273
34.8072
32.2136
29.8685
28.6254
28.1731
28.4057
28.4805
28.4804
28.4651
28.7347
29.7092
31.672
34.1159
34.5611
32.3135
30.2654
29.1592
28.7897
29.2633
29.2719
29.2692
29.302
29.6001
30.4469
32.0344
33.9873
34.3521
32.5275
30.8889
29.9638
29.6047
30.0295
30.0746
30.1071
30.2117
30.5214
31.2133
32.4131
33.8813
34.1732
32.7881
31.5638
30.8313
30.4882
30.6854
30.7862
30.8943
31.0577
31.3553
31.8936
32.7507
33.7885
34.015
33.0383
32.1761
31.6208
31.3076
30.9708
31.1866
31.4004
31.6373
31.9402
32.3683
32.9668
33.6625
33.8321
33.1926
32.6039
32.1748
31.8694
30.2963
30.6921
31.0759
31.4556
31.8461
32.2701
32.7445
33.2272
33.3496
32.9315
32.4828
32.0729
31.6928
27.4378
28.04
28.6307
29.211
29.7781
30.3256
30.8385
31.2671
31.3539
31.0139
30.5488
30.0316
20.6897
21.354
22.0063
22.645
23.2624
23.8431
24.3585
24.7476
24.803
24.5198
24.0664
23.5212
8.53397
8.91807
9.29916
9.67273
10.0296
10.3553
10.6291
10.8208
10.8473
10.7199
10.4898
10.1916
)
;

boundaryField
{
    top
    {
        type            fixedValue;
        value           uniform 0;
    }
    bottom
    {
        type            fixedValue;
        value           uniform 43.8;
    }
    frontAndBack
    {
        type            empty;
    }
    left_cyc
    {
        type            cyclic;
    }
    right_cyc
    {
        type            cyclic;
    }
    procBoundary0to1
    {
        type            processor;
        value           nonuniform List<scalar> 
16
(
39.9884
33.72
29.6041
27.7641
27.5149
28.0138
28.7579
29.5336
30.3595
31.132
31.6311
31.3225
29.4855
29.4855
22.9235
9.85059
)
;
    }
    procBoundary0to3throughleft_cyc
    {
        type            processorCyclic;
        value           nonuniform List<scalar> 
15
(
39.9073
32.8657
28.0786
26.1368
26.2098
27.1483
28.2453
29.1952
29.9623
30.569
30.7405
29.8831
26.8185
20.0103
8.14762
)
;
    }
}


// ************************************************************************* //
