/*--------------------------------*- C++ -*----------------------------------*\
| =========                 |                                                 |
| \\      /  F ield         | OpenFOAM: The Open Source CFD Toolbox           |
|  \\    /   O peration     | Version:  2.3.0                                 |
|   \\  /    A nd           | Web:      www.OpenFOAM.org                      |
|    \\/     M anipulation  |                                                 |
\*---------------------------------------------------------------------------*/
FoamFile
{
    version     2.0;
    format      ascii;
    class       volScalarField;
    location    "2000";
    object      T;
}
// * * * * * * * * * * * * * * * * * * * * * * * * * * * * * * * * * * * * * //

dimensions      [0 0 0 1 0 0 0];

internalField   nonuniform List<scalar> 
191
(
39.9856
39.7403
39.7013
39.794
39.9288
40.0361
40.0696
39.9992
39.8479
39.6475
39.4028
39.1073
38.7469
33.6824
33.2887
33.1468
33.1542
33.2029
33.213
33.1346
32.947
32.6224
32.1766
31.6465
31.0395
30.351
29.7522
29.2715
28.9935
28.8029
28.6285
28.426
28.1665
27.8346
27.428
26.9306
26.3323
25.6474
24.8817
28.1093
27.6214
27.3159
27.0183
26.6945
26.3434
25.9662
25.5616
25.1276
24.6621
24.1662
23.6397
23.0836
27.8836
27.5267
27.3128
27.0449
26.7046
26.3222
25.9282
25.541
25.1685
24.8115
24.4675
24.1291
23.7825
28.2744
28.1208
28.0346
27.8864
27.6278
27.296
26.9393
26.5936
26.2782
25.9995
25.7541
25.53
25.3047
28.9161
28.8336
28.8666
28.8612
28.7364
28.5114
28.2302
27.9354
27.6574
27.412
27.2025
27.0202
26.8415
29.81
29.6661
29.6848
29.7005
29.6731
29.5699
29.3975
29.1801
28.9452
28.7148
28.5013
28.3054
28.1114
30.7797
30.5822
30.5274
30.5004
30.4552
30.3793
30.2636
30.1088
29.9225
29.7146
29.4931
29.2591
31.6681
31.442
31.3122
31.2137
31.1114
30.9888
30.8405
30.6642
30.4599
30.2288
29.9709
29.6787
32.2751
32.0042
31.7779
31.5621
31.3391
31.1012
30.8448
30.5671
30.2658
29.9388
29.5839
29.1933
32.0956
31.7003
31.3098
30.915
30.5124
30.0996
29.6721
29.2241
28.7504
28.2502
27.7237
27.1668
30.3299
29.7561
29.1718
28.5842
27.9977
27.4124
26.8228
26.2195
25.5919
24.9341
24.2524
23.5567
22.844
23.5512
22.9555
22.3421
21.7224
21.1023
20.4826
19.8596
19.2254
18.5705
17.8895
17.1909
16.4895
15.7889
10.1214
9.78234
9.4275
9.06724
8.708
8.3524
7.99981
7.64713
7.29073
6.93059
6.57322
6.2231
5.87825
)
;

boundaryField
{
    top
    {
        type            fixedValue;
        value           uniform 0;
    }
    bottom
    {
        type            fixedValue;
        value           uniform 43.8;
    }
    frontAndBack
    {
        type            empty;
    }
    left_cyc
    {
        type            cyclic;
    }
    right_cyc
    {
        type            cyclic;
    }
    procBoundary1to0
    {
        type            processor;
        value           nonuniform List<scalar> 
16
(
40.2796
34.4031
30.7818
29.1421
28.7235
28.9128
29.5127
30.372
31.2768
32.0852
32.6432
32.5138
32.5138
30.8826
24.1117
10.4324
)
;
    }
    procBoundary1to2
    {
        type            processor;
        value           nonuniform List<scalar> 
16
(
38.3004
29.5646
24.0346
22.4881
23.402
25.0403
26.6231
27.8791
29.0009
29.0009
29.3344
28.7315
26.5681
22.1088
15.0879
5.53735
)
;
    }
}


// ************************************************************************* //
