/*--------------------------------*- C++ -*----------------------------------*\
| =========                 |                                                 |
| \\      /  F ield         | OpenFOAM: The Open Source CFD Toolbox           |
|  \\    /   O peration     | Version:  2.3.0                                 |
|   \\  /    A nd           | Web:      www.OpenFOAM.org                      |
|    \\/     M anipulation  |                                                 |
\*---------------------------------------------------------------------------*/
FoamFile
{
    version     2.0;
    format      ascii;
    class       volScalarField;
    location    "13000";
    object      p_rgh;
}
// * * * * * * * * * * * * * * * * * * * * * * * * * * * * * * * * * * * * * //

dimensions      [0 2 -2 0 0 0 0];

internalField   nonuniform List<scalar> 
191
(
-1832.08
-1813.84
-1798.42
-1786.3
-1776.48
-1767.77
-1759.14
-1749.88
-1739.7
-1728.48
-1716.04
-1702.15
-1686.45
-1801.3
-1783.9
-1769.25
-1757.43
-1747.41
-1738.13
-1728.74
-1718.69
-1707.34
-1694.76
-1680.94
-1665.77
-1648.98
-1762.96
-1743.08
-1729.02
-1717.24
-1706.62
-1696.34
-1685.89
-1674.93
-1663.34
-1650.5
-1636.44
-1621.3
-1605.05
-1733.19
-1712.69
-1699.99
-1689.47
-1679.11
-1668.49
-1657.62
-1646.55
-1635.32
-1623.94
-1612.33
-1600.51
-1588.52
-1718.67
-1700.47
-1690.81
-1683.31
-1674.91
-1665.53
-1655.75
-1646.12
-1636.95
-1628.37
-1620.32
-1612.51
-1604.3
-1717.16
-1702.59
-1697.88
-1694.42
-1689.42
-1682.5
-1674.65
-1666.84
-1659.73
-1653.56
-1648.21
-1643.11
-1637.13
-1727.96
-1714.22
-1713.3
-1713.82
-1712.94
-1709.39
-1704
-1697.96
-1692.23
-1687.33
-1683.26
-1679.39
-1674.33
-1750.65
-1736.87
-1735.21
-1737.06
-1738.31
-1737.93
-1735.5
-1731.56
-1726.98
-1722.46
-1718.25
-1713.95
-1708.1
-1779.97
-1766.94
-1763.78
-1764.61
-1765.6
-1765.53
-1764.26
-1761.68
-1757.99
-1753.47
-1748.22
-1741.79
-1810.61
-1799.28
-1794.91
-1793.5
-1792.59
-1791.03
-1788.29
-1784.33
-1779.18
-1772.81
-1764.91
-1754.74
-1834.89
-1824.64
-1818.17
-1812.91
-1807.41
-1801.02
-1793.48
-1784.74
-1774.74
-1763.43
-1749.96
-1733.45
-1831.12
-1817.89
-1805.33
-1792.23
-1778.06
-1762.66
-1745.92
-1727.72
-1707.95
-1686.74
-1664.57
-1639.41
-1739.71
-1718.86
-1697.22
-1674.5
-1650.58
-1625.43
-1598.94
-1570.81
-1540.69
-1508.45
-1474.87
-1441.68
-1409.43
-1372.46
-1351.04
-1326.73
-1299.94
-1271.13
-1240.72
-1208.96
-1175.84
-1141.12
-1104.49
-1066.2
-1026.75
-986.083
-678.853
-647.305
-613.329
-578.957
-545.125
-512.163
-480.08
-448.765
-418.149
-388.206
-358.506
-329.509
-304.352
)
;

boundaryField
{
    top
    {
        type            fixedValue;
        value           uniform 0;
    }
    bottom
    {
        type            fixedFluxPressure;
        gradient        uniform 0;
        value           nonuniform List<scalar> 
13
(
-1832.08
-1813.84
-1798.42
-1786.3
-1776.48
-1767.77
-1759.14
-1749.88
-1739.7
-1728.48
-1716.04
-1702.15
-1686.45
)
;
    }
    frontAndBack
    {
        type            empty;
    }
    left_cyc
    {
        type            cyclic;
    }
    right_cyc
    {
        type            cyclic;
    }
    procBoundary1to0
    {
        type            processor;
        value           nonuniform List<scalar> 
16
(
-1851.53
-1821.74
-1790.26
-1766.02
-1754.33
-1754.35
-1766.16
-1786.05
-1809.93
-1833.92
-1852.32
-1846.91
-1846.91
-1759.72
-1390.4
-704.388
)
;
    }
    procBoundary1to2
    {
        type            processor;
        value           nonuniform List<scalar> 
16
(
-1668.33
-1630.16
-1587.77
-1575.96
-1594.52
-1628.45
-1665.69
-1697.96
-1732.81
-1732.81
-1740.69
-1712.13
-1609.6
-1373.24
-945.476
-284.84
)
;
    }
}


// ************************************************************************* //
