/*--------------------------------*- C++ -*----------------------------------*\
| =========                 |                                                 |
| \\      /  F ield         | OpenFOAM: The Open Source CFD Toolbox           |
|  \\    /   O peration     | Version:  2.3.0                                 |
|   \\  /    A nd           | Web:      www.OpenFOAM.org                      |
|    \\/     M anipulation  |                                                 |
\*---------------------------------------------------------------------------*/
FoamFile
{
    version     2.0;
    format      ascii;
    class       surfaceScalarField;
    location    "13000";
    object      phi;
}
// * * * * * * * * * * * * * * * * * * * * * * * * * * * * * * * * * * * * * //

dimensions      [0 3 -1 0 0 0 0];

internalField   nonuniform List<scalar> 
353
(
-0.40638
0.0265366
-0.39604
-0.0103407
-0.369594
-0.0264456
-0.34222
-0.0273739
-0.321819
-0.0204007
-0.310816
-0.011003
-0.308509
-0.00230753
-0.312913
0.00440425
-0.321933
0.00901942
-0.334182
0.012249
-0.349027
0.0148453
-0.366481
0.0174542
0.0206699
-0.640425
0.0863923
-0.648278
-0.00248735
-0.629784
-0.0449395
-0.602458
-0.0546996
-0.576539
-0.0463199
-0.556703
-0.0308394
-0.544046
-0.0149642
-0.537735
-0.00190669
-0.536034
0.00731785
-0.536816
0.0130311
-0.53798
0.0160093
-0.537447
0.0169211
0.0161939
-0.624235
0.156281
-0.64759
0.0208683
-0.644647
-0.047883
-0.62904
-0.0703059
-0.609274
-0.0660865
-0.590014
-0.0500994
-0.573324
-0.0316543
-0.559614
-0.0156161
-0.548292
-0.00400488
-0.537897
0.00263622
-0.526328
0.00444044
-0.510928
0.0015206
-0.00622066
-0.500114
0.225083
-0.534687
0.0554406
-0.547103
-0.0354663
-0.546207
-0.0712022
-0.53795
-0.0743434
-0.526143
-0.0619069
-0.513071
-0.0447255
-0.499922
-0.0287658
-0.487011
-0.0169158
-0.47388
-0.0104946
-0.45922
-0.01022
-0.440882
-0.0168169
-0.0311321
-0.332793
0.285076
-0.372613
0.0952606
-0.396796
-0.0112835
-0.409433
-0.0585653
-0.413849
-0.0699273
-0.412571
-0.0631847
-0.407509
-0.0497874
-0.400049
-0.036226
-0.391054
-0.0259104
-0.380805
-0.0207445
-0.368854
-0.022171
-0.353913
-0.0317573
-0.0512139
-0.15115
0.329317
-0.188916
0.133027
-0.218734
0.0185346
-0.240593
-0.0367066
-0.255357
-0.0551631
-0.264108
-0.0544336
-0.267968
-0.0459278
-0.268025
-0.0361694
-0.265248
-0.0286867
-0.260361
-0.0256317
-0.253638
-0.0288944
-0.244691
-0.0407038
-0.0635838
0.0276777
0.352674
-0.00178531
0.16249
-0.030939
0.0476883
-0.0565772
-0.0110684
-0.0774237
-0.0343165
-0.0932746
-0.0385828
-0.1044
-0.0348021
-0.11135
-0.0292199
-0.114875
-0.0251618
-0.115818
-0.0246881
-0.1149
-0.0298121
-0.112441
-0.043163
-0.0678883
0.19143
0.351913
0.174367
0.179553
0.150138
0.0719169
0.124874
0.0141962
0.101836
-0.0112787
0.0824163
-0.0191635
0.0670302
-0.019416
0.0555718
-0.0177615
0.0475475
-0.0171375
0.0421445
-0.0192851
0.0384172
-0.0260849
0.03557
-0.0403158
0.329256
0.326176
0.326885
0.181923
0.309977
0.088825
0.287519
0.0366546
0.264808
0.0114321
0.24455
0.00109477
0.22784
-0.00270587
0.214863
-0.00478489
0.205212
-0.00748606
0.19798
-0.012053
0.191947
-0.020052
-0.0342521
0.429538
0.27828
0.441843
0.169618
0.433435
0.0972334
0.415442
0.0546474
0.39496
0.0319145
0.375909
0.0201452
0.36008
0.0131232
0.347946
0.00734928
0.339119
0.00134136
0.332449
-0.00538323
0.326235
-0.0138385
-0.0267018
0.478149
0.215559
0.502215
0.145552
0.502283
0.0971653
0.490242
0.066689
0.474061
0.0480951
0.458287
0.0359196
0.445057
0.0263529
0.43504
0.0173667
0.427945
0.00843542
0.42251
5.18763e-05
0.416586
-0.00791393
-0.0180105
0.456463
0.149842
0.486865
0.11515
0.49473
0.0892999
0.490676
0.0707432
0.481822
0.0569493
0.472128
0.045614
0.463353
0.0351273
0.45602
0.0246996
0.44999
0.0144654
0.444378
0.00566426
0.437435
-0.000971394
-0.00757044
0.29248
0.105051
0.348456
0.0938658
0.380878
0.0827281
0.397937
0.0722416
0.406154
0.062526
0.409636
0.0534668
0.410404
0.0448465
0.409114
0.0364169
0.405858
0.0279556
0.400855
0.0194686
0.394772
0.0117476
0.388239
0.00556107
6.2562e-05
0.154724
0.0518174
0.200583
0.0480071
0.239738
0.0435726
0.273038
0.0389415
0.301194
0.03437
0.324696
0.0299649
0.343813
0.0257301
0.358621
0.021609
0.369043
0.017533
0.374958
0.0135538
0.376683
0.0100221
0.37514
0.00710409
0.00433639
0.136257
0.181143
0.220999
0.255705
0.285403
0.310333
0.330729
0.346764
0.358549
0.366255
0.370375
0.371565
)
;

boundaryField
{
    top
    {
        type            calculated;
        value           nonuniform List<scalar> 
13
(
0.00248976
0.00312079
0.00371689
0.00423551
0.00467184
0.00503475
0.00533442
0.00557448
0.00574793
0.00584772
0.0059021
0.00591365
0.00579036
)
;
    }
    bottom
    {
        type            calculated;
        value           uniform 0;
    }
    frontAndBack
    {
        type            empty;
        value           nonuniform 0();
    }
    left_cyc
    {
        type            cyclic;
        value           nonuniform 0();
    }
    right_cyc
    {
        type            cyclic;
        value           nonuniform 0();
    }
    procBoundary1to0
    {
        type            processor;
        value           nonuniform List<scalar> 
16
(
0.379844
0.580569
0.554346
0.431312
0.272801
0.106909
-0.0510346
-0.190668
-0.303519
-0.381642
-0.415429
-0.390746
-0.191727
-0.205803
-0.10149
-0.0869296
)
;
    }
    procBoundary1to2
    {
        type            processor;
        value           nonuniform List<scalar> 
16
(
-0.387151
-0.532971
-0.488513
-0.415971
-0.333831
-0.232321
-0.108137
0.0331299
-0.0654481
0.185883
0.318685
0.407895
0.426995
0.380606
0.370867
0.370111
)
;
    }
}


// ************************************************************************* //
