/*--------------------------------*- C++ -*----------------------------------*\
| =========                 |                                                 |
| \\      /  F ield         | OpenFOAM: The Open Source CFD Toolbox           |
|  \\    /   O peration     | Version:  2.3.0                                 |
|   \\  /    A nd           | Web:      www.OpenFOAM.org                      |
|    \\/     M anipulation  |                                                 |
\*---------------------------------------------------------------------------*/
FoamFile
{
    version     2.0;
    format      ascii;
    class       volScalarField;
    location    "9000";
    object      NUEff;
}
// * * * * * * * * * * * * * * * * * * * * * * * * * * * * * * * * * * * * * //

dimensions      [0 2 -1 0 0 0 0];

internalField   nonuniform List<scalar> 
3060
(
0.187788
0.187156
0.186035
0.184503
0.182655
0.180594
0.178427
0.176254
0.174164
0.172227
0.170484
0.168829
0.167228
0.165681
0.164184
0.162725
0.1613
0.159915
0.158589
0.157344
0.156205
0.155198
0.154349
0.153685
0.153235
0.153027
0.153081
0.153392
0.153935
0.154682
0.155605
0.156679
0.157879
0.159178
0.160553
0.161982
0.163454
0.164968
0.166532
0.168143
0.16979
0.171503
0.173375
0.175353
0.17739
0.179407
0.181308
0.182988
0.184348
0.185296
0.185761
0.185685
0.185082
0.184013
0.182556
0.180805
0.178862
0.176831
0.174803
0.172851
0.171024
0.169335
0.167697
0.166096
0.164548
0.163047
0.161585
0.160169
0.158813
0.157539
0.156371
0.155336
0.154458
0.153764
0.153282
0.15304
0.153059
0.153336
0.153848
0.154565
0.15546
0.156506
0.157677
0.158947
0.160292
0.161689
0.163124
0.164593
0.166102
0.167665
0.16928
0.170955
0.172738
0.174729
0.17685
0.17903
0.181179
0.183192
0.184963
0.18639
0.187383
0.187869
0.856551
0.851893
0.842792
0.82833
0.806908
0.776097
0.732699
0.673769
0.599632
0.517296
0.438501
0.373458
0.3234
0.286058
0.258057
0.236411
0.219334
0.205694
0.194739
0.185955
0.178951
0.173428
0.169182
0.166086
0.164084
0.163177
0.163413
0.164771
0.167226
0.170802
0.175591
0.181761
0.18957
0.199379
0.211661
0.227082
0.246646
0.271932
0.30562
0.351002
0.410376
0.483776
0.56384
0.640151
0.703539
0.751389
0.785656
0.809405
0.825198
0.834763
0.839065
0.838379
0.832693
0.82155
0.803786
0.777446
0.739763
0.687732
0.620247
0.541738
0.462482
0.392616
0.337261
0.295267
0.264306
0.240796
0.222492
0.208013
0.196463
0.187245
0.179917
0.174147
0.169705
0.166442
0.164288
0.163233
0.163316
0.164527
0.166828
0.170232
0.174813
0.180719
0.188179
0.197518
0.209154
0.223655
0.241863
0.265054
0.295268
0.335851
0.389852
0.459103
0.540319
0.621383
0.691693
0.746146
0.785725
0.813649
0.832943
0.845796
0.853602
0.857119
0.962534
0.96186
0.960589
0.958684
0.956079
0.952673
0.948327
0.942845
0.935931
0.927093
0.91548
0.899628
0.876781
0.841332
0.783622
0.685753
0.540653
0.400479
0.309851
0.257368
0.225814
0.205783
0.192646
0.184081
0.178924
0.176669
0.177247
0.180653
0.187128
0.197431
0.213165
0.23752
0.276967
0.34464
0.460248
0.614399
0.74082
0.817258
0.862546
0.890432
0.90903
0.922217
0.931998
0.939504
0.945371
0.94997
0.953537
0.956231
0.95816
0.959393
0.959966
0.959874
0.959122
0.957703
0.955573
0.952653
0.948822
0.943903
0.937633
0.92958
0.919006
0.904594
0.883965
0.852463
0.80037
0.711624
0.571926
0.422999
0.322141
0.26405
0.229692
0.208163
0.19415
0.185012
0.179429
0.176805
0.177014
0.180043
0.186064
0.195733
0.210466
0.233063
0.269143
0.330079
0.434583
0.583424
0.717877
0.802689
0.852909
0.884025
0.904549
0.919029
0.929767
0.938007
0.944487
0.949631
0.953701
0.956874
0.959277
0.961001
0.962105
0.962618
0.98026
0.979948
0.979366
0.978507
0.977355
0.975886
0.974065
0.971843
0.969145
0.965854
0.961782
0.956629
0.949901
0.940764
0.927751
0.908201
0.876164
0.817461
0.699291
0.505863
0.350754
0.272486
0.232861
0.211277
0.199638
0.194817
0.196026
0.203404
0.218557
0.246223
0.298574
0.405612
0.594457
0.762398
0.849267
0.893498
0.918842
0.934922
0.945854
0.95366
0.959489
0.963995
0.967569
0.970453
0.972798
0.974698
0.976213
0.977385
0.978241
0.978795
0.979055
0.979013
0.978673
0.978037
0.977097
0.975834
0.974218
0.972204
0.969722
0.966668
0.962868
0.958047
0.951756
0.943237
0.931112
0.91306
0.88387
0.831236
0.725402
0.537696
0.368126
0.280489
0.236896
0.213431
0.200709
0.195094
0.195548
0.202086
0.216009
0.241416
0.288781
0.384269
0.561562
0.740345
0.837699
0.886793
0.914477
0.931817
0.943586
0.951951
0.958181
0.962998
0.966831
0.969943
0.9725
0.974605
0.976325
0.977704
0.978773
0.979555
0.980062
0.980299
0.987131
0.98693
0.986558
0.986012
0.985286
0.984369
0.983244
0.981886
0.980258
0.978301
0.975926
0.972997
0.9693
0.964501
0.958043
0.949025
0.935728
0.914638
0.877621
0.803262
0.643451
0.430721
0.309048
0.254666
0.229482
0.219828
0.222183
0.237256
0.27173
0.347279
0.512854
0.724708
0.84239
0.89683
0.925519
0.942616
0.953744
0.961465
0.967063
0.97128
0.974557
0.977167
0.979284
0.981021
0.982451
0.983623
0.984567
0.985303
0.985844
0.986196
0.986362
0.986335
0.986118
0.985715
0.985121
0.98433
0.983326
0.982088
0.980579
0.978747
0.976508
0.973736
0.970233
0.965689
0.959588
0.951102
0.938675
0.919169
0.885439
0.81886
0.673705
0.456132
0.320076
0.259522
0.231626
0.220355
0.221267
0.23455
0.26572
0.333332
0.483183
0.698559
0.829711
0.890219
0.921546
0.939962
0.951836
0.960022
0.965956
0.970411
0.97387
0.97663
0.978878
0.980737
0.982286
0.983576
0.984642
0.985505
0.98618
0.986678
0.987003
0.987155
0.990581
0.990429
0.990147
0.989735
0.989191
0.988507
0.987673
0.986674
0.985484
0.984066
0.982363
0.980289
0.977715
0.974444
0.970157
0.964356
0.956188
0.944074
0.924797
0.890932
0.822824
0.672603
0.455343
0.327205
0.273998
0.25536
0.259769
0.289601
0.36606
0.53943
0.748275
0.857794
0.907991
0.934417
0.950124
0.960299
0.967308
0.972363
0.97614
0.979056
0.981367
0.983236
0.98477
0.986041
0.987095
0.987964
0.988668
0.98922
0.989627
0.989894
0.990019
0.989999
0.989835
0.98953
0.989084
0.988491
0.987744
0.986826
0.985716
0.984379
0.982762
0.980784
0.978327
0.975205
0.971128
0.96562
0.957896
0.946515
0.928576
0.897495
0.836064
0.699724
0.480415
0.337892
0.27817
0.256324
0.258078
0.284184
0.352361
0.510655
0.725407
0.847088
0.902457
0.931116
0.947938
0.958742
0.966142
0.971462
0.975429
0.978484
0.980904
0.982865
0.984483
0.985833
0.986967
0.987919
0.98871
0.989355
0.989862
0.990238
0.990484
0.9906
0.992539
0.99241
0.992171
0.991823
0.991366
0.990795
0.990103
0.989279
0.988305
0.987154
0.985782
0.984129
0.982099
0.979551
0.976262
0.971886
0.965874
0.957266
0.944253
0.923076
0.884903
0.806549
0.641919
0.444236
0.34177
0.307284
0.315225
0.371385
0.514463
0.720721
0.84601
0.903777
0.933405
0.950578
0.961468
0.968836
0.974068
0.977921
0.980849
0.983142
0.984982
0.986487
0.987734
0.988775
0.989646
0.990368
0.990956
0.99142
0.991763
0.991988
0.992094
0.992077
0.991939
0.991681
0.991305
0.990808
0.990184
0.989423
0.988509
0.987416
0.986104
0.984517
0.982567
0.980122
0.976978
0.9728
0.967076
0.958918
0.946668
0.926927
0.891819
0.820779
0.66827
0.463976
0.34952
0.308988
0.312211
0.361175
0.490894
0.697346
0.834516
0.898002
0.930072
0.948433
0.959974
0.967736
0.973225
0.977259
0.980315
0.982702
0.984617
0.986185
0.987491
0.98859
0.98952
0.990306
0.990964
0.991503
0.99193
0.992248
0.992456
0.992555
0.993729
0.99361
0.99339
0.993072
0.992654
0.992136
0.991513
0.990777
0.989914
0.988902
0.987709
0.986284
0.984551
0.982397
0.979642
0.976019
0.971118
0.96425
0.954181
0.938527
0.912196
0.863125
0.762841
0.588538
0.440645
0.383372
0.396556
0.48754
0.663283
0.81185
0.887073
0.92485
0.945991
0.958983
0.967547
0.973497
0.977802
0.981017
0.983488
0.985444
0.987029
0.988338
0.989434
0.990357
0.991135
0.991785
0.992319
0.992742
0.993056
0.993263
0.99336
0.993344
0.993217
0.992981
0.992637
0.992184
0.99162
0.990936
0.99012
0.989153
0.988004
0.986627
0.984951
0.982873
0.980229
0.976754
0.972065
0.965519
0.955973
0.941241
0.916707
0.87154
0.779594
0.611311
0.453053
0.386176
0.391603
0.47186
0.640596
0.797969
0.880105
0.920992
0.943605
0.957376
0.966392
0.972627
0.977123
0.980475
0.983041
0.985065
0.986703
0.988058
0.989197
0.990165
0.990991
0.991695
0.992289
0.992779
0.99317
0.993461
0.993653
0.993743
0.994489
0.994373
0.994158
0.993847
0.993441
0.99294
0.992342
0.991642
0.99083
0.989887
0.988787
0.987486
0.98592
0.98399
0.981542
0.978353
0.974088
0.968201
0.959749
0.947006
0.926549
0.891048
0.824481
0.703749
0.560431
0.486385
0.504298
0.612533
0.758461
0.856293
0.907924
0.936181
0.952983
0.963725
0.970995
0.976141
0.979915
0.982766
0.984976
0.986741
0.988187
0.989394
0.990414
0.991283
0.992022
0.992645
0.99316
0.99357
0.993876
0.994077
0.994172
0.994157
0.994033
0.993803
0.993468
0.99303
0.992486
0.991833
0.99106
0.990152
0.989085
0.987819
0.986295
0.984423
0.982063
0.978992
0.974895
0.96926
0.961208
0.949139
0.929914
0.896847
0.835203
0.721107
0.574862
0.490224
0.49767
0.596043
0.742726
0.847306
0.903007
0.933257
0.951089
0.962408
0.970026
0.975395
0.979321
0.98228
0.984565
0.986382
0.987867
0.989108
0.990161
0.991066
0.991846
0.992517
0.993088
0.993562
0.993942
0.994227
0.994415
0.994504
0.994999
0.99488
0.99466
0.994342
0.993929
0.993422
0.99282
0.992121
0.991318
0.990397
0.989334
0.988093
0.986614
0.984808
0.982537
0.979605
0.975723
0.970428
0.962948
0.951931
0.934859
0.906801
0.858166
0.775359
0.667581
0.598956
0.616682
0.709488
0.812676
0.880845
0.919876
0.94278
0.957042
0.966437
0.972926
0.977587
0.981046
0.983685
0.98575
0.987416
0.988794
0.989958
0.990953
0.99181
0.992546
0.993171
0.993691
0.994107
0.994418
0.994623
0.99472
0.994704
0.994578
0.994344
0.994004
0.993559
0.993011
0.992356
0.991589
0.990697
0.989659
0.988442
0.986993
0.985232
0.98303
0.980196
0.976453
0.971368
0.964215
0.953734
0.93759
0.911227
0.865697
0.787241
0.679621
0.602831
0.610223
0.696703
0.802025
0.874389
0.916051
0.940377
0.955428
0.965286
0.972062
0.976908
0.980492
0.983218
0.985344
0.987049
0.988455
0.989643
0.990664
0.991551
0.992324
0.992995
0.993571
0.994053
0.99444
0.994731
0.994923
0.995014
0.995361
0.995236
0.995004
0.99467
0.994235
0.993704
0.993077
0.992354
0.99153
0.990596
0.989531
0.988301
0.986854
0.985105
0.982927
0.980143
0.976492
0.971565
0.964704
0.954797
0.939892
0.916478
0.878545
0.818976
0.743751
0.692844
0.706439
0.773312
0.84531
0.895877
0.927232
0.946741
0.959364
0.967894
0.97389
0.978253
0.981527
0.984052
0.986048
0.987675
0.989037
0.990201
0.991208
0.992083
0.992842
0.993491
0.994033
0.994468
0.994794
0.995009
0.995111
0.995094
0.994962
0.994716
0.99436
0.993896
0.993325
0.992646
0.991856
0.990947
0.989901
0.988688
0.987261
0.985545
0.983422
0.980719
0.977187
0.972442
0.965861
0.956403
0.942242
0.920094
0.884251
0.82733
0.752376
0.695874
0.701501
0.764337
0.837707
0.890875
0.924057
0.944652
0.957916
0.966837
0.973079
0.977602
0.980982
0.983578
0.985623
0.987278
0.988659
0.989839
0.990866
0.991768
0.992563
0.993259
0.99386
0.994365
0.994772
0.995079
0.995281
0.995376
0.995636
0.995503
0.995255
0.994897
0.994432
0.993863
0.993195
0.992428
0.99156
0.990584
0.989484
0.98823
0.986772
0.985031
0.982886
0.980175
0.976656
0.97196
0.965508
0.956361
0.942965
0.922753
0.891907
0.847096
0.79417
0.759035
0.768488
0.814784
0.866537
0.905785
0.931947
0.94909
0.960572
0.968514
0.97419
0.978375
0.981551
0.984028
0.98601
0.987645
0.989031
0.990228
0.991275
0.992194
0.992995
0.993684
0.994261
0.994725
0.995073
0.995302
0.995409
0.995392
0.995251
0.994989
0.99461
0.994115
0.993507
0.992788
0.991955
0.991003
0.989918
0.988674
0.987227
0.985509
0.983407
0.980763
0.977348
0.972812
0.966608
0.95785
0.945074
0.925849
0.896474
0.853266
0.800241
0.761181
0.765017
0.808433
0.860804
0.901701
0.92919
0.947197
0.959219
0.967502
0.973397
0.977723
0.980989
0.983524
0.985544
0.987197
0.988593
0.989801
0.990865
0.99181
0.992649
0.993389
0.99403
0.994571
0.995007
0.995335
0.995551
0.995653
0.995864
0.99572
0.995453
0.995067
0.994565
0.99395
0.993228
0.992402
0.99147
0.990431
0.989269
0.987959
0.986454
0.98468
0.982524
0.979832
0.976377
0.97182
0.965646
0.957053
0.944791
0.926975
0.901235
0.866422
0.828152
0.803859
0.810407
0.842898
0.881313
0.912697
0.93504
0.950397
0.961024
0.968546
0.974014
0.9781
0.98124
0.983719
0.98573
0.98741
0.988851
0.99011
0.991221
0.992202
0.993062
0.993803
0.994424
0.994922
0.995295
0.995541
0.995656
0.995637
0.995487
0.995206
0.994798
0.994266
0.993612
0.992839
0.991947
0.990931
0.989783
0.988479
0.986979
0.98522
0.983095
0.980458
0.977093
0.972679
0.966728
0.958481
0.946747
0.92972
0.90504
0.871189
0.832553
0.805387
0.807946
0.838235
0.876793
0.909232
0.932563
0.948624
0.959719
0.967544
0.973208
0.97742
0.980638
0.983164
0.985202
0.986892
0.988337
0.989603
0.990729
0.991738
0.99264
0.993438
0.994131
0.994715
0.995186
0.995539
0.995772
0.995881
0.996066
0.995912
0.995625
0.995208
0.994665
0.993999
0.993216
0.992318
0.991309
0.990186
0.98894
0.987547
0.985966
0.984126
0.981923
0.979207
0.975765
0.971285
0.965308
0.95715
0.945808
0.929916
0.908124
0.880529
0.852152
0.834956
0.839628
0.863034
0.892239
0.917779
0.937109
0.95102
0.960958
0.968159
0.973489
0.977532
0.980681
0.983202
0.985278
0.987034
0.988557
0.9899
0.991094
0.992152
0.993081
0.993881
0.994551
0.995088
0.995489
0.995752
0.995875
0.995856
0.995694
0.995394
0.994955
0.994382
0.993676
0.99284
0.991876
0.990782
0.98955
0.988162
0.986581
0.984749
0.982566
0.979894
0.97653
0.97218
0.966406
0.958556
0.947669
0.93241
0.911388
0.88435
0.855482
0.836086
0.837811
0.859464
0.888551
0.914756
0.934828
0.949317
0.959662
0.967135
0.972644
0.9768
0.980017
0.982574
0.984665
0.986424
0.987948
0.989297
0.990507
0.991598
0.992577
0.993444
0.994195
0.994828
0.995336
0.995718
0.995968
0.996085
0.996258
0.996093
0.995786
0.995339
0.994754
0.994035
0.993186
0.992211
0.991113
0.989893
0.988544
0.987047
0.985364
0.98343
0.981149
0.978378
0.974908
0.970466
0.964642
0.95686
0.94634
0.932147
0.913596
0.89143
0.869933
0.857448
0.860879
0.878185
0.900827
0.921833
0.938615
0.95123
0.960554
0.967484
0.972717
0.976756
0.979952
0.982545
0.984712
0.98657
0.988198
0.989643
0.990933
0.992078
0.993082
0.993946
0.994667
0.995242
0.995671
0.995952
0.996083
0.996062
0.99589
0.995569
0.9951
0.994484
0.993724
0.992822
0.99178
0.990596
0.989266
0.987774
0.986089
0.984157
0.981887
0.97915
0.975749
0.971423
0.965783
0.958276
0.948146
0.934462
0.91646
0.894581
0.872535
0.858309
0.859496
0.875364
0.897736
0.919138
0.936469
0.949558
0.959236
0.966411
0.971806
0.975946
0.9792
0.98182
0.983994
0.98585
0.987477
0.98893
0.990242
0.991428
0.992492
0.993433
0.994247
0.99493
0.995477
0.995885
0.996153
0.996278
0.996448
0.996274
0.995948
0.995472
0.994847
0.994077
0.993162
0.992109
0.990919
0.989595
0.988131
0.986513
0.984708
0.982658
0.980276
0.977428
0.973924
0.969508
0.963826
0.956407
0.946662
0.933992
0.91817
0.900232
0.883709
0.874471
0.877054
0.890104
0.907885
0.925259
0.939846
0.951279
0.960018
0.966687
0.971833
0.975878
0.979131
0.981816
0.984095
0.986074
0.987822
0.989381
0.990773
0.992009
0.993089
0.994015
0.994785
0.995397
0.995852
0.996149
0.996287
0.996266
0.996084
0.995744
0.995246
0.99459
0.993778
0.99281
0.991687
0.99041
0.988974
0.987366
0.98556
0.983508
0.981131
0.978309
0.974864
0.970552
0.965036
0.95786
0.948445
0.936175
0.92073
0.902893
0.885802
0.875147
0.87597
0.887812
0.905237
0.922816
0.937797
0.949611
0.958653
0.96554
0.970832
0.974967
0.978268
0.980972
0.983251
0.985226
0.986976
0.988549
0.989974
0.991261
0.992413
0.993429
0.994304
0.995035
0.995618
0.996053
0.996337
0.996469
0.996642
0.996459
0.996116
0.995615
0.994956
0.994139
0.993167
0.992041
0.990765
0.989338
0.987758
0.986013
0.984077
0.981901
0.979408
0.976473
0.972925
0.968536
0.963005
0.955959
0.946977
0.935718
0.922257
0.907715
0.894919
0.888005
0.889988
0.899953
0.914012
0.928393
0.941034
0.95135
0.959505
0.965904
0.970957
0.97501
0.978329
0.981114
0.983512
0.985618
0.987489
0.989162
0.990654
0.991974
0.993123
0.994104
0.994916
0.995561
0.996039
0.996351
0.996495
0.996473
0.996282
0.995925
0.995402
0.994711
0.993853
0.992827
0.991631
0.990265
0.988725
0.987
0.985069
0.982891
0.980399
0.977485
0.973987
0.96969
0.964306
0.957469
0.948758
0.937802
0.924579
0.910004
0.896643
0.88855
0.889115
0.898049
0.911703
0.926146
0.939052
0.949665
0.958073
0.964661
0.969843
0.973975
0.977334
0.980132
0.982528
0.984632
0.986512
0.98821
0.989747
0.991132
0.992368
0.993452
0.994381
0.995154
0.995769
0.996227
0.996525
0.996664
0.996843
0.996653
0.996298
0.995778
0.995092
0.994241
0.993223
0.992038
0.990687
0.989169
0.987482
0.985618
0.983555
0.981256
0.978652
0.975634
0.972051
0.967706
0.962355
0.955716
0.947512
0.937599
0.926234
0.914492
0.904578
0.899387
0.900929
0.908581
0.9197
0.931552
0.942425
0.951653
0.959202
0.965299
0.970236
0.974281
0.977657
0.980536
0.983046
0.985271
0.987257
0.989032
0.990611
0.992001
0.993206
0.99423
0.995074
0.995743
0.996238
0.996561
0.996711
0.996687
0.99649
0.99612
0.995578
0.994862
0.993968
0.992896
0.99164
0.9902
0.988569
0.986738
0.98469
0.982393
0.979792
0.976792
0.973252
0.968988
0.963762
0.957296
0.949304
0.939603
0.92836
0.916489
0.906024
0.899835
0.900212
0.90697
0.917661
0.929467
0.940495
0.949939
0.957688
0.963944
0.968991
0.973104
0.976515
0.979405
0.981915
0.984146
0.986151
0.987966
0.989605
0.991077
0.992382
0.993521
0.994493
0.995299
0.995938
0.996413
0.996722
0.996866
0.997054
0.99686
0.996498
0.995967
0.995267
0.994395
0.993348
0.992124
0.99072
0.989135
0.987365
0.985404
0.983236
0.980834
0.978143
0.975066
0.971477
0.967218
0.9621
0.955926
0.94854
0.939939
0.930473
0.921093
0.913468
0.909592
0.910799
0.916662
0.925401
0.935067
0.944298
0.952441
0.959337
0.965077
0.969848
0.973848
0.977249
0.980195
0.982792
0.985111
0.987186
0.989037
0.990678
0.992115
0.993356
0.994405
0.995268
0.99595
0.996454
0.996782
0.996936
0.996911
0.99671
0.996334
0.995781
0.995051
0.994138
0.993037
0.991743
0.990251
0.988554
0.986644
0.984505
0.982114
0.979431
0.976373
0.972823
0.968631
0.963615
0.957575
0.950341
0.941868
0.932426
0.922849
0.914694
0.909966
0.910201
0.915286
0.923589
0.933126
0.942418
0.950699
0.957741
0.963606
0.968468
0.972525
0.975958
0.978918
0.981522
0.983857
0.985966
0.987874
0.989592
0.991127
0.992481
0.993655
0.994654
0.995478
0.996131
0.996615
0.996931
0.997078
0.997277
0.997082
0.996719
0.996188
0.995486
0.994612
0.993558
0.992322
0.990898
0.989281
0.987468
0.985452
0.983223
0.980766
0.978033
0.97495
0.971416
0.967312
0.962507
0.95688
0.950371
0.94307
0.935348
0.927994
0.922222
0.919372
0.920315
0.92476
0.93153
0.939275
0.94696
0.954
0.960174
0.965477
0.970006
0.973892
0.97726
0.980218
0.982851
0.985215
0.987333
0.989219
0.990885
0.992338
0.993587
0.99464
0.995504
0.996185
0.996689
0.997018
0.997171
0.997147
0.996945
0.996569
0.996017
0.995286
0.994371
0.993266
0.991962
0.990452
0.988728
0.98678
0.984597
0.982162
0.979448
0.976387
0.972889
0.96884
0.964112
0.958577
0.95216
0.944909
0.937132
0.929533
0.923263
0.919685
0.919815
0.923584
0.929925
0.937482
0.945146
0.952251
0.958517
0.963908
0.968507
0.972441
0.97584
0.978819
0.981469
0.983862
0.98603
0.98799
0.989748
0.991311
0.992683
0.993868
0.994871
0.995698
0.996352
0.996836
0.997153
0.997301
0.99751
0.997318
0.996962
0.996442
0.995755
0.994898
0.993865
0.992649
0.991244
0.989644
0.987843
0.985835
0.983614
0.981174
0.978479
0.975474
0.972089
0.968242
0.963856
0.958876
0.953311
0.9473
0.941185
0.935579
0.931321
0.92928
0.930007
0.933309
0.938431
0.944476
0.950694
0.956606
0.961977
0.96674
0.970923
0.974596
0.977839
0.980726
0.983315
0.985654
0.98775
0.989614
0.991256
0.992684
0.993909
0.99494
0.995785
0.996451
0.996944
0.997266
0.997417
0.997393
0.997195
0.996826
0.996286
0.995572
0.994677
0.993595
0.992316
0.99083
0.989129
0.987203
0.985043
0.982638
0.979972
0.976994
0.973641
0.969836
0.9655
0.960571
0.955041
0.949013
0.942783
0.936908
0.932195
0.929539
0.929592
0.932315
0.937033
0.942853
0.948987
0.954899
0.960309
0.965123
0.969353
0.973065
0.976338
0.979252
0.981872
0.984251
0.986412
0.988362
0.990107
0.991652
0.993004
0.994169
0.995152
0.995962
0.996602
0.997077
0.997388
0.997533
0.997753
0.997569
0.997228
0.99673
0.996074
0.995257
0.994273
0.993114
0.991774
0.990246
0.988523
0.9866
0.984476
0.982151
0.9796
0.976786
0.973669
0.970205
0.966359
0.962127
0.95756
0.952808
0.948155
0.944039
0.941009
0.939599
0.940146
0.942525
0.946273
0.950822
0.955666
0.96044
0.96493
0.969042
0.972756
0.976094
0.979096
0.981802
0.98425
0.986471
0.988467
0.990242
0.991804
0.993163
0.994328
0.995308
0.996112
0.996748
0.997219
0.997528
0.997673
0.99765
0.99746
0.997107
0.996591
0.99591
0.995058
0.994029
0.992812
0.991399
0.98978
0.987946
0.985891
0.983609
0.981093
0.97831
0.97522
0.971782
0.96796
0.96374
0.959159
0.95434
0.949534
0.94515
0.941722
0.939809
0.939811
0.94171
0.945094
0.949408
0.954124
0.958847
0.963331
0.967459
0.971197
0.974562
0.977592
0.98033
0.982816
0.985086
0.987153
0.98902
0.990688
0.992164
0.993453
0.994562
0.9955
0.996272
0.996883
0.997338
0.997636
0.997776
0.998006
0.997833
0.997515
0.997051
0.996443
0.995688
0.99478
0.993715
0.992486
0.991086
0.989511
0.987757
0.985824
0.983718
0.981425
0.978927
0.976205
0.973245
0.970047
0.966635
0.963077
0.959508
0.956136
0.953253
0.951192
0.950261
0.950657
0.952303
0.954929
0.958199
0.961794
0.965461
0.969029
0.9724
0.975532
0.978412
0.98105
0.983461
0.985662
0.987671
0.989483
0.9911
0.992527
0.993771
0.99484
0.995743
0.996486
0.997075
0.997514
0.997802
0.997937
0.997916
0.997738
0.997409
0.996929
0.996299
0.995513
0.994565
0.99345
0.992157
0.990679
0.98901
0.987144
0.985084
0.982827
0.980355
0.977652
0.974703
0.971504
0.968072
0.964465
0.960798
0.957264
0.954137
0.951748
0.950423
0.950398
0.951665
0.953985
0.957033
0.960484
0.964067
0.967595
0.970952
0.974086
0.97698
0.979639
0.98208
0.98432
0.986378
0.988261
0.989965
0.991492
0.992843
0.994026
0.995047
0.995912
0.996626
0.997194
0.997617
0.997896
0.998027
0.998266
0.998109
0.997821
0.997403
0.996858
0.996184
0.995379
0.99444
0.993361
0.992139
0.990772
0.989257
0.987598
0.985803
0.983866
0.981784
0.979555
0.977185
0.97469
0.972107
0.969502
0.966975
0.964667
0.962752
0.961419
0.960835
0.961107
0.962192
0.963941
0.966169
0.96869
0.971345
0.974012
0.97661
0.979089
0.981423
0.983602
0.985623
0.987489
0.989205
0.990763
0.992163
0.993406
0.994496
0.995438
0.996239
0.996901
0.99743
0.997825
0.998086
0.998209
0.998189
0.998028
0.99773
0.997299
0.996734
0.996034
0.995196
0.994214
0.993083
0.991797
0.990354
0.988753
0.986997
0.985088
0.983024
0.980802
0.978427
0.975912
0.973289
0.970615
0.967984
0.965526
0.96341
0.961826
0.960952
0.960919
0.961722
0.963233
0.965274
0.967658
0.970219
0.972826
0.975389
0.977853
0.980185
0.982375
0.984417
0.986315
0.988072
0.989692
0.991166
0.992492
0.993674
0.994713
0.995615
0.996384
0.997022
0.997531
0.997914
0.998166
0.998286
0.998533
0.998395
0.998143
0.997781
0.997311
0.996735
0.996052
0.995262
0.994363
0.993354
0.992235
0.991006
0.989672
0.988242
0.986717
0.985102
0.983405
0.981639
0.979829
0.978006
0.976223
0.974545
0.973057
0.971856
0.971038
0.97069
0.970866
0.971544
0.972647
0.974079
0.975741
0.977542
0.979405
0.981272
0.9831
0.984862
0.98654
0.988122
0.989602
0.990976
0.992237
0.993381
0.994406
0.995314
0.996106
0.996785
0.997352
0.997807
0.99815
0.998378
0.998486
0.998468
0.998327
0.998068
0.997694
0.997208
0.996611
0.995901
0.995078
0.994138
0.99308
0.991905
0.990612
0.989209
0.987701
0.986092
0.984389
0.982607
0.980765
0.978894
0.977042
0.975271
0.973662
0.97231
0.971315
0.970769
0.970739
0.971223
0.972155
0.973445
0.974994
0.976708
0.978508
0.980332
0.982133
0.983881
0.985557
0.987148
0.988648
0.990052
0.991357
0.992556
0.993645
0.994623
0.995492
0.996252
0.996905
0.997451
0.997892
0.998224
0.998445
0.99855
0.998802
0.998687
0.998477
0.998178
0.997792
0.997325
0.996777
0.99615
0.995445
0.994663
0.993806
0.992877
0.991881
0.990824
0.989711
0.988552
0.987358
0.986142
0.984925
0.983732
0.982595
0.981553
0.980652
0.97994
0.979465
0.979267
0.979375
0.979775
0.980431
0.981297
0.982324
0.983464
0.984675
0.98592
0.987169
0.988401
0.989598
0.990746
0.991837
0.992861
0.993813
0.994687
0.995481
0.996193
0.996822
0.997368
0.997828
0.998202
0.998485
0.998675
0.998766
0.998751
0.998633
0.998417
0.998108
0.997711
0.997227
0.996659
0.996007
0.995272
0.994456
0.99356
0.992588
0.991545
0.990438
0.989275
0.988068
0.986829
0.985579
0.98434
0.983145
0.982031
0.981043
0.98023
0.97964
0.979317
0.979294
0.979572
0.980117
0.980885
0.981829
0.982901
0.984058
0.98526
0.986479
0.987691
0.988877
0.990024
0.991122
0.992163
0.993142
0.994051
0.994887
0.995648
0.996331
0.996936
0.997462
0.997907
0.998269
0.998544
0.998729
0.998817
0.999073
0.998983
0.998819
0.998587
0.998291
0.997937
0.997527
0.997065
0.996553
0.995993
0.995389
0.994744
0.99406
0.993342
0.992598
0.991836
0.991065
0.990297
0.989545
0.988824
0.988152
0.987551
0.987041
0.986646
0.986385
0.986279
0.98634
0.986561
0.986927
0.987417
0.988008
0.988678
0.989405
0.990169
0.990954
0.991745
0.992528
0.993294
0.994033
0.994734
0.995395
0.996011
0.99658
0.997098
0.997562
0.997971
0.99832
0.998607
0.998826
0.998975
0.999046
0.999034
0.998942
0.998773
0.998535
0.998231
0.997865
0.997441
0.996961
0.996429
0.995848
0.995219
0.994546
0.993834
0.993087
0.992316
0.991529
0.990739
0.989958
0.989202
0.988488
0.987838
0.987272
0.986815
0.986487
0.986307
0.986293
0.986443
0.986743
0.987172
0.987709
0.988332
0.989019
0.98975
0.990508
0.991278
0.992048
0.992806
0.993544
0.994252
0.994926
0.995561
0.996152
0.996699
0.997198
0.997646
0.998041
0.998379
0.998658
0.998871
0.999016
0.999085
0.999343
0.999279
0.999163
0.999
0.998795
0.998553
0.998277
0.99797
0.997636
0.997278
0.996898
0.996497
0.996078
0.995643
0.995197
0.994748
0.994302
0.993866
0.993448
0.993054
0.992695
0.992379
0.992115
0.991913
0.991782
0.991729
0.99176
0.991873
0.99206
0.992313
0.992623
0.99298
0.993375
0.993798
0.994242
0.994697
0.995157
0.995614
0.996062
0.996492
0.996902
0.99729
0.997654
0.997992
0.9983
0.998576
0.998815
0.999014
0.999169
0.999274
0.999324
0.999316
0.99925
0.999131
0.998964
0.998754
0.998504
0.998219
0.997903
0.997557
0.997186
0.996791
0.996376
0.995941
0.99549
0.995031
0.994572
0.994119
0.99368
0.993264
0.992878
0.992533
0.992238
0.992002
0.991835
0.991743
0.991736
0.991811
0.991962
0.992182
0.992461
0.99279
0.99316
0.993561
0.993985
0.994425
0.994872
0.995321
0.995764
0.996196
0.99661
0.997005
0.997379
0.997731
0.998058
0.998356
0.998624
0.998856
0.999049
0.9992
0.999302
0.999352
0.99961
0.999572
0.999503
0.999409
0.999291
0.999154
0.999001
0.998834
0.998655
0.998466
0.99827
0.998066
0.997855
0.997636
0.997415
0.997196
0.996981
0.996775
0.99658
0.9964
0.996237
0.996097
0.995981
0.995893
0.995836
0.995813
0.995827
0.995876
0.995957
0.996068
0.996206
0.996366
0.996547
0.996743
0.996952
0.997171
0.997395
0.997622
0.997846
0.998063
0.998271
0.998472
0.998664
0.998845
0.999014
0.999168
0.999303
0.999417
0.999507
0.999569
0.999599
0.999594
0.999555
0.999485
0.999388
0.999268
0.999127
0.998969
0.998797
0.998613
0.998418
0.998215
0.998004
0.997785
0.99756
0.997333
0.99711
0.996894
0.996688
0.996496
0.996321
0.996166
0.996035
0.995932
0.995859
0.99582
0.995816
0.995849
0.995914
0.99601
0.996133
0.99628
0.996448
0.996632
0.996831
0.99704
0.997256
0.997476
0.997697
0.997914
0.998123
0.998324
0.998519
0.998705
0.998881
0.999045
0.999194
0.999326
0.999438
0.999525
0.999585
0.999615
0.99987
0.999858
0.999836
0.999806
0.999768
0.999726
0.999679
0.999629
0.999577
0.999523
0.999468
0.999412
0.999355
0.999293
0.999231
0.99917
0.999111
0.999055
0.999002
0.998954
0.998912
0.998875
0.998845
0.998823
0.998808
0.998802
0.998806
0.998818
0.998839
0.998868
0.998903
0.998945
0.998993
0.999046
0.999103
0.999163
0.999225
0.999288
0.999352
0.999411
0.999469
0.999525
0.99958
0.999633
0.999683
0.99973
0.999772
0.999808
0.999837
0.999857
0.999867
0.999865
0.999852
0.99983
0.999799
0.999761
0.999718
0.99967
0.999619
0.999565
0.99951
0.999453
0.999395
0.999334
0.999271
0.999208
0.999146
0.999087
0.999031
0.99898
0.998933
0.998893
0.998859
0.998833
0.998814
0.998804
0.998803
0.998811
0.998828
0.998853
0.998885
0.998923
0.998967
0.999016
0.99907
0.999127
0.999187
0.999248
0.99931
0.999371
0.999428
0.999484
0.999538
0.999592
0.999643
0.999693
0.999738
0.999779
0.999815
0.999843
0.999862
0.999872
)
;

boundaryField
{
    top
    {
        type            calculated;
        value           uniform 1;
    }
    bottom
    {
        type            calculated;
        value           uniform 0.148957;
    }
    frontAndBack
    {
        type            empty;
    }
    left_cyc
    {
        type            cyclic;
    }
    right_cyc
    {
        type            cyclic;
    }
}


// ************************************************************************* //
