/*--------------------------------*- C++ -*----------------------------------*\
| =========                 |                                                 |
| \\      /  F ield         | OpenFOAM: The Open Source CFD Toolbox           |
|  \\    /   O peration     | Version:  2.3.0                                 |
|   \\  /    A nd           | Web:      www.OpenFOAM.org                      |
|    \\/     M anipulation  |                                                 |
\*---------------------------------------------------------------------------*/
FoamFile
{
    version     2.0;
    format      ascii;
    class       volScalarField;
    location    "9000";
    object      NUEff;
}
// * * * * * * * * * * * * * * * * * * * * * * * * * * * * * * * * * * * * * //

dimensions      [0 2 -1 0 0 0 0];

internalField   nonuniform List<scalar> 
3060
(
0.175271
0.175081
0.174734
0.174241
0.173616
0.172874
0.172027
0.171088
0.170068
0.168975
0.167815
0.166595
0.165326
0.164037
0.162764
0.161508
0.160272
0.159063
0.157899
0.156802
0.155795
0.154906
0.15416
0.153587
0.153214
0.153066
0.153159
0.153482
0.154013
0.154723
0.155585
0.156572
0.157657
0.158816
0.160027
0.16127
0.162536
0.163822
0.165127
0.166416
0.167654
0.16883
0.169935
0.170962
0.171902
0.172743
0.173473
0.174078
0.174544
0.174859
0.17501
0.174987
0.174793
0.174437
0.173933
0.173294
0.172534
0.171667
0.170703
0.169655
0.168531
0.167338
0.166085
0.164786
0.163485
0.162206
0.160945
0.159709
0.15851
0.157367
0.156305
0.155348
0.154523
0.153856
0.153377
0.153112
0.153082
0.15329
0.153718
0.154339
0.155125
0.156047
0.15708
0.158197
0.159375
0.160593
0.161835
0.163094
0.164371
0.16566
0.166919
0.168124
0.169267
0.170342
0.171341
0.172257
0.173078
0.173791
0.174383
0.174839
0.175147
0.175294
0.640748
0.633314
0.619373
0.598868
0.571841
0.538722
0.500616
0.459424
0.41758
0.377462
0.34082
0.30855
0.280836
0.257425
0.238167
0.222534
0.209631
0.198921
0.190043
0.182732
0.176777
0.172018
0.168342
0.165684
0.164024
0.163377
0.163782
0.165211
0.167643
0.17109
0.175611
0.181312
0.188348
0.196927
0.207315
0.219867
0.235107
0.253888
0.276857
0.304128
0.335967
0.372206
0.41196
0.453477
0.494352
0.532101
0.564764
0.591182
0.610875
0.623748
0.629792
0.628878
0.621056
0.606413
0.584955
0.556847
0.522718
0.48394
0.44265
0.401377
0.362403
0.327257
0.296614
0.270503
0.248585
0.230862
0.216383
0.204431
0.194539
0.186381
0.17971
0.174328
0.170094
0.166914
0.164743
0.163577
0.163446
0.16436
0.16628
0.169199
0.17315
0.178208
0.1845
0.192198
0.201528
0.212774
0.226329
0.242792
0.263158
0.287643
0.316531
0.349983
0.387655
0.428426
0.470346
0.510956
0.547913
0.579517
0.604861
0.623649
0.635887
0.64162
0.94114
0.940421
0.939059
0.937013
0.934202
0.930493
0.925682
0.919454
0.911317
0.900487
0.885662
0.864567
0.833021
0.78311
0.701242
0.579919
0.446217
0.345275
0.28212
0.243171
0.21821
0.201643
0.190505
0.183206
0.178923
0.177303
0.178313
0.181962
0.18852
0.198697
0.213887
0.236709
0.272108
0.329337
0.42237
0.553348
0.681899
0.771727
0.826378
0.86047
0.882968
0.898601
0.90991
0.918335
0.924731
0.929629
0.933367
0.936163
0.938157
0.93943
0.940021
0.939932
0.939165
0.93771
0.935518
0.932494
0.928479
0.92323
0.916369
0.907295
0.895033
0.877925
0.853
0.814687
0.752579
0.651925
0.517376
0.394107
0.311645
0.261285
0.229824
0.209339
0.195641
0.186505
0.18075
0.1778
0.177474
0.179774
0.184793
0.192989
0.205348
0.223739
0.251661
0.295715
0.36753
0.479302
0.614947
0.726554
0.798569
0.842614
0.870863
0.89002
0.903634
0.913662
0.92124
0.92706
0.931558
0.935016
0.937617
0.939478
0.94067
0.941225
0.972068
0.971773
0.97122
0.970399
0.96929
0.967857
0.966051
0.963793
0.960972
0.957422
0.952893
0.946995
0.939095
0.928116
0.912075
0.887303
0.845467
0.767305
0.620763
0.438789
0.320768
0.260259
0.227857
0.209689
0.199996
0.19649
0.198662
0.206789
0.222671
0.251044
0.303376
0.405792
0.580113
0.742957
0.833373
0.880815
0.908255
0.925698
0.937475
0.945856
0.952058
0.956784
0.960461
0.963363
0.96567
0.967501
0.968939
0.970038
0.970834
0.971349
0.97159
0.971553
0.971242
0.970655
0.969783
0.968599
0.967066
0.96512
0.962672
0.959589
0.95567
0.950611
0.943926
0.934812
0.921857
0.902382
0.871055
0.815398
0.707928
0.530348
0.372227
0.286347
0.242003
0.217604
0.204038
0.197554
0.196858
0.201871
0.213454
0.234565
0.272442
0.344446
0.482466
0.666418
0.792966
0.858831
0.894979
0.916946
0.931369
0.941399
0.948695
0.954188
0.958431
0.961771
0.964432
0.966562
0.968265
0.969609
0.970641
0.97139
0.971875
0.972103
0.982739
0.982553
0.982205
0.981691
0.981001
0.980119
0.97902
0.977665
0.976003
0.973958
0.971417
0.968216
0.964104
0.958687
0.951315
0.940849
0.925129
0.899657
0.853862
0.760905
0.580645
0.394506
0.297258
0.252106
0.230993
0.223827
0.228223
0.245546
0.283539
0.364932
0.532181
0.728745
0.838972
0.892133
0.920861
0.938211
0.949581
0.957492
0.963248
0.967581
0.97093
0.973572
0.975686
0.977392
0.978774
0.979887
0.980772
0.981454
0.981952
0.982276
0.982427
0.982404
0.982208
0.98184
0.981295
0.980562
0.979621
0.978442
0.976983
0.97518
0.972942
0.970137
0.966563
0.961912
0.955682
0.947031
0.934423
0.914817
0.881502
0.817782
0.684633
0.479507
0.337288
0.270803
0.239527
0.225968
0.224569
0.234921
0.260854
0.315781
0.434405
0.635344
0.792228
0.868804
0.907651
0.929918
0.943967
0.953473
0.960255
0.965283
0.969126
0.972135
0.974534
0.976471
0.978046
0.97933
0.98037
0.981199
0.981842
0.982312
0.982617
0.982761
0.987904
0.987762
0.987498
0.987108
0.986588
0.985927
0.98511
0.984112
0.982902
0.981431
0.979633
0.977407
0.974607
0.971012
0.966275
0.959794
0.950563
0.936704
0.914348
0.874502
0.794012
0.628705
0.431441
0.323968
0.278689
0.264411
0.273077
0.309341
0.397912
0.579052
0.765075
0.8612
0.907521
0.932778
0.948111
0.95817
0.965151
0.970205
0.97401
0.976951
0.979276
0.981143
0.982661
0.983903
0.98492
0.985747
0.98641
0.986924
0.987301
0.987547
0.987663
0.987645
0.987496
0.987216
0.986804
0.986252
0.985549
0.984675
0.983604
0.982296
0.980695
0.978721
0.976254
0.973115
0.969028
0.963551
0.95591
0.944755
0.927443
0.898212
0.84281
0.725599
0.523856
0.367252
0.296373
0.268598
0.265864
0.286757
0.343967
0.475713
0.681151
0.821201
0.887456
0.921344
0.940919
0.95331
0.961688
0.967638
0.97204
0.975402
0.978035
0.980138
0.981844
0.983241
0.984392
0.985339
0.986114
0.986737
0.987222
0.987579
0.987811
0.98792
0.990808
0.990688
0.990463
0.990134
0.989696
0.989142
0.988462
0.987639
0.986649
0.985459
0.984018
0.982258
0.980074
0.977312
0.973736
0.968943
0.96231
0.952748
0.938195
0.914375
0.871365
0.78475
0.618768
0.443239
0.354285
0.3269
0.343386
0.41448
0.5721
0.753668
0.856596
0.906823
0.933892
0.950084
0.960558
0.967737
0.972876
0.976681
0.979598
0.98189
0.983726
0.98522
0.986449
0.987464
0.988303
0.988992
0.989547
0.98998
0.990299
0.990507
0.990605
0.99059
0.990463
0.990227
0.989878
0.989414
0.988826
0.988101
0.987219
0.986152
0.98486
0.983285
0.981343
0.978907
0.975787
0.971685
0.966099
0.958216
0.946559
0.928208
0.896763
0.836642
0.712927
0.522733
0.388894
0.334818
0.329651
0.370048
0.481273
0.669215
0.81378
0.885388
0.921865
0.942643
0.955608
0.964261
0.970332
0.974758
0.978098
0.980692
0.982753
0.984422
0.985791
0.986925
0.987869
0.988653
0.989299
0.989821
0.99023
0.990532
0.990729
0.990822
0.99258
0.99247
0.992265
0.991965
0.991567
0.991067
0.990457
0.989724
0.988851
0.98781
0.986563
0.985054
0.983202
0.980885
0.977919
0.973998
0.968673
0.961188
0.950192
0.933103
0.90452
0.852313
0.751728
0.594492
0.467552
0.422045
0.449615
0.557474
0.718082
0.834211
0.895165
0.92785
0.946996
0.959117
0.967267
0.973007
0.977199
0.98035
0.982794
0.984736
0.986309
0.987603
0.988676
0.989572
0.990319
0.990937
0.991438
0.991831
0.992121
0.992312
0.992401
0.992388
0.992272
0.992056
0.991739
0.991318
0.990788
0.990138
0.989355
0.988416
0.98729
0.98593
0.984271
0.982212
0.979606
0.976221
0.971686
0.965422
0.95643
0.942866
0.921041
0.882918
0.810461
0.677304
0.521246
0.435341
0.426693
0.492682
0.637352
0.784269
0.869316
0.913567
0.938366
0.953505
0.963405
0.970229
0.975132
0.97877
0.981543
0.983724
0.985477
0.986911
0.9881
0.989094
0.989928
0.990628
0.991208
0.991681
0.992053
0.992328
0.992508
0.992593
0.99372
0.993613
0.993415
0.993126
0.992744
0.992267
0.991688
0.990999
0.990183
0.989221
0.988079
0.986711
0.985047
0.982985
0.980367
0.976946
0.972365
0.966039
0.956975
0.943378
0.921803
0.885316
0.820673
0.714772
0.599735
0.546264
0.579522
0.685309
0.799319
0.873262
0.914986
0.939286
0.95437
0.964298
0.971156
0.97608
0.979731
0.982508
0.984682
0.986426
0.987852
0.989036
0.990029
0.990865
0.991568
0.992153
0.992631
0.993008
0.993287
0.993471
0.993557
0.993544
0.993432
0.993224
0.992919
0.992517
0.992011
0.991397
0.990661
0.989787
0.988748
0.987507
0.986006
0.984163
0.981851
0.978876
0.97494
0.96959
0.962071
0.951056
0.934082
0.906278
0.857844
0.772927
0.653594
0.562637
0.552074
0.626118
0.745928
0.841203
0.89686
0.928489
0.947506
0.95968
0.9679
0.973698
0.977933
0.981117
0.98357
0.985515
0.987093
0.988397
0.989488
0.990409
0.99119
0.99185
0.992401
0.992853
0.993211
0.993476
0.99365
0.993732
0.994482
0.994375
0.994176
0.993886
0.993504
0.993029
0.992456
0.991778
0.990983
0.990054
0.988962
0.987667
0.986107
0.98419
0.981776
0.978655
0.974525
0.968905
0.961007
0.94948
0.931909
0.903914
0.858177
0.787853
0.707073
0.664016
0.691355
0.768107
0.843759
0.895052
0.926512
0.946071
0.958761
0.967368
0.97344
0.977869
0.981194
0.983752
0.985772
0.987406
0.988756
0.989887
0.990846
0.99166
0.99235
0.992929
0.993405
0.993782
0.994062
0.994246
0.994333
0.99432
0.994208
0.993999
0.993693
0.993291
0.992789
0.992182
0.991461
0.990611
0.989612
0.988428
0.987012
0.985288
0.983147
0.980413
0.976839
0.972045
0.965419
0.955935
0.941795
0.919742
0.883973
0.826222
0.746299
0.67772
0.66894
0.726712
0.808438
0.872295
0.912563
0.937265
0.952941
0.963346
0.97055
0.975722
0.979552
0.982466
0.984732
0.986545
0.988028
0.989265
0.990311
0.991203
0.991965
0.992615
0.993162
0.993613
0.993971
0.994237
0.994412
0.994495
0.995014
0.994903
0.994697
0.994397
0.994003
0.993514
0.992928
0.992239
0.991439
0.99051
0.98943
0.988161
0.986648
0.984806
0.982506
0.979565
0.975716
0.970548
0.963407
0.953226
0.938221
0.915469
0.880802
0.831566
0.777408
0.748154
0.766827
0.81827
0.8704
0.908538
0.933733
0.950269
0.961403
0.96915
0.974716
0.978834
0.981963
0.984397
0.986336
0.98792
0.989242
0.990361
0.991317
0.992138
0.992839
0.99343
0.993919
0.994307
0.994596
0.994786
0.994876
0.994862
0.994746
0.994531
0.994216
0.993802
0.993287
0.992668
0.991937
0.991083
0.990087
0.98892
0.987537
0.985871
0.98382
0.981226
0.977873
0.97343
0.967381
0.958895
0.946591
0.928173
0.900025
0.85799
0.803672
0.757558
0.751539
0.790567
0.845626
0.891219
0.922358
0.942732
0.956254
0.965508
0.972053
0.976827
0.980407
0.98316
0.985325
0.987071
0.988514
0.989729
0.990766
0.991659
0.99243
0.993091
0.993651
0.994115
0.994485
0.99476
0.994942
0.995027
0.995403
0.995287
0.995069
0.994753
0.994338
0.993824
0.993211
0.992493
0.991665
0.990712
0.989613
0.988336
0.986828
0.985011
0.982764
0.979924
0.976249
0.97138
0.964759
0.95552
0.942313
0.923143
0.895662
0.859436
0.822117
0.802603
0.815048
0.850122
0.887801
0.917516
0.938469
0.952892
0.962932
0.970084
0.975312
0.979235
0.982252
0.984626
0.986536
0.988114
0.989443
0.99058
0.991561
0.992409
0.993138
0.993756
0.994269
0.994677
0.994981
0.995181
0.995275
0.995261
0.995139
0.994912
0.994581
0.994146
0.993606
0.992959
0.992201
0.99132
0.990301
0.989118
0.98773
0.986076
0.984059
0.981538
0.978315
0.974098
0.968439
0.960647
0.949636
0.933744
0.910691
0.878566
0.840012
0.80886
0.804844
0.831017
0.869506
0.903723
0.928845
0.946235
0.958244
0.966694
0.972791
0.977306
0.980734
0.9834
0.985521
0.987248
0.988689
0.989916
0.990974
0.991892
0.992691
0.993381
0.993968
0.994456
0.994845
0.995136
0.995327
0.995417
0.995705
0.995581
0.99535
0.995012
0.99457
0.994023
0.993371
0.992611
0.991738
0.99074
0.9896
0.988286
0.98675
0.98492
0.982683
0.979888
0.976318
0.971649
0.965403
0.956871
0.945024
0.92851
0.906098
0.878465
0.851783
0.838402
0.846927
0.871708
0.899978
0.923843
0.941679
0.954505
0.963719
0.970436
0.975433
0.979235
0.982196
0.984556
0.986478
0.988083
0.989449
0.990628
0.991653
0.992546
0.993316
0.993972
0.994517
0.994951
0.995275
0.995487
0.995587
0.995572
0.995443
0.995201
0.994849
0.994386
0.993813
0.993127
0.992326
0.991401
0.990337
0.989113
0.987691
0.986013
0.98399
0.981492
0.978339
0.974265
0.96888
0.961601
0.951568
0.937578
0.918222
0.892862
0.864434
0.842677
0.839918
0.85801
0.885955
0.912529
0.933342
0.948501
0.959365
0.967217
0.972995
0.97734
0.980682
0.983313
0.985432
0.987176
0.988648
0.989913
0.991014
0.991978
0.99282
0.993552
0.994176
0.994696
0.995111
0.995421
0.995624
0.99572
0.995956
0.995824
0.995577
0.995216
0.994742
0.994156
0.993458
0.992646
0.991715
0.990656
0.989454
0.98808
0.98649
0.984616
0.982356
0.979569
0.976055
0.971523
0.965565
0.957603
0.946862
0.932459
0.913873
0.892285
0.872628
0.863152
0.869199
0.887265
0.909028
0.928551
0.943935
0.955465
0.964009
0.970385
0.975217
0.97895
0.981896
0.984275
0.98624
0.987898
0.989323
0.990564
0.991651
0.9926
0.993422
0.994123
0.994705
0.995169
0.995514
0.995741
0.995847
0.995831
0.995693
0.995436
0.99506
0.994565
0.993953
0.993221
0.992366
0.991382
0.990258
0.988972
0.987492
0.985763
0.983702
0.981192
0.978065
0.974082
0.968896
0.962024
0.952788
0.940333
0.92385
0.90342
0.881875
0.86618
0.864211
0.877125
0.898004
0.919101
0.936608
0.949978
0.959911
0.967284
0.972824
0.977056
0.980357
0.98299
0.985138
0.98693
0.988457
0.989783
0.990946
0.99197
0.992869
0.993651
0.99432
0.994877
0.995321
0.995653
0.99587
0.995972
0.996179
0.996038
0.995775
0.995389
0.994882
0.994255
0.993506
0.992635
0.991638
0.990507
0.989228
0.987776
0.986111
0.984171
0.981863
0.979058
0.975569
0.971138
0.965418
0.957955
0.948184
0.935571
0.920048
0.902958
0.888144
0.881234
0.885661
0.899172
0.916199
0.932303
0.945631
0.956031
0.963985
0.970073
0.974782
0.978475
0.981434
0.983857
0.985886
0.987618
0.989121
0.990439
0.991597
0.992611
0.993491
0.99424
0.994862
0.995357
0.995725
0.995966
0.996078
0.996061
0.995915
0.995642
0.995241
0.994713
0.994058
0.993275
0.992361
0.99131
0.990112
0.98875
0.987192
0.985391
0.98327
0.980723
0.977595
0.973668
0.968639
0.962118
0.953584
0.942456
0.928346
0.911726
0.895087
0.883451
0.881997
0.891475
0.907396
0.924335
0.93915
0.950985
0.960098
0.967056
0.972403
0.976558
0.979848
0.982508
0.98471
0.98657
0.988174
0.989577
0.990816
0.991911
0.992875
0.993713
0.99443
0.995026
0.995502
0.995855
0.996087
0.996195
0.996388
0.996239
0.99596
0.99555
0.995011
0.994343
0.993544
0.992613
0.991546
0.990337
0.988971
0.98743
0.985677
0.983656
0.981285
0.978446
0.974971
0.970637
0.965157
0.958174
0.949301
0.938263
0.925263
0.911617
0.900286
0.89515
0.898464
0.908742
0.922205
0.935546
0.947095
0.956462
0.963856
0.969659
0.974241
0.977906
0.980891
0.983372
0.98548
0.987299
0.988891
0.990294
0.991529
0.992611
0.993549
0.994347
0.995008
0.995533
0.995923
0.996177
0.996296
0.996278
0.996124
0.995834
0.99541
0.994849
0.994153
0.993319
0.992344
0.991223
0.989946
0.988497
0.986851
0.984963
0.982768
0.980169
0.977027
0.973149
0.968281
0.962102
0.954229
0.9443
0.932209
0.918609
0.9056
0.896811
0.895711
0.902797
0.915099
0.928793
0.94135
0.951815
0.960161
0.966715
0.971865
0.97595
0.97924
0.981944
0.984213
0.986158
0.987851
0.989344
0.990667
0.991838
0.992869
0.993765
0.99453
0.995165
0.99567
0.996045
0.996291
0.996405
0.996593
0.996436
0.996143
0.995712
0.995144
0.994439
0.993594
0.992607
0.991475
0.99019
0.988741
0.987111
0.985268
0.983164
0.980729
0.977856
0.974398
0.97017
0.964937
0.958437
0.950426
0.940814
0.929953
0.919034
0.910305
0.906447
0.908962
0.916854
0.927542
0.938584
0.948551
0.956941
0.963778
0.969288
0.973738
0.977368
0.980377
0.982918
0.985104
0.987011
0.98869
0.990173
0.991482
0.992628
0.993619
0.994461
0.995157
0.995709
0.996118
0.996385
0.996509
0.996491
0.996329
0.996025
0.995579
0.99499
0.994257
0.993376
0.992345
0.991158
0.989806
0.988274
0.98654
0.984566
0.982296
0.979646
0.976491
0.972668
0.967967
0.962138
0.954915
0.946102
0.935777
0.924646
0.91442
0.907711
0.906864
0.912215
0.921777
0.932856
0.943465
0.952669
0.960269
0.966412
0.971359
0.975367
0.978655
0.981402
0.983741
0.985772
0.987556
0.989137
0.990541
0.991785
0.992879
0.993828
0.994637
0.995306
0.995838
0.996233
0.99649
0.996611
0.996799
0.996637
0.996332
0.995885
0.995296
0.994561
0.99368
0.992649
0.991462
0.990114
0.988594
0.986885
0.984962
0.982787
0.9803
0.977407
0.973987
0.969888
0.964932
0.95894
0.95178
0.943492
0.934489
0.925788
0.919065
0.916161
0.918081
0.924154
0.932619
0.941699
0.950223
0.957665
0.963927
0.969115
0.973406
0.976982
0.979998
0.982584
0.984836
0.986819
0.988573
0.990125
0.991494
0.992691
0.993725
0.9946
0.995323
0.995895
0.996319
0.996595
0.996725
0.996705
0.996538
0.996223
0.995761
0.99515
0.994388
0.993472
0.992396
0.991155
0.98974
0.988137
0.986327
0.984278
0.981947
0.97926
0.976112
0.972367
0.96786
0.962408
0.955844
0.948099
0.939357
0.930295
0.922267
0.91713
0.916471
0.92052
0.927944
0.93686
0.945747
0.953761
0.960611
0.966318
0.971032
0.974938
0.978208
0.980984
0.983382
0.985487
0.987351
0.989008
0.990483
0.991788
0.992933
0.993925
0.994767
0.995464
0.996016
0.996426
0.996693
0.996818
0.997013
0.996846
0.996535
0.996079
0.995476
0.994726
0.993823
0.992764
0.991543
0.990153
0.988583
0.98682
0.984843
0.982625
0.980115
0.977238
0.973895
0.969971
0.965342
0.959899
0.9536
0.946564
0.939203
0.932346
0.927207
0.925035
0.926499
0.931145
0.937789
0.945165
0.952349
0.95885
0.964501
0.969319
0.973405
0.976883
0.979871
0.98247
0.984758
0.986789
0.988592
0.99019
0.991597
0.992826
0.993884
0.994779
0.995516
0.9961
0.996532
0.996814
0.996947
0.996927
0.996755
0.996434
0.995963
0.99534
0.994562
0.993625
0.992523
0.991249
0.989794
0.988144
0.986284
0.984189
0.981826
0.979135
0.97603
0.972406
0.968141
0.963115
0.957239
0.950534
0.943236
0.935945
0.929692
0.925779
0.925264
0.928308
0.934022
0.941115
0.948453
0.955322
0.961401
0.966624
0.971057
0.974818
0.978029
0.980803
0.98323
0.985382
0.9873
0.989011
0.990533
0.991878
0.993056
0.994074
0.994936
0.995648
0.996212
0.99663
0.996904
0.997032
0.997235
0.997068
0.996755
0.996298
0.995695
0.994943
0.994038
0.992974
0.991746
0.990344
0.988761
0.986983
0.984997
0.982783
0.980301
0.977494
0.97429
0.97061
0.966376
0.96154
0.956122
0.950279
0.944384
0.939078
0.935212
0.933613
0.934717
0.938224
0.943353
0.94923
0.955159
0.960715
0.965705
0.970086
0.973899
0.977216
0.980117
0.982676
0.984951
0.986985
0.988797
0.990404
0.991818
0.993052
0.994112
0.995008
0.995745
0.996329
0.996761
0.997044
0.997177
0.997157
0.996985
0.996663
0.996192
0.995569
0.994791
0.993853
0.992749
0.991469
0.990006
0.988347
0.986479
0.984383
0.98204
0.979399
0.976397
0.972959
0.969004
0.964466
0.959321
0.953641
0.947674
0.941915
0.937122
0.934177
0.933778
0.936032
0.94036
0.945895
0.951827
0.957585
0.96286
0.967537
0.97162
0.975169
0.978262
0.980978
0.983385
0.985537
0.987468
0.989193
0.990728
0.992083
0.993268
0.994289
0.995154
0.995867
0.996432
0.996851
0.997126
0.997254
0.997467
0.997302
0.996995
0.996547
0.995956
0.99522
0.994335
0.993294
0.992092
0.99072
0.989169
0.987431
0.985494
0.98335
0.980969
0.978311
0.975328
0.971975
0.968217
0.964049
0.959528
0.95482
0.950231
0.946231
0.943392
0.942243
0.943061
0.945651
0.949515
0.954072
0.958827
0.963436
0.967712
0.971581
0.975036
0.978109
0.980845
0.98329
0.985486
0.987462
0.989228
0.990797
0.992179
0.993383
0.994419
0.995293
0.996014
0.996585
0.997008
0.997286
0.997417
0.997397
0.997228
0.996913
0.996451
0.995842
0.995082
0.994166
0.993087
0.991838
0.990408
0.988789
0.986969
0.984936
0.98268
0.980164
0.977345
0.974176
0.970616
0.966639
0.962265
0.957594
0.952852
0.948422
0.944833
0.942664
0.942359
0.94399
0.947187
0.951393
0.956052
0.960734
0.965173
0.969238
0.972888
0.976141
0.979034
0.981616
0.983932
0.986021
0.987904
0.989593
0.991095
0.992422
0.993581
0.994581
0.995426
0.996124
0.996678
0.997089
0.997359
0.997486
0.997709
0.997551
0.997256
0.996827
0.996262
0.995561
0.99472
0.993732
0.992593
0.991295
0.989832
0.988195
0.98638
0.984383
0.982187
0.979766
0.977098
0.974163
0.970957
0.967504
0.963878
0.960226
0.956782
0.953868
0.951849
0.951049
0.951638
0.953495
0.956313
0.959726
0.963399
0.967079
0.970604
0.973888
0.976898
0.979635
0.982116
0.984363
0.9864
0.988247
0.989906
0.991383
0.992688
0.993827
0.994808
0.995639
0.996325
0.996869
0.997274
0.997541
0.997667
0.997648
0.997485
0.997183
0.996741
0.99616
0.995438
0.994568
0.993547
0.992366
0.991017
0.989493
0.987786
0.98589
0.9838
0.981495
0.978949
0.976142
0.97306
0.969709
0.966133
0.962435
0.958802
0.955509
0.952907
0.951356
0.951128
0.952271
0.954557
0.957643
0.961169
0.964834
0.968426
0.971819
0.974956
0.97782
0.980422
0.982782
0.984924
0.986873
0.98864
0.990231
0.991651
0.992906
0.994005
0.994954
0.995758
0.996423
0.996952
0.997346
0.997606
0.997728
0.997961
0.997813
0.997537
0.997137
0.996614
0.995966
0.995192
0.994287
0.993248
0.992069
0.990744
0.989271
0.987648
0.985877
0.983947
0.98185
0.979579
0.977135
0.974532
0.971808
0.969035
0.966329
0.963855
0.961818
0.960437
0.9599
0.96031
0.961592
0.963567
0.966017
0.968731
0.971535
0.974304
0.976959
0.979455
0.981776
0.983917
0.985885
0.987688
0.989335
0.990825
0.99216
0.993343
0.994381
0.99528
0.996043
0.996676
0.997181
0.997559
0.997808
0.997926
0.997908
0.997756
0.997473
0.997063
0.996525
0.995858
0.99506
0.994126
0.993051
0.991829
0.990454
0.988924
0.987236
0.985391
0.983378
0.98119
0.978823
0.976283
0.973593
0.970806
0.968011
0.965347
0.962999
0.961185
0.960115
0.959952
0.960723
0.962295
0.964467
0.96702
0.969758
0.972527
0.975225
0.977789
0.980189
0.982415
0.984467
0.986355
0.988088
0.989672
0.991105
0.992391
0.993533
0.994537
0.995407
0.996147
0.996762
0.997253
0.997621
0.997864
0.997979
0.998221
0.998086
0.997836
0.997476
0.997006
0.996429
0.995743
0.994947
0.994039
0.993016
0.991875
0.990617
0.989241
0.987754
0.986153
0.984439
0.982616
0.980696
0.978701
0.976671
0.974662
0.972758
0.971065
0.969704
0.9688
0.968455
0.968728
0.969576
0.9709
0.972577
0.974483
0.976508
0.978566
0.980593
0.982548
0.984405
0.98615
0.987779
0.989289
0.990683
0.991954
0.993102
0.994128
0.995035
0.995826
0.996502
0.997066
0.997519
0.997859
0.998085
0.998192
0.998176
0.998038
0.997782
0.997412
0.996931
0.996337
0.995632
0.994811
0.993874
0.992817
0.991637
0.990334
0.98891
0.987368
0.985708
0.983933
0.982049
0.980072
0.978032
0.975976
0.973972
0.972114
0.970517
0.969306
0.9686
0.968487
0.968986
0.970021
0.97148
0.973239
0.97518
0.977201
0.979227
0.981205
0.983102
0.984897
0.986583
0.988154
0.989612
0.990957
0.992185
0.993294
0.994287
0.995166
0.995933
0.99659
0.997139
0.997581
0.997912
0.998133
0.998237
0.998489
0.99837
0.998152
0.997839
0.997434
0.996941
0.996359
0.995691
0.994936
0.994094
0.993165
0.99215
0.991054
0.989881
0.988634
0.98732
0.985949
0.984535
0.983101
0.981677
0.980306
0.979039
0.977939
0.977074
0.976507
0.976295
0.976469
0.977005
0.97785
0.97894
0.980207
0.981588
0.983027
0.984481
0.985916
0.98731
0.988645
0.989911
0.991101
0.992211
0.993235
0.99417
0.995014
0.995768
0.996432
0.997006
0.997488
0.997879
0.998174
0.998371
0.998465
0.998451
0.99833
0.998107
0.997787
0.997372
0.996866
0.996269
0.995582
0.994804
0.993936
0.992978
0.991932
0.990801
0.98959
0.988305
0.986953
0.985547
0.984104
0.98265
0.981221
0.979865
0.978637
0.977604
0.976834
0.976388
0.976315
0.976623
0.977273
0.978206
0.979356
0.980656
0.982046
0.983476
0.984907
0.986311
0.987669
0.988966
0.990195
0.991348
0.992424
0.993416
0.994322
0.995142
0.995874
0.99652
0.997078
0.997549
0.99793
0.998218
0.998411
0.998503
0.998761
0.998661
0.99848
0.998221
0.997889
0.997488
0.997022
0.996491
0.995899
0.995247
0.994538
0.993773
0.992957
0.992093
0.991188
0.99025
0.989289
0.988318
0.987356
0.986421
0.985542
0.984747
0.984071
0.983549
0.983211
0.983087
0.983192
0.983513
0.984025
0.984696
0.98549
0.986375
0.987318
0.988292
0.989276
0.990251
0.991203
0.992121
0.992997
0.993823
0.994595
0.995309
0.995963
0.996554
0.997082
0.997543
0.997935
0.998255
0.9985
0.998664
0.998743
0.998731
0.99863
0.998444
0.99818
0.99784
0.99743
0.996951
0.996407
0.995799
0.99513
0.9944
0.993614
0.992775
0.991887
0.990959
0.99
0.989021
0.988037
0.987069
0.986138
0.985274
0.984508
0.983876
0.983411
0.983143
0.983098
0.98328
0.983669
0.984234
0.984945
0.985764
0.986661
0.987605
0.988572
0.989541
0.990497
0.991428
0.992323
0.993175
0.993978
0.994729
0.995423
0.99606
0.996636
0.99715
0.9976
0.997983
0.998296
0.998535
0.998696
0.998773
0.999036
0.998958
0.998816
0.998616
0.998361
0.998057
0.997708
0.997316
0.996885
0.996419
0.995918
0.995386
0.994826
0.994239
0.993634
0.993016
0.992395
0.991779
0.991181
0.990612
0.990087
0.989621
0.989231
0.988934
0.988744
0.988675
0.988735
0.988917
0.989209
0.989595
0.990061
0.990589
0.991163
0.991768
0.992391
0.993021
0.993647
0.994261
0.994855
0.995422
0.99596
0.996464
0.996933
0.997364
0.997754
0.998099
0.998397
0.998643
0.998833
0.998961
0.999023
0.999014
0.998934
0.998789
0.998585
0.998325
0.998014
0.997657
0.997256
0.996815
0.996336
0.995823
0.995278
0.994704
0.994104
0.993485
0.992857
0.992228
0.991608
0.99101
0.990447
0.989934
0.989487
0.989123
0.988858
0.988707
0.988681
0.988783
0.989002
0.989325
0.989736
0.990219
0.990757
0.991335
0.991939
0.992557
0.993178
0.993793
0.994395
0.994975
0.995528
0.996052
0.996544
0.997001
0.997422
0.997803
0.998141
0.998432
0.998673
0.998859
0.998985
0.999046
0.999313
0.999257
0.999157
0.999016
0.998839
0.998631
0.998395
0.998135
0.997854
0.997554
0.997238
0.996907
0.996563
0.996206
0.995842
0.995476
0.995115
0.994764
0.994428
0.994114
0.993829
0.99358
0.993375
0.99322
0.993122
0.993086
0.993117
0.993212
0.993364
0.993568
0.993817
0.994103
0.994419
0.994759
0.995115
0.995481
0.995851
0.99622
0.996582
0.99693
0.997264
0.997583
0.997885
0.998167
0.998427
0.99866
0.998865
0.999036
0.999169
0.99926
0.999304
0.999297
0.999241
0.999138
0.998995
0.998815
0.998602
0.998362
0.998096
0.997809
0.997502
0.997179
0.996841
0.996489
0.996125
0.995755
0.995385
0.995021
0.994669
0.994335
0.994026
0.993748
0.993511
0.993319
0.993181
0.993103
0.993089
0.993141
0.993255
0.993424
0.993641
0.9939
0.994193
0.994514
0.994854
0.995209
0.995572
0.995937
0.996299
0.996653
0.996994
0.997321
0.997634
0.997929
0.998205
0.998459
0.998688
0.998889
0.999056
0.999187
0.999276
0.99932
0.999589
0.999556
0.999497
0.999415
0.999314
0.999196
0.999064
0.998922
0.99877
0.998612
0.998448
0.998279
0.998105
0.997925
0.997744
0.997565
0.997391
0.997224
0.997066
0.996921
0.996792
0.99668
0.996588
0.99652
0.996477
0.996461
0.996475
0.996517
0.996584
0.996675
0.996787
0.996917
0.997063
0.997222
0.997391
0.997568
0.997749
0.997933
0.998115
0.998291
0.998462
0.998628
0.998787
0.998939
0.999082
0.999212
0.999328
0.999427
0.999505
0.999558
0.999584
0.99958
0.999547
0.999487
0.999403
0.9993
0.99918
0.999046
0.998901
0.998747
0.998585
0.998418
0.998246
0.998068
0.997885
0.997702
0.997521
0.997346
0.997179
0.997024
0.996881
0.996756
0.996649
0.996564
0.996503
0.996469
0.996463
0.996486
0.996535
0.99661
0.996707
0.996824
0.996958
0.997106
0.997266
0.997436
0.997612
0.997791
0.997972
0.99815
0.998323
0.998491
0.998654
0.998811
0.99896
0.9991
0.999228
0.999342
0.999439
0.999515
0.999567
0.999593
0.999863
0.999852
0.999833
0.999807
0.999775
0.999738
0.999698
0.999656
0.999611
0.999566
0.999519
0.999473
0.999425
0.999375
0.999325
0.999276
0.999229
0.999184
0.999143
0.999105
0.999072
0.999043
0.99902
0.999003
0.998992
0.998988
0.998992
0.999002
0.999019
0.999042
0.999071
0.999104
0.999142
0.999184
0.999229
0.999277
0.999326
0.999377
0.999428
0.999476
0.999523
0.99957
0.999616
0.999661
0.999704
0.999744
0.99978
0.999811
0.999836
0.999853
0.999861
0.99986
0.999849
0.99983
0.999803
0.999771
0.999733
0.999693
0.999649
0.999604
0.999558
0.999511
0.999463
0.999414
0.999364
0.999313
0.999264
0.999217
0.999173
0.999132
0.999095
0.999063
0.999036
0.999014
0.998999
0.99899
0.998989
0.998994
0.999007
0.999026
0.99905
0.99908
0.999115
0.999153
0.999196
0.999241
0.999289
0.999338
0.999388
0.999437
0.999485
0.999531
0.999578
0.999623
0.999667
0.999709
0.999748
0.999784
0.999814
0.999839
0.999856
0.999864
)
;

boundaryField
{
    top
    {
        type            calculated;
        value           uniform 1;
    }
    bottom
    {
        type            calculated;
        value           uniform 0.148957;
    }
    frontAndBack
    {
        type            empty;
    }
    left_cyc
    {
        type            cyclic;
    }
    right_cyc
    {
        type            cyclic;
    }
}


// ************************************************************************* //
