/*--------------------------------*- C++ -*----------------------------------*\
| =========                 |                                                 |
| \\      /  F ield         | OpenFOAM: The Open Source CFD Toolbox           |
|  \\    /   O peration     | Version:  2.3.0                                 |
|   \\  /    A nd           | Web:      www.OpenFOAM.org                      |
|    \\/     M anipulation  |                                                 |
\*---------------------------------------------------------------------------*/
FoamFile
{
    version     2.0;
    format      ascii;
    class       volScalarField;
    location    "9000";
    object      p;
}
// * * * * * * * * * * * * * * * * * * * * * * * * * * * * * * * * * * * * * //

dimensions      [0 2 -2 0 0 0 0];

internalField   nonuniform List<scalar> 
765
(
0
-13.6568
-38.6726
-73.8686
-117.595
-167.397
-219.474
-268.898
-311.818
-346.163
-367.368
-375.674
-377.719
-376.494
-370.097
-352.463
-320.318
-279.289
-231.037
-179.105
-128.361
-82.9469
-45.5694
-18.0186
-1.5626
2.94198
-4.79432
-24.2999
-54.5983
-94.3053
-141.44
-192.967
-244.372
-291.068
-329.86
-358.916
-372.841
-377.397
-377.783
-374.64
-363.791
-338.463
-301.866
-256.941
-206.394
-154.439
-105.878
-64.1148
-31.3531
-9.10369
1.55267
43.7203
34.9361
19.1041
-2.78531
-29.6229
-60.1323
-93.116
-128.29
-161.249
-184.081
-197.978
-204.303
-205.228
-204.73
-200.2
-187.824
-167.345
-136.28
-100.806
-67.2666
-36.0645
-8.22204
14.9593
32.3373
42.8957
45.8121
40.8057
28.342
9.31857
-15.2198
-44.0885
-75.9773
-110.136
-145.478
-173.936
-191.917
-202.452
-205.268
-205.41
-203.761
-195.273
-179.477
-153.83
-119.321
-84.6257
-52.1852
-22.4711
3.23462
23.6991
37.8455
44.7231
134.062
127.061
114.47
97.1752
76.1618
52.4072
26.8226
-0.0355368
-24.7208
-39.8807
-46.5997
-45.7782
-43.3062
-44.9402
-47.0516
-41.9387
-29.0086
-5.9426
20.9812
46.9094
71.1874
92.951
111.232
125.042
133.459
135.785
131.788
121.851
106.751
87.442
64.9092
40.1114
13.8027
-12.862
-33.5333
-44.1837
-47.3175
-44.312
-43.7544
-46.8407
-45.7734
-37.1514
-19.2175
6.73059
33.3543
58.56
81.723
101.9
118.108
129.375
134.861
221.745
215.853
205.287
190.923
173.812
155.105
136.074
118.086
103.605
94.6358
94.6897
104.179
110.751
106.371
96.3237
93.7001
101.217
114.487
131.986
150.913
169.832
187.441
202.57
214.139
221.223
223.178
219.81
211.447
198.824
182.916
164.827
145.756
127.023
110.289
98.4463
93.006
98.4777
108.269
109.786
101.209
93.3068
96.1705
106.612
122.335
140.753
159.845
178.276
194.81
208.321
217.792
222.414
295.507
290.833
282.539
271.474
258.656
245.16
232.087
220.576
212.354
209.207
214.65
229.173
237.939
232.253
217.441
209.464
211.213
218.413
229.383
242.215
255.732
268.823
280.414
289.466
295.077
296.63
293.949
287.336
277.501
265.395
252.071
238.609
226.121
215.908
209.97
210.164
220.93
234.88
236.807
224.983
211.89
209.267
213.86
223.151
235.193
248.495
261.936
274.424
284.896
292.361
296.037
366.726
363.099
356.754
348.506
339.325
330.207
322.119
315.969
312.756
313.335
319.07
331.139
339.228
333.861
321.325
314.085
312.563
314.97
320.558
328.295
337.276
346.548
355.122
362.014
366.36
367.569
365.477
360.369
352.926
344.056
334.753
325.998
318.728
313.851
312.41
315.144
324.212
336.342
338.19
327.597
316.795
312.654
313.1
317.181
323.918
332.369
341.608
350.662
358.532
364.274
367.137
435.924
433.346
428.939
423.428
417.661
412.49
408.698
406.947
407.689
411.119
417.227
425.755
431.334
427.598
418.985
412.245
408.229
406.875
408.1
411.486
416.417
422.133
427.796
432.549
435.627
436.493
434.993
431.392
426.303
420.53
414.932
410.331
407.459
406.861
408.917
413.61
421.07
429.31
430.604
423.376
415.274
409.883
407.132
407.073
409.398
413.618
419.028
424.826
430.15
434.172
436.217
503.832
502.398
500.081
497.444
495.128
493.76
493.892
495.908
499.863
505.496
512.155
518.883
522.638
520.152
513.703
506.915
500.984
496.606
494.147
493.611
494.683
496.842
499.471
501.929
503.624
504.117
503.263
501.302
498.726
496.149
494.212
493.512
494.537
497.503
502.339
508.563
515.437
521.314
522.168
517.19
510.322
503.855
498.599
495.134
493.615
493.916
495.59
498.06
500.688
502.844
503.997
569.953
569.851
569.925
570.497
571.901
574.455
578.417
583.881
590.632
598.134
605.46
611.475
614.343
612.474
606.959
599.813
592.253
585.263
579.476
575.167
572.31
570.671
569.939
569.783
569.874
569.931
569.833
569.769
570.037
570.969
572.896
576.114
580.824
586.963
594.18
601.737
608.596
613.393
614.027
610.117
603.633
596.156
588.769
582.31
577.216
573.635
571.409
570.256
569.85
569.859
569.97
633.099
634.562
637.397
641.602
647.124
653.891
661.809
670.681
680.107
689.403
697.581
703.538
706.089
704.448
699.139
691.356
682.209
672.733
663.685
655.522
648.479
642.662
638.143
634.983
633.197
632.734
633.535
635.68
639.201
644.068
650.214
657.562
665.992
675.208
684.686
693.586
700.835
705.308
705.861
702.311
695.673
687.099
677.683
668.345
659.684
652.049
645.594
640.402
636.543
634.06
632.939
691.501
694.734
700.655
708.884
718.931
730.285
742.451
754.93
767.164
778.395
787.668
793.999
796.559
794.924
789.37
780.671
769.785
757.696
745.21
732.924
721.338
710.938
702.234
695.724
691.822
690.765
692.59
697.219
704.359
713.565
724.329
736.148
748.537
760.985
772.848
783.263
791.232
795.834
796.381
792.78
785.603
775.728
764.154
751.795
739.35
727.341
716.268
706.628
698.935
693.659
691.139
742.942
748.046
757.209
769.66
784.473
800.693
817.409
833.803
849.148
862.623
873.318
880.374
883.157
881.388
875.245
865.297
852.365
837.362
821.134
804.424
788.006
772.775
759.676
749.649
743.514
741.825
744.737
751.982
762.92
776.687
792.33
808.914
825.565
841.547
856.094
868.336
877.365
882.416
883.005
879.075
871.009
859.512
845.475
829.791
813.254
796.573
780.612
766.294
754.579
746.365
742.363
784.966
791.85
804.089
820.558
839.953
860.935
882.229
902.705
921.432
937.482
949.954
958.053
961.219
959.211
952.187
940.64
925.321
907.12
886.957
865.76
844.589
824.696
807.408
794.045
785.789
783.494
787.445
797.172
811.715
829.838
850.207
871.512
892.526
912.263
929.799
944.216
954.649
960.408
961.075
956.598
947.309
933.836
917.014
897.755
876.985
855.644
834.926
816.129
800.593
789.594
784.18
814.856
823.19
837.923
857.654
880.806
905.787
931.082
955.325
977.334
996.032
1010.45
1019.76
1023.4
1021.1
1013.03
999.706
981.902
960.557
936.724
911.555
886.363
862.631
841.937
825.87
815.889
813.097
817.897
829.64
847.104
868.775
893.056
918.392
943.329
966.617
987.134
1003.85
1015.87
1022.48
1023.25
1018.1
1007.41
991.81
972.167
949.48
924.851
899.488
874.809
852.355
833.722
820.464
813.899
830.691
839.839
855.95
877.47
902.684
929.899
957.535
984.124
1008.27
1028.75
1044.52
1054.71
1058.7
1056.17
1047.35
1032.78
1013.29
989.88
963.738
936.207
908.75
882.908
860.348
842.789
831.845
828.772
834.051
846.915
865.985
889.596
916.035
943.662
970.978
996.53
1019.02
1037.32
1050.46
1057.69
1058.53
1052.9
1041.2
1024.13
1002.6
977.706
950.697
923.021
896.148
871.692
851.36
836.851
829.637
)
;

boundaryField
{
    top
    {
        type            calculated;
        value           nonuniform List<scalar> 
51
(
832.558
842.199
859.077
881.51
907.705
935.938
964.658
992.403
1017.63
1039.07
1055.59
1066.3
1070.5
1067.84
1058.56
1043.29
1022.89
998.422
971.134
942.491
914.008
887.175
863.681
845.311
833.795
830.541
836.122
849.637
869.56
894.124
921.56
950.222
978.683
1005.37
1028.88
1048.04
1061.83
1069.43
1070.32
1064.39
1052.11
1034.23
1011.71
985.697
957.524
928.796
900.918
875.494
854.278
839.056
831.44
)
;
    }
    bottom
    {
        type            calculated;
        value           nonuniform List<scalar> 
51
(
-71.5684
-85.5088
-111.021
-146.9
-191.473
-242.265
-295.426
-345.845
-389.734
-425.012
-447.051
-455.989
-458.318
-456.908
-449.946
-431.514
-398.451
-356.46
-307.218
-254.213
-202.452
-156.157
-118.057
-89.9637
-73.1708
-68.5675
-76.4698
-96.3697
-127.26
-167.733
-215.787
-268.355
-320.809
-368.49
-408.239
-438.19
-452.866
-457.903
-458.353
-454.82
-443.276
-417.079
-379.535
-333.631
-282.061
-229.043
-179.526
-136.957
-103.557
-80.8621
-69.9809
)
;
    }
    frontAndBack
    {
        type            empty;
    }
    left_cyc
    {
        type            cyclic;
    }
    right_cyc
    {
        type            cyclic;
    }
}


// ************************************************************************* //
