/*--------------------------------*- C++ -*----------------------------------*\
| =========                 |                                                 |
| \\      /  F ield         | OpenFOAM: The Open Source CFD Toolbox           |
|  \\    /   O peration     | Version:  2.3.0                                 |
|   \\  /    A nd           | Web:      www.OpenFOAM.org                      |
|    \\/     M anipulation  |                                                 |
\*---------------------------------------------------------------------------*/
FoamFile
{
    version     2.0;
    format      ascii;
    class       volScalarField;
    location    "9000";
    object      p;
}
// * * * * * * * * * * * * * * * * * * * * * * * * * * * * * * * * * * * * * //

dimensions      [0 2 -2 0 0 0 0];

internalField   nonuniform List<scalar> 
3060
(
0
-3.05031
-8.76845
-17.1098
-28.0284
-41.4882
-57.4644
-75.9293
-96.8226
-120.018
-145.3
-172.34
-200.68
-229.706
-258.62
-286.459
-312.243
-335.072
-354.184
-369.195
-380.276
-387.887
-392.739
-395.594
-397.071
-397.557
-397.198
-395.903
-393.345
-388.953
-381.986
-371.692
-357.542
-339.277
-317.144
-291.852
-264.299
-235.494
-206.44
-177.997
-150.829
-125.436
-102.176
-81.2882
-62.9142
-47.1234
-33.9475
-23.4102
-15.5436
-10.3868
-7.97672
-8.33582
-11.4601
-17.3225
-25.8845
-37.1078
-50.9634
-67.4274
-86.4619
-107.982
-131.822
-157.716
-185.269
-213.941
-243.022
-271.601
-298.659
-323.214
-344.399
-361.596
-374.709
-384.076
-390.301
-394.15
-396.336
-397.366
-397.507
-396.786
-394.999
-391.693
-386.199
-377.749
-365.682
-349.601
-329.467
-305.788
-279.381
-251.167
-222.135
-193.219
-165.163
-138.541
-113.774
-91.16
-70.8888
-53.0669
-37.7429
-24.9414
-14.6892
-7.02582
-1.99795
0.352225
38.4994
35.9138
31.043
23.8846
14.4314
2.67884
-11.3615
-27.6427
-46.0659
-66.4714
-88.626
-112.198
-136.713
-161.529
-185.937
-209.462
-231.896
-252.582
-270.28
-284.135
-294.298
-301.298
-305.825
-308.553
-310.005
-310.495
-310.143
-308.875
-306.424
-302.317
-295.903
-286.478
-273.472
-256.579
-236.437
-214.295
-190.99
-166.776
-142.061
-117.556
-93.9494
-71.7565
-51.3426
-32.9633
-16.7928
-2.93761
8.55261
17.6678
24.4166
28.811
30.856
30.5518
27.8983
22.895
15.5345
5.80448
-6.30065
-20.7626
-37.5184
-56.4449
-77.3485
-99.9487
-123.846
-148.479
-173.125
-197.121
-220.16
-241.896
-261.309
-277.209
-289.241
-297.82
-303.568
-307.189
-309.296
-310.309
-310.443
-309.722
-307.978
-304.841
-299.739
-291.98
-280.904
-266.028
-247.436
-226.189
-203.44
-179.668
-155.092
-130.282
-105.956
-82.7134
-60.9856
-41.076
-23.1966
-7.49081
5.95744
17.1121
25.9676
32.5303
36.8067
38.7972
68.4486
65.9096
61.1491
54.2123
45.1736
34.1482
21.2984
6.82668
-9.04762
-26.1168
-44.2021
-63.1559
-82.8592
-103.216
-124.048
-144.733
-164.025
-180.695
-194.323
-205.48
-214.161
-219.951
-223.451
-225.435
-226.444
-226.772
-226.527
-225.644
-223.877
-220.755
-215.548
-207.529
-196.895
-183.914
-168.01
-149.31
-128.943
-108.232
-87.9517
-68.3322
-49.4731
-31.4954
-14.5544
1.1618
15.4364
28.042
38.7699
47.4536
53.9757
58.2614
60.2658
59.9671
57.3688
52.4985
45.4078
36.1814
24.949
11.8896
-2.78058
-18.8341
-36.0606
-54.2804
-73.3467
-93.1481
-113.573
-134.3
-154.371
-172.429
-187.53
-199.863
-209.885
-217.137
-221.725
-224.435
-225.937
-226.64
-226.736
-226.248
-225.023
-222.709
-218.692
-212.178
-202.792
-191.042
-176.66
-159.22
-139.432
-118.607
-97.8662
-77.6687
-58.1508
-39.4101
-21.5733
-4.79607
10.7347
24.8057
37.1994
47.7218
56.2231
62.5994
66.7855
68.7416
115.435
112.968
108.357
101.664
92.9898
82.478
70.3199
56.7511
42.0336
26.4273
10.1632
-6.57586
-23.6662
-41.0359
-58.5581
-75.7941
-92.0167
-106.822
-119.77
-129.658
-136.24
-140.691
-143.09
-144.104
-144.477
-144.563
-144.476
-144.148
-143.304
-141.31
-137.351
-131.383
-122.435
-110.186
-95.8698
-80.0727
-63.1442
-45.7943
-28.5655
-11.6248
4.95562
21.0546
36.4865
51.0131
64.3645
76.2687
86.4809
94.8028
101.087
105.233
107.177
106.887
104.369
99.6613
92.8376
84.0099
73.3383
61.0341
47.3515
32.5651
16.9393
0.700325
-15.982
-33.0031
-50.2887
-67.6031
-84.2963
-99.7344
-113.603
-125.103
-133.148
-138.566
-141.983
-143.593
-144.26
-144.509
-144.552
-144.409
-143.918
-142.633
-139.721
-134.762
-127.441
-116.638
-103.125
-87.9286
-71.3834
-54.0016
-36.4951
-19.192
-2.18471
14.4453
30.5583
45.9575
60.4021
73.6287
85.3799
95.4301
103.601
109.76
113.819
115.72
162.635
160.417
156.274
150.271
142.506
133.107
122.238
110.087
96.8621
82.7739
68.0286
52.8252
37.3657
21.8805
6.68891
-7.72885
-20.9034
-32.939
-44.1566
-53.558
-59.7947
-62.8547
-63.8612
-63.8838
-63.6135
-63.4597
-63.5303
-63.7642
-63.8624
-63.1879
-60.8178
-55.5147
-46.917
-36.0706
-24.3072
-11.4934
2.59609
17.5563
32.863
48.1648
63.2153
77.8031
91.7212
104.756
116.688
127.303
136.407
143.833
149.45
153.16
154.9
154.641
152.386
148.175
142.079
134.204
124.691
113.715
101.476
88.1918
74.08
59.3524
44.2158
28.8864
13.6292
-1.16289
-14.9401
-27.4368
-38.9948
-49.4281
-57.2133
-61.6648
-63.4691
-63.8767
-63.6905
-63.485
-63.4734
-63.6739
-63.9259
-63.7168
-62.3073
-58.5006
-51.3858
-41.3406
-29.8927
-17.606
-4.08818
10.5866
25.8944
41.3991
56.8127
71.9161
86.51
100.394
113.36
125.197
135.701
144.689
152.008
157.535
161.182
162.891
204.255
202.237
198.473
193.031
186.01
177.539
167.776
156.898
145.101
132.584
119.546
106.184
92.6989
79.3112
66.2894
53.982
42.7914
33.0085
24.8552
18.4813
14.0745
12.6248
13.47
15.1698
16.4144
16.865
16.6061
15.5734
13.8575
12.5927
13.2305
16.8705
22.7932
30.4899
39.8706
50.6969
62.702
75.487
88.6768
101.984
115.176
128.042
140.378
151.976
162.631
172.142
180.324
187.019
192.095
195.455
197.032
196.797
194.753
190.942
185.436
178.342
169.799
159.973
149.054
137.245
124.752
111.782
98.5393
85.2381
72.1221
59.4986
47.7643
37.2926
28.3224
21.0983
15.6496
12.8004
12.8076
14.3248
15.9303
16.7475
16.823
16.1788
14.7336
13.1211
12.7286
14.9598
19.9823
26.8038
35.4057
45.5745
57.0902
69.623
82.7704
96.2071
109.68
122.977
135.899
148.248
159.825
170.431
179.875
187.982
194.604
199.618
202.932
204.488
242.797
240.976
237.583
232.686
226.386
218.808
210.102
200.437
189.995
178.963
167.53
155.89
144.239
132.79
121.785
111.502
102.243
94.2709
87.8671
83.4378
81.5105
82.8531
86.9525
91.3486
94.4581
95.5817
94.9129
92.2502
87.9987
83.4791
81.2275
82.3749
86.2453
92.19
99.7835
108.711
118.711
129.48
140.724
152.19
163.654
174.91
185.758
196.001
205.446
213.905
221.206
227.197
231.75
234.769
236.189
235.977
234.139
230.715
225.779
219.436
211.819
203.087
193.418
182.999
172.026
160.697
149.212
137.781
126.634
116.034
106.284
97.6786
90.4758
85.0291
81.7792
81.487
84.551
89.2043
93.1401
95.2677
95.475
93.84
90.296
85.7625
82.182
81.7252
84.3811
89.362
96.2085
104.538
114.092
124.593
135.738
147.261
158.928
170.533
181.88
192.777
203.034
212.467
220.895
228.154
234.1
238.614
241.604
243.008
278.84
277.199
274.145
269.748
264.108
257.349
249.618
241.078
231.901
222.266
212.356
202.351
192.439
182.814
173.69
165.301
157.9
151.736
147.076
144.276
143.831
146.722
153.614
161.757
167.556
169.851
168.438
163.408
155.519
147.846
143.894
143.62
145.895
150.125
155.93
163.018
171.137
180.03
189.45
199.175
209.001
218.735
228.186
237.167
245.494
252.988
259.483
264.831
268.908
271.617
272.891
272.701
271.051
267.981
263.564
257.906
251.137
243.411
234.897
225.777
216.234
206.458
196.639
186.973
177.668
168.951
161.074
154.294
148.866
145.105
143.414
144.515
149.579
157.728
165.047
169.166
169.615
166.376
159.773
151.54
145.581
143.681
144.807
148.128
153.21
159.72
167.402
176.007
185.282
195
204.954
214.952
224.808
234.341
243.369
251.715
259.208
265.689
271.017
275.073
277.764
279.03
313.247
311.773
309.034
305.101
300.072
294.071
287.242
279.743
271.74
263.404
254.907
246.421
238.12
230.179
222.786
216.14
210.454
205.945
202.857
201.503
202.297
205.931
213.384
223.528
231.881
235.342
233.197
225.832
215.613
207.161
202.641
201.225
202.097
204.787
208.96
214.356
220.748
227.919
235.661
243.779
252.09
260.414
268.572
276.386
283.681
290.285
296.038
300.794
304.431
306.853
307.995
307.824
306.347
303.603
299.666
294.639
288.651
281.852
274.406
266.486
258.268
249.931
241.653
233.614
226.002
219.012
212.857
207.756
203.939
201.685
201.352
203.474
208.985
218.291
228.175
234.293
234.978
230.123
220.878
211.073
204.663
201.858
201.674
203.512
206.996
211.833
217.79
224.65
232.204
240.255
248.621
257.125
265.597
273.862
281.75
289.091
295.719
301.48
306.234
309.865
312.281
313.418
346.598
345.28
342.833
339.33
334.867
329.569
323.576
317.041
310.125
302.991
295.802
288.72
281.901
275.505
269.692
264.632
260.497
257.467
255.744
255.571
257.261
261.25
268.129
277.586
286.361
290.348
287.857
279.898
270.136
262.467
257.81
255.606
255.359
256.73
259.457
263.327
268.153
273.757
279.965
286.608
293.524
300.547
307.511
314.249
320.592
326.375
331.442
335.652
338.883
341.04
342.058
341.906
340.589
338.147
334.652
330.208
324.941
318.998
312.537
305.724
298.729
291.718
284.857
278.311
272.245
266.825
262.229
258.637
256.24
255.261
255.977
258.762
264.161
272.586
282.33
289.119
289.919
284.415
275.017
266.05
259.967
256.627
255.457
256.059
258.143
261.478
265.871
271.143
277.123
283.644
290.546
297.671
304.861
311.953
318.786
325.195
331.022
336.115
340.338
343.575
345.734
346.751
379.34
378.168
375.999
372.901
368.973
364.335
359.124
353.49
347.586
341.568
335.589
329.799
324.339
319.351
314.971
311.336
308.582
306.847
306.276
307.036
309.325
313.368
319.384
327.086
334.422
337.956
335.727
328.969
321.04
314.519
310.009
307.322
306.218
306.491
307.963
310.482
313.905
318.094
322.908
328.204
333.838
339.662
345.522
351.261
356.717
361.734
366.16
369.857
372.706
374.614
375.516
375.381
374.215
372.056
368.977
365.079
360.487
355.342
349.797
344.012
338.146
332.357
326.796
321.612
316.947
312.943
309.741
307.48
306.303
306.369
307.862
310.998
316.022
323.031
330.986
336.849
337.568
332.751
325.003
317.634
312.141
308.577
306.706
306.309
307.197
309.211
312.206
316.047
320.599
325.723
331.282
337.135
343.138
349.141
354.99
360.528
365.604
370.07
373.792
376.657
378.572
379.476
411.752
410.723
408.822
406.117
402.703
398.698
394.234
389.454
384.505
379.533
374.681
370.086
365.875
362.17
359.084
356.726
355.193
354.579
354.976
356.473
359.159
363.101
368.276
374.313
379.843
382.516
380.824
375.735
369.623
364.173
359.932
356.96
355.2
354.563
354.956
356.287
358.46
361.374
364.921
368.983
373.436
378.146
382.974
387.773
392.391
396.679
400.492
403.697
406.179
407.846
408.635
408.518
407.497
405.612
402.933
399.559
395.61
391.222
386.543
381.723
376.912
372.255
367.892
363.952
360.558
357.825
355.862
354.765
354.63
355.549
357.616
360.913
365.483
371.193
377.255
381.674
382.222
378.586
372.72
366.828
361.96
358.348
355.978
354.776
354.65
355.512
357.268
359.825
363.082
366.93
371.252
375.927
380.823
385.803
390.722
395.433
399.791
403.654
406.894
409.398
411.077
411.871
443.986
443.101
441.467
439.153
436.249
432.866
429.132
425.181
421.15
417.174
413.386
409.907
406.852
404.322
402.411
401.196
400.741
401.1
402.313
404.403
407.371
411.169
415.646
420.401
424.483
426.402
425.19
421.474
416.761
412.173
408.208
405.056
402.778
401.382
400.847
401.133
402.19
403.953
406.343
409.265
412.616
416.278
420.125
424.022
427.83
431.408
434.62
437.34
439.458
440.886
441.563
441.462
440.587
438.974
436.691
433.832
430.513
426.862
423.018
419.121
415.31
411.717
408.466
405.672
403.436
401.85
400.987
400.909
401.665
403.288
405.794
409.167
413.319
418.007
422.598
425.8
426.193
423.572
419.184
414.438
410.113
406.521
403.779
401.919
400.931
400.788
401.445
402.848
404.928
407.603
410.779
414.349
418.198
422.201
426.224
430.132
433.787
437.056
439.817
441.962
443.405
444.089
476.095
475.356
473.999
472.084
469.698
466.946
463.943
460.815
457.686
454.679
451.913
449.495
447.523
446.083
445.245
445.062
445.566
446.776
448.687
451.269
454.46
458.138
462.091
465.94
469.017
470.406
469.535
466.777
463.047
459.094
455.351
452.061
449.358
447.317
445.973
445.335
445.388
446.1
447.42
449.276
451.582
454.239
457.134
460.147
463.151
466.018
468.625
470.852
472.599
473.782
474.345
474.261
473.534
472.198
470.319
467.983
465.298
462.383
459.364
456.37
453.526
450.95
448.752
447.027
445.858
445.313
445.437
446.258
447.784
450.001
452.866
456.289
460.115
464.063
467.627
469.976
470.257
468.346
464.984
461.058
457.149
453.582
450.541
448.128
446.398
445.372
445.048
445.406
446.406
447.991
450.087
452.606
455.446
458.495
461.636
464.744
467.692
470.36
472.632
474.409
475.61
476.181
508.051
507.467
506.399
504.903
503.059
500.959
498.709
496.417
494.196
492.153
490.389
488.998
488.062
487.647
487.805
488.564
489.933
491.899
494.42
497.429
500.817
504.422
508.013
511.256
513.681
514.731
514.081
511.945
508.866
505.35
501.756
498.336
495.265
492.661
490.601
489.13
488.267
488.006
488.321
489.16
490.456
492.127
494.076
496.2
498.388
500.527
502.506
504.221
505.579
506.505
506.948
506.881
506.31
505.267
503.809
502.016
499.986
497.823
495.642
493.553
491.666
490.084
488.899
488.19
488.021
488.436
489.457
491.083
493.29
496.024
499.199
502.683
506.284
509.727
512.615
514.412
514.619
513.164
510.473
507.101
503.479
499.911
496.609
493.718
491.336
489.523
488.312
487.71
487.705
488.26
489.322
490.818
492.664
494.763
497.013
499.304
501.526
503.568
505.33
506.721
507.668
508.119
539.765
539.348
538.59
537.543
536.274
534.863
533.401
531.979
530.691
529.626
528.868
528.493
528.566
529.136
530.234
531.871
534.033
536.682
539.752
543.144
546.723
550.309
553.673
556.531
558.552
559.396
558.882
557.13
554.463
551.223
547.703
544.145
540.739
537.629
534.92
532.687
530.972
529.792
529.141
528.99
529.287
529.969
530.958
532.168
533.509
534.884
536.202
537.373
538.316
538.968
539.282
539.235
538.831
538.099
537.09
535.873
534.532
533.157
531.841
530.679
529.762
529.174
528.987
529.264
530.05
531.368
533.22
535.582
538.403
541.602
545.063
548.631
552.103
555.224
557.688
559.145
559.306
558.129
555.857
552.837
549.391
545.787
542.241
538.921
535.953
533.425
531.397
529.9
528.94
528.503
528.553
529.034
529.879
531.01
532.342
533.783
535.24
536.622
537.841
538.818
539.491
539.814
571.104
570.867
570.447
569.884
569.233
568.561
567.935
567.429
567.115
567.06
567.33
567.98
569.056
570.591
572.599
575.071
577.976
581.26
584.835
588.586
592.363
595.982
599.226
601.86
603.644
604.369
603.933
602.405
599.978
596.89
593.378
589.663
585.936
582.354
579.042
576.092
573.566
571.498
569.901
568.763
568.053
567.725
567.721
567.978
568.426
568.991
569.601
570.186
570.682
571.036
571.21
571.184
570.961
570.566
570.042
569.444
568.839
568.298
567.893
567.697
567.779
568.202
569.018
570.273
571.992
574.18
576.821
579.872
583.264
586.896
590.637
594.319
597.743
600.682
602.898
604.158
604.291
603.276
601.249
598.434
595.07
591.391
587.605
583.886
580.377
577.184
574.387
572.034
570.149
568.736
567.774
567.228
567.048
567.176
567.547
568.091
568.735
569.408
570.042
570.572
570.948
571.132
601.892
601.853
601.799
601.762
601.781
601.901
602.17
602.637
603.349
604.351
605.684
607.384
609.477
611.979
614.884
618.172
621.796
625.688
629.748
633.851
637.841
641.539
644.747
647.268
648.927
649.588
649.194
647.783
645.477
642.445
638.881
634.982
630.933
626.896
623.002
619.357
616.037
613.09
610.544
608.406
606.662
605.287
604.245
603.497
602.995
602.693
602.542
602.494
602.504
602.534
602.555
602.552
602.526
602.499
602.5
602.571
602.757
603.106
603.667
604.488
605.612
607.08
608.924
611.167
613.818
616.865
620.276
623.994
627.936
631.99
636.016
639.846
643.291
646.153
648.241
649.397
649.517
648.588
646.69
643.972
640.618
636.826
632.79
628.685
624.657
620.827
617.285
614.093
611.291
608.896
606.907
605.306
604.062
603.139
602.495
602.084
601.858
601.769
601.768
601.813
601.866
601.897
631.918
632.094
632.439
632.97
633.71
634.683
635.909
637.411
639.21
641.325
643.771
646.562
649.703
653.19
657.005
661.11
665.449
669.943
674.485
678.947
683.173
686.993
690.23
692.719
694.324
694.956
694.578
693.214
690.945
687.896
684.227
680.114
675.73
671.232
666.758
662.419
658.299
654.461
650.944
647.773
644.954
642.482
640.346
638.531
637.019
635.789
634.819
634.088
633.572
633.25
633.104
633.126
633.316
633.687
634.257
635.048
636.083
637.385
638.974
640.87
643.092
645.654
648.564
651.825
655.428
659.344
663.528
667.911
672.403
676.885
681.215
685.229
688.753
691.614
693.659
694.772
694.888
693.998
692.152
689.455
686.05
682.107
677.804
673.308
668.766
664.304
660.019
655.985
652.253
648.854
645.804
643.104
640.745
638.714
636.994
635.565
634.407
633.497
632.813
632.332
632.033
631.898
660.941
661.348
662.121
663.263
664.775
666.656
668.902
671.504
674.455
677.745
681.363
685.296
689.53
694.04
698.792
703.735
708.805
713.914
718.954
723.793
728.284
732.267
735.585
738.098
739.699
740.322
739.944
738.579
736.286
733.162
729.341
724.978
720.233
715.256
710.184
705.13
700.187
695.426
690.901
686.651
682.703
679.074
675.781
672.835
670.248
668.028
666.184
664.721
663.64
662.939
662.615
662.663
663.085
663.884
665.064
666.627
668.569
670.885
673.566
676.604
679.985
683.699
687.727
692.052
696.642
701.455
706.434
711.503
716.562
721.492
726.153
730.391
734.045
736.965
739.025
740.137
740.255
739.374
737.528
734.794
731.289
727.159
722.563
717.658
712.589
707.48
702.436
697.537
692.844
688.403
684.245
680.392
676.858
673.656
670.794
668.284
666.132
664.346
662.93
661.885
661.208
660.894
688.692
689.345
690.572
692.36
694.689
697.531
700.852
704.615
708.78
713.308
718.158
723.293
728.673
734.254
739.984
745.803
751.636
757.39
762.955
768.203
772.993
777.18
780.623
783.205
784.835
785.463
785.073
783.673
781.31
778.062
774.044
769.39
764.247
758.758
753.054
747.25
741.444
735.716
730.132
724.748
719.61
714.763
710.248
706.109
702.385
699.12
696.352
694.114
692.434
691.331
690.817
690.893
691.561
692.815
694.642
697.02
699.921
703.309
707.144
711.386
715.991
720.918
726.124
731.565
737.192
742.946
748.76
754.547
760.207
765.62
770.649
775.152
778.982
782.01
784.13
785.27
785.396
784.505
782.621
779.806
776.157
771.8
766.877
761.533
755.908
750.123
744.286
738.483
732.787
727.253
721.933
716.868
712.097
707.66
703.596
699.944
696.744
694.032
691.842
690.198
689.12
688.617
714.882
715.792
717.491
719.952
723.131
726.972
731.414
736.386
741.818
747.639
753.779
760.172
766.754
773.458
780.218
786.961
793.601
800.042
806.173
811.87
817.002
821.435
825.046
827.732
829.418
830.061
829.648
828.188
825.715
822.299
818.036
813.046
807.461
801.414
795.032
788.43
781.71
774.962
768.263
761.686
755.301
749.177
743.385
737.998
733.09
728.735
725.003
721.958
719.654
718.132
717.418
717.525
718.449
720.177
722.678
725.907
729.807
734.312
739.352
744.851
750.736
756.935
763.377
769.992
776.711
783.459
790.157
796.712
803.018
808.958
814.401
819.215
823.269
826.448
828.663
829.854
829.993
829.076
827.125
824.191
820.355
815.729
810.437
804.615
798.392
791.889
785.213
778.459
771.706
765.027
758.488
752.154
746.091
740.364
735.045
730.204
725.912
722.237
719.24
716.974
715.478
714.777
739.206
740.377
742.559
745.706
749.751
754.614
760.2
766.411
773.143
780.294
787.766
795.463
803.295
811.173
819.014
826.73
834.228
841.407
848.154
854.35
859.872
864.598
868.419
871.244
873.009
873.676
873.233
871.687
869.07
865.44
860.882
855.504
849.423
842.765
835.651
828.197
820.51
812.687
804.821
797.001
789.321
781.877
774.768
768.1
761.978
756.507
751.791
747.922
744.981
743.03
742.114
742.251
743.438
745.649
748.838
752.935
757.856
763.505
769.779
776.572
783.778
791.293
799.019
806.86
814.723
822.52
830.156
837.532
844.538
851.058
856.969
862.145
866.472
869.846
872.189
873.451
873.606
872.651
870.607
867.515
863.45
858.506
852.798
846.446
839.576
832.303
824.739
816.982
809.123
801.248
793.443
785.796
778.398
771.346
764.739
758.682
753.274
748.616
744.797
741.896
739.974
739.071
761.351
762.782
765.443
769.272
774.179
780.057
786.786
794.234
802.271
810.763
819.582
828.606
837.716
846.804
855.766
864.501
872.907
880.874
888.291
895.04
901.004
906.074
910.149
913.148
915.014
915.713
915.232
913.578
910.781
906.892
901.988
896.165
889.532
882.206
874.306
865.949
857.245
848.305
839.233
830.14
821.14
812.357
803.921
795.966
788.628
782.044
776.347
771.657
768.082
765.706
764.588
764.755
766.203
768.896
772.768
777.73
783.669
790.461
797.972
806.065
814.604
823.455
832.491
841.59
850.638
859.527
868.151
876.401
884.163
891.321
897.755
903.349
907.998
911.61
914.115
915.466
915.641
914.637
912.472
909.187
904.845
899.533
893.353
886.42
878.849
870.756
862.255
853.45
844.446
835.342
826.243
817.261
808.515
800.129
792.233
784.959
778.44
772.803
768.167
764.635
762.289
761.185
781.001
782.682
785.805
790.29
796.028
802.886
810.718
819.368
828.673
838.476
848.62
858.956
869.343
879.646
889.747
899.528
908.876
917.674
925.806
933.158
939.617
945.078
949.45
952.657
954.646
955.384
954.858
953.075
950.064
945.874
940.574
934.253
927.016
918.973
910.242
900.943
891.195
881.117
870.831
860.464
850.157
840.057
830.322
821.113
812.595
804.934
798.289
792.809
788.623
785.837
784.524
784.72
786.419
789.576
794.108
799.903
806.826
814.724
823.436
832.798
842.643
852.811
863.148
873.507
883.751
893.755
903.399
912.562
921.126
928.971
935.981
942.046
947.066
950.957
953.653
955.111
955.308
954.244
951.935
948.419
943.756
938.027
931.325
923.759
915.442
906.49
897.018
887.143
876.978
866.64
856.253
845.954
835.884
826.196
817.045
808.594
801
794.42
788.997
784.857
782.103
780.806
797.85
799.763
803.313
808.405
814.912
822.679
831.536
841.302
851.794
862.828
874.223
885.808
897.42
908.903
920.12
930.939
941.233
950.878
959.752
967.74
974.728
980.618
985.319
988.76
990.889
991.672
991.096
989.169
985.919
981.393
975.661
968.806
960.93
952.143
942.563
932.316
921.528
910.332
898.867
887.276
875.723
864.378
853.421
843.04
833.423
824.761
817.237
811.024
806.273
803.106
801.613
801.836
803.768
807.354
812.497
819.065
826.9
835.827
845.66
856.209
867.284
878.7
890.278
901.852
913.261
924.365
935.025
945.112
954.498
963.06
970.682
977.254
982.681
986.882
989.792
991.37
991.593
990.459
987.986
984.211
979.194
973.01
965.751
957.522
948.436
938.61
928.167
917.232
905.932
894.401
882.782
871.23
859.912
849.002
838.682
829.134
820.544
813.089
806.938
802.236
799.104
797.628
811.611
813.727
817.653
823.279
830.46
839.026
848.784
859.536
871.077
883.203
895.716
908.426
921.151
933.719
945.975
957.771
968.967
979.431
989.032
997.652
1005.18
1011.5
1016.55
1020.23
1022.51
1023.34
1022.71
1020.63
1017.13
1012.26
1006.09
998.694
990.182
980.664
970.262
959.109
947.341
935.104
922.553
909.849
897.172
884.714
872.671
861.252
850.665
841.122
832.825
825.967
820.718
817.218
815.566
815.812
817.949
821.914
827.594
834.841
843.479
853.313
864.135
875.735
887.905
900.439
913.14
925.821
938.307
950.437
962.06
973.032
983.217
992.485
1000.72
1007.81
1013.65
1018.17
1021.31
1023.01
1023.26
1022.05
1019.4
1015.36
1009.97
1003.33
995.508
986.622
976.784
966.117
954.751
942.822
930.47
917.845
905.107
892.431
880
868.007
856.652
846.139
836.672
828.45
821.657
816.462
812.998
811.365
822.014
824.298
828.532
834.595
842.329
851.547
862.042
873.598
885.996
899.017
912.452
926.094
939.751
953.238
966.385
979.029
991.018
1002.21
1012.46
1021.66
1029.68
1036.42
1041.78
1045.7
1048.11
1048.99
1048.32
1046.1
1042.36
1037.17
1030.58
1022.69
1013.59
1003.42
992.284
980.334
967.714
954.584
941.11
927.473
913.864
900.487
887.554
875.285
863.906
853.641
844.712
837.326
831.669
827.894
826.111
826.377
828.683
832.957
839.078
846.882
856.177
866.751
878.382
890.844
903.913
917.37
931.006
944.619
958.02
971.035
983.496
995.249
1006.15
1016.06
1024.85
1032.41
1038.64
1043.47
1046.81
1048.63
1048.91
1047.63
1044.82
1040.52
1034.79
1027.71
1019.37
1009.89
999.379
987.967
975.793
963.004
949.752
936.204
922.533
908.925
895.578
882.698
870.499
859.198
849.015
840.164
832.848
827.247
823.512
821.749
828.842
831.249
835.708
842.09
850.226
859.916
870.943
883.079
896.094
909.76
923.859
938.179
952.519
966.689
980.504
993.792
1006.39
1018.14
1028.91
1038.56
1046.97
1054.04
1059.66
1063.77
1066.3
1067.21
1066.5
1064.16
1060.24
1054.78
1047.87
1039.58
1030.03
1019.34
1007.64
995.074
981.807
968.004
953.845
939.523
925.236
911.195
897.619
884.738
872.787
862.001
852.613
844.842
838.887
834.91
833.032
833.312
835.742
840.244
846.686
854.895
864.666
875.776
887.991
901.074
914.792
928.917
943.233
957.532
971.617
985.298
998.398
1010.75
1022.2
1032.61
1041.85
1049.79
1056.34
1061.4
1064.92
1066.83
1067.13
1065.79
1062.84
1058.34
1052.33
1044.91
1036.16
1026.21
1015.17
1003.18
990.393
976.952
963.027
948.795
934.441
920.159
906.152
892.633
879.825
867.956
857.255
847.949
840.252
834.355
830.42
828.562
831.811
834.297
838.899
845.481
853.864
863.839
875.179
887.649
901.014
915.039
929.503
944.192
958.904
973.45
987.637
1001.29
1014.23
1026.3
1037.37
1047.29
1055.94
1063.2
1068.99
1073.21
1075.81
1076.76
1076.02
1073.61
1069.57
1063.95
1056.84
1048.31
1038.49
1027.5
1015.47
1002.56
988.931
974.752
960.213
945.514
930.855
916.446
902.51
889.278
876.993
865.897
856.23
848.221
842.077
837.971
836.03
836.32
838.83
843.477
850.121
858.58
868.64
880.067
892.62
906.057
920.137
934.632
949.321
963.998
978.463
992.518
1005.98
1018.68
1030.45
1041.15
1050.65
1058.82
1065.55
1070.77
1074.39
1076.36
1076.67
1075.29
1072.26
1067.62
1061.45
1053.81
1044.82
1034.59
1023.25
1010.93
997.794
983.989
969.691
955.084
940.358
925.708
911.337
897.461
884.307
872.108
861.101
851.519
843.586
837.504
833.441
831.522
)
;

boundaryField
{
    top
    {
        type            calculated;
        value           nonuniform List<scalar> 
102
(
832.083
834.601
839.262
845.924
854.404
864.49
875.951
888.548
902.043
916.203
930.801
945.625
960.473
975.16
989.488
1003.27
1016.34
1028.54
1039.72
1049.74
1058.48
1065.82
1071.67
1075.94
1078.57
1079.52
1078.77
1076.34
1072.26
1066.58
1059.38
1050.77
1040.85
1029.74
1017.59
1004.55
990.78
976.458
961.776
946.939
932.143
917.597
903.526
890.162
877.749
866.533
856.757
848.653
842.433
838.274
836.308
836.601
839.144
843.851
850.577
859.134
869.306
880.855
893.538
907.107
921.324
935.955
950.782
965.598
980.207
994.403
1008
1020.83
1032.72
1043.53
1053.13
1061.38
1068.19
1073.46
1077.13
1079.12
1079.43
1078.04
1074.98
1070.29
1064.05
1056.33
1047.25
1036.92
1025.46
1013.02
999.746
985.804
971.365
956.618
941.756
926.971
912.465
898.457
885.172
872.847
861.722
852.033
844.006
837.849
833.735
831.79
)
;
    }
    bottom
    {
        type            calculated;
        value           nonuniform List<scalar> 
102
(
-38.866
-41.9287
-47.6698
-56.044
-67.0048
-80.5157
-96.5514
-115.084
-136.053
-159.333
-184.706
-211.846
-240.294
-269.436
-298.466
-326.426
-352.334
-375.289
-394.525
-409.66
-420.858
-428.576
-433.521
-436.448
-437.974
-438.48
-438.109
-436.773
-434.147
-429.667
-422.595
-412.186
-397.914
-379.522
-357.263
-331.845
-304.171
-275.246
-246.075
-217.521
-190.25
-164.763
-141.418
-120.454
-102.012
-86.1617
-72.9353
-62.3569
-54.4589
-49.2813
-46.8613
-47.2219
-50.359
-56.245
-64.8408
-76.1078
-90.0162
-106.542
-125.647
-147.245
-171.173
-197.163
-224.821
-253.606
-282.804
-311.504
-338.685
-363.365
-384.677
-402
-415.234
-424.714
-431.039
-434.972
-437.219
-438.283
-438.427
-437.68
-435.836
-432.452
-426.861
-418.301
-406.115
-389.911
-369.65
-345.847
-319.316
-290.982
-261.834
-232.805
-204.643
-177.922
-153.066
-130.37
-110.025
-92.1376
-76.7563
-63.9059
-53.6139
-45.9202
-40.8721
-38.5123
)
;
    }
    frontAndBack
    {
        type            empty;
    }
    left_cyc
    {
        type            cyclic;
    }
    right_cyc
    {
        type            cyclic;
    }
}


// ************************************************************************* //
