/*--------------------------------*- C++ -*----------------------------------*\
| =========                 |                                                 |
| \\      /  F ield         | OpenFOAM: The Open Source CFD Toolbox           |
|  \\    /   O peration     | Version:  2.3.0                                 |
|   \\  /    A nd           | Web:      www.OpenFOAM.org                      |
|    \\/     M anipulation  |                                                 |
\*---------------------------------------------------------------------------*/
FoamFile
{
    version     2.0;
    format      ascii;
    class       volScalarField;
    location    "9000";
    object      p_rgh;
}
// * * * * * * * * * * * * * * * * * * * * * * * * * * * * * * * * * * * * * //

dimensions      [0 2 -2 0 0 0 0];

internalField   nonuniform List<scalar> 
3060
(
-38.8499
-42.04
-48.011
-56.7001
-68.0364
-81.9569
-98.4152
-117.372
-138.766
-162.477
-188.296
-215.911
-244.877
-274.595
-304.25
-332.829
-359.27
-382.652
-402.216
-417.499
-428.663
-436.2
-440.884
-443.552
-444.887
-445.31
-444.976
-443.783
-441.37
-437.106
-430.166
-419.738
-405.262
-386.474
-363.717
-337.716
-309.379
-279.791
-250.02
-220.938
-193.198
-167.28
-143.526
-122.162
-103.324
-87.0787
-73.4702
-62.5443
-54.3604
-48.9832
-46.4675
-46.8438
-50.1068
-56.2188
-65.1212
-76.7493
-91.0467
-107.97
-127.474
-149.475
-173.818
-200.249
-228.39
-257.721
-287.54
-316.909
-344.737
-369.973
-391.76
-409.432
-422.817
-432.268
-438.429
-442.138
-444.183
-445.129
-445.267
-444.631
-443
-439.882
-434.537
-426.121
-413.922
-397.514
-376.892
-352.635
-325.54
-296.576
-266.813
-237.223
-208.557
-181.372
-156.076
-132.953
-112.186
-93.8766
-78.0767
-64.8254
-54.1733
-46.1869
-40.9366
-38.4803
-66.8737
-69.4957
-74.4361
-81.704
-91.3203
-103.312
-117.694
-134.445
-153.481
-174.637
-197.663
-222.203
-247.754
-273.642
-299.154
-323.916
-347.822
-370.138
-389.439
-404.633
-415.908
-423.864
-429.209
-432.584
-434.464
-435.122
-434.649
-432.986
-429.901
-424.963
-417.557
-406.974
-392.587
-374.035
-352.174
-328.473
-303.851
-278.487
-252.681
-227.136
-202.568
-179.518
-158.375
-139.407
-122.791
-108.618
-96.9117
-87.6536
-80.8126
-76.3631
-74.2935
-74.6026
-77.29
-82.3589
-89.825
-99.7163
-112.063
-126.875
-144.114
-163.669
-185.338
-208.825
-233.708
-259.396
-285.147
-310.319
-334.737
-358.085
-379.228
-396.72
-410.063
-419.751
-426.45
-430.853
-433.535
-434.874
-435.052
-434.091
-431.856
-428.021
-422.062
-413.309
-401.068
-384.773
-364.543
-341.691
-317.53
-292.57
-266.899
-241.027
-215.681
-191.493
-168.925
-148.301
-129.849
-113.71
-99.9514
-88.5823
-79.5814
-72.9226
-68.5876
-66.5707
-81.2258
-84.0581
-89.3588
-97.0737
-107.12
-119.372
-133.652
-149.733
-167.366
-186.313
-206.372
-227.382
-249.224
-271.84
-295.172
-318.685
-341.038
-360.882
-378.102
-393.069
-405.181
-413.723
-419.424
-423.129
-425.294
-426.09
-425.541
-423.634
-420.238
-414.978
-407.086
-395.702
-381.222
-364.477
-345.231
-323.365
-300.051
-276.757
-254.175
-232.392
-211.457
-191.489
-172.659
-155.18
-139.301
-125.279
-113.348
-103.691
-96.4344
-91.6612
-89.4254
-89.7603
-92.6592
-98.0836
-105.973
-116.236
-128.73
-143.258
-159.578
-177.432
-196.576
-216.81
-237.973
-259.966
-282.744
-306.146
-329.249
-350.498
-369.043
-385.213
-399.005
-409.436
-416.554
-421.271
-424.256
-425.805
-426.003
-424.857
-422.316
-418.151
-411.801
-402.362
-389.39
-373.83
-355.975
-335.409
-312.591
-289.029
-265.867
-243.449
-221.816
-201.041
-181.254
-162.629
-145.376
-129.742
-115.971
-104.279
-94.8308
-87.7395
-83.0787
-80.8972
-61.4074
-64.3863
-69.9386
-77.9778
-88.3832
-100.993
-115.599
-131.956
-149.801
-168.885
-189.001
-209.999
-231.788
-254.296
-277.331
-300.199
-321.832
-341.756
-360.158
-376.051
-388.8
-398.995
-406.037
-410.548
-413.242
-414.276
-413.592
-411.235
-407.132
-400.723
-391.164
-378.998
-363.844
-345.912
-326.377
-305.155
-282.525
-259.556
-237.072
-215.323
-194.391
-174.37
-155.414
-137.736
-121.593
-107.259
-94.9855
-84.9873
-77.4291
-72.4323
-70.0827
-70.4354
-73.4791
-79.1507
-87.356
-97.9631
-110.794
-125.624
-142.192
-160.226
-179.477
-199.747
-220.898
-242.844
-265.488
-288.477
-310.836
-331.601
-350.753
-368.096
-382.403
-393.928
-402.663
-408.379
-411.999
-413.926
-414.162
-412.691
-409.556
-404.484
-396.61
-385.726
-372.221
-355.534
-336.708
-316.355
-294.304
-271.284
-248.358
-226.03
-204.441
-183.662
-163.798
-145.015
-127.533
-111.607
-97.4993
-85.4467
-75.645
-68.2448
-63.3571
-61.0607
-30.8479
-33.847
-39.4247
-47.4836
-57.8974
-70.5102
-85.1385
-101.577
-119.612
-139.031
-159.637
-181.243
-203.658
-226.653
-249.899
-272.897
-295.121
-316.529
-337.113
-355.378
-370.101
-381.485
-389.77
-395.513
-399.052
-400.455
-399.557
-396.481
-391.262
-383.596
-372.986
-359.082
-341.613
-321.38
-300.123
-278.081
-255.214
-232.015
-209.032
-186.628
-165.051
-144.505
-125.186
-107.301
-91.0687
-76.7115
-64.4396
-54.4404
-46.8711
-41.8575
-39.495
-39.8501
-42.9087
-48.5964
-56.8102
-67.4162
-80.249
-95.1143
-111.797
-130.076
-149.734
-170.567
-192.379
-214.961
-238.042
-261.215
-283.899
-305.714
-326.785
-346.492
-363.023
-376.058
-385.835
-392.835
-397.473
-400.001
-400.298
-398.322
-394.236
-387.862
-378.834
-366.591
-350.946
-331.879
-311.012
-289.416
-266.96
-243.841
-220.616
-197.744
-175.519
-154.156
-133.841
-114.763
-97.1236
-81.1366
-67.0151
-54.9595
-45.1465
-37.7243
-32.8114
-30.4981
1.25364
-1.8588
-7.63199
-15.9492
-26.6648
-39.6071
-54.5828
-71.3852
-89.8044
-109.638
-130.695
-152.798
-175.768
-199.398
-223.41
-247.464
-271.037
-293.661
-314.893
-334.23
-351.015
-363.787
-372.731
-378.787
-382.86
-384.643
-383.521
-379.918
-374.417
-366.269
-354.514
-338.563
-319.663
-298.765
-276.358
-252.927
-228.931
-204.913
-181.256
-158.264
-136.161
-115.14
-95.3891
-77.1074
-60.5056
-45.8007
-33.2047
-22.9143
-15.1026
-9.91417
-7.46307
-7.83209
-11.0032
-16.8851
-25.3557
-36.2627
-49.4262
-64.6448
-81.704
-100.388
-120.488
-141.809
-164.163
-187.355
-211.144
-235.202
-259.099
-282.302
-304.37
-324.78
-343.072
-357.976
-368.684
-376.052
-381.037
-384.077
-384.439
-381.976
-377.425
-370.704
-360.864
-346.984
-329.385
-309.526
-287.88
-264.972
-241.23
-217.15
-193.19
-169.704
-146.94
-125.091
-104.335
-84.852
-66.8344
-50.4882
-36.0236
-23.6446
-13.5394
-5.87339
-0.784719
1.61748
34.1859
30.9214
24.8816
16.2058
5.06263
-8.35483
-23.8377
-41.1706
-60.1417
-80.5515
-102.217
-124.971
-148.65
-173.073
-198.017
-223.259
-248.355
-272.823
-296.065
-317.237
-335.311
-348.927
-357.7
-363.104
-366.473
-368.083
-367.081
-364.145
-359.383
-351.631
-339.179
-321.962
-301.315
-278.39
-254.073
-229.029
-203.763
-178.747
-154.242
-130.494
-107.698
-86.0327
-65.6757
-46.8196
-29.6725
-14.4535
-1.3836
9.32474
17.4775
22.9073
25.4786
25.091
21.7664
15.6152
6.78149
-4.55975
-18.2089
-33.9502
-51.5623
-70.8282
-91.5438
-113.521
-136.584
-160.553
-185.225
-210.341
-235.591
-260.494
-284.523
-306.941
-326.83
-342.91
-354.034
-360.838
-365.047
-367.571
-367.885
-365.738
-361.922
-355.809
-345.86
-330.977
-311.967
-290.171
-266.538
-241.861
-216.688
-191.496
-166.646
-142.393
-118.937
-96.4506
-75.0953
-55.0423
-36.4787
-19.6078
-4.64329
8.2002
18.717
26.7199
32.0473
34.5683
65.818
62.3418
55.9273
46.7437
34.9937
20.9047
4.71583
-13.3338
-33.0176
-54.131
-76.4963
-99.9615
-124.392
-149.652
-175.586
-202.036
-228.594
-254.761
-279.896
-303.121
-323.297
-338.715
-347.774
-351.878
-353.745
-354.491
-354.101
-352.647
-349.367
-341.734
-327.674
-308.342
-285.614
-260.741
-234.662
-208.08
-181.53
-155.455
-130.051
-105.494
-81.9368
-59.5272
-38.4287
-18.8297
-0.944534
14.9919
28.7338
40.0377
48.6753
54.4457
57.1848
56.7714
53.2319
46.6998
37.3493
25.3894
11.0538
-5.41239
-23.765
-43.7736
-65.2306
-87.9547
-111.788
-136.584
-162.19
-188.42
-215.02
-241.524
-267.364
-291.776
-313.761
-331.926
-344.298
-350.502
-353.136
-354.298
-354.391
-353.375
-351.107
-345.998
-335.272
-318.414
-297.307
-273.49
-248.011
-221.688
-195.112
-168.755
-142.986
-117.929
-93.7375
-70.5455
-48.4911
-27.7324
-8.45418
9.13236
24.7964
38.2977
49.3988
57.8779
63.54
66.226
95.4312
91.67
84.7472
74.872
62.2947
47.2927
30.1529
11.1545
-9.44678
-31.4306
-54.6187
-78.8754
-104.1
-130.211
-157.127
-184.731
-212.651
-240.397
-267.302
-292.46
-314.7
-332.436
-343.647
-348.134
-349.075
-349.196
-349.256
-348.803
-345.557
-336.038
-319.582
-298.138
-273.439
-246.742
-219.02
-191
-163.219
-136.088
-109.764
-84.3483
-59.94
-36.6535
-14.6375
5.9177
24.7799
41.6827
56.3386
68.455
77.7533
83.9858
86.9511
86.5033
82.6735
75.6237
65.5685
52.765
37.4973
20.0583
0.731636
-20.2243
-42.5878
-66.1798
-90.8617
-116.526
-143.076
-170.406
-198.291
-226.29
-253.823
-280.102
-304.089
-324.426
-339.229
-346.871
-349.049
-349.242
-349.169
-348.972
-347.454
-341.433
-328.357
-309.262
-286.13
-260.415
-233.213
-205.363
-177.478
-150.011
-123.307
-97.4237
-72.4446
-48.456
-25.5674
-3.92543
16.2804
34.8195
51.4288
65.8253
77.7231
86.8502
92.9657
95.8733
122.924
118.788
111.194
100.403
86.7276
70.5155
52.1206
31.8814
10.0996
-12.9756
-37.157
-62.3211
-88.4014
-115.373
-143.233
-171.885
-201.01
-230.144
-258.634
-285.575
-309.797
-329.831
-343.919
-351.065
-353.198
-353.545
-353.496
-352.155
-346.52
-334.022
-315.146
-291.662
-265.125
-236.782
-207.602
-178.304
-149.399
-121.248
-93.9887
-67.646
-42.2621
-17.919
5.24506
27.0278
47.1652
65.3418
81.2077
94.4012
104.574
111.416
114.678
114.185
109.974
102.241
91.2522
77.3303
60.8296
42.111
21.5173
-0.647758
-24.1357
-48.7611
-74.4013
-100.987
-128.481
-156.858
-185.907
-215.231
-244.272
-272.249
-298.122
-320.569
-337.948
-348.588
-352.764
-353.55
-353.501
-352.92
-349.815
-340.909
-325.106
-303.821
-278.761
-251.313
-222.577
-193.387
-164.342
-135.862
-108.24
-81.503
-55.659
-30.7431
-6.83608
15.9221
37.3276
57.1163
74.975
90.559
103.514
113.499
120.212
123.41
148.643
144.03
135.577
123.609
108.521
90.7503
70.7399
48.9089
25.6236
1.17715
-24.2228
-50.4577
-77.491
-105.352
-134.109
-163.686
-193.823
-224.108
-253.917
-282.38
-308.359
-330.483
-347.244
-357.58
-362.243
-363.563
-362.901
-359.342
-350.522
-335.182
-314.104
-288.792
-260.671
-230.942
-200.544
-170.161
-140.257
-111.133
-82.9071
-55.5338
-29.0033
-3.36938
21.2314
44.5726
66.3418
86.1543
103.576
118.154
129.448
137.069
140.708
140.158
135.461
126.854
114.667
99.3081
81.2221
60.8611
38.6488
14.953
-9.93499
-35.8123
-62.5648
-90.1565
-118.606
-147.964
-178.032
-208.473
-238.773
-268.185
-295.701
-320.055
-339.778
-353.431
-360.671
-363.269
-363.421
-361.443
-355.502
-343.469
-325.171
-301.899
-275.148
-246.234
-216.224
-185.924
-155.896
-126.509
-97.9918
-70.3523
-43.5281
-17.5047
7.66125
31.8281
54.7653
76.1588
95.6263
112.74
127.054
138.14
145.618
149.186
173.159
167.958
158.443
145.015
128.17
108.457
86.4319
62.6144
37.4555
11.3089
-15.5841
-43.0989
-71.2211
-100.025
-129.641
-160.014
-190.96
-222.126
-252.938
-282.568
-309.931
-333.737
-352.63
-365.574
-372.631
-375.034
-373.664
-367.905
-356.416
-338.81
-315.953
-289.187
-259.836
-229.043
-197.7
-166.44
-135.668
-105.612
-76.3635
-47.8195
-19.9265
7.28044
33.6551
58.9319
82.7321
104.581
123.938
140.233
152.916
161.499
165.602
164.982
159.688
149.999
136.329
119.184
99.126
76.7202
52.4939
26.8992
0.286844
-27.1086
-55.1712
-83.8917
-113.342
-143.603
-174.533
-205.864
-237.137
-267.652
-296.449
-322.33
-343.943
-360.002
-369.902
-374.386
-374.777
-371.295
-362.794
-348.247
-327.95
-303.085
-275.013
-244.979
-214.002
-182.845
-152.019
-121.829
-92.4309
-63.8136
-35.8538
-8.49586
18.2187
44.1353
68.9824
92.3788
113.853
132.871
148.874
161.325
169.748
173.771
197.1
191.199
180.414
165.238
146.286
124.237
99.7826
73.5651
46.1382
17.9327
-10.7619
-39.8016
-69.182
-99.0124
-129.457
-160.509
-192.062
-223.832
-255.301
-285.69
-313.974
-338.936
-359.308
-374.054
-382.813
-386.025
-384.109
-376.754
-363.409
-344.224
-320.13
-292.377
-262.21
-230.706
-198.701
-166.773
-135.256
-104.3
-73.9456
-44.0586
-14.5535
14.5415
43.0557
70.6684
96.9164
121.215
142.895
161.25
175.594
185.324
189.978
189.276
183.27
172.291
156.844
137.559
115.132
90.2648
63.6101
35.7234
7.03264
-22.1803
-51.7834
-81.7823
-112.289
-143.397
-175.043
-207.035
-238.977
-270.225
-299.876
-326.801
-349.732
-367.462
-379.224
-385.1
-385.682
-381.087
-370.787
-354.505
-332.821
-306.869
-277.924
-247.162
-215.547
-183.791
-152.347
-121.447
-91.1651
-61.4674
-32.1832
-3.22847
25.3577
53.3936
80.5516
106.366
130.257
151.564
169.595
183.679
193.229
197.794
221.053
214.345
202.095
184.896
163.501
138.742
111.461
82.4415
52.3568
21.7291
-9.08963
-39.9186
-70.7492
-101.713
-132.973
-164.605
-196.58
-228.69
-260.469
-291.194
-319.905
-345.459
-366.657
-382.452
-392.224
-395.927
-393.662
-385.333
-370.89
-350.796
-326.038
-297.8
-267.251
-235.393
-202.996
-170.59
-138.432
-106.593
-75.029
-43.6071
-12.2229
19.087
50.1094
80.4522
109.552
136.697
161.07
181.808
198.072
209.127
214.415
213.618
206.792
194.324
176.823
155.059
129.884
102.156
72.6697
42.102
10.9732
-20.3698
-51.7617
-83.2064
-114.836
-146.759
-178.996
-211.436
-243.757
-275.359
-305.413
-332.861
-356.515
-375.219
-388.088
-394.822
-395.533
-390.263
-378.899
-361.615
-339.17
-312.676
-283.334
-252.25
-220.32
-188.209
-156.308
-124.77
-93.5869
-62.6838
-31.8641
-1.03163
29.7607
60.2875
90.1509
118.786
145.488
169.45
189.828
205.801
216.653
221.841
245.517
237.907
224.016
204.556
180.428
152.632
122.177
90.0008
56.9065
23.5189
-9.7383
-42.6211
-75.0996
-107.305
-139.4
-171.543
-203.785
-236.012
-267.785
-298.425
-327.073
-352.672
-374.098
-390.317
-400.581
-404.535
-402.069
-393.234
-378.294
-357.897
-333.027
-304.8
-274.297
-242.423
-209.857
-177.134
-144.412
-111.674
-78.7963
-45.6432
-12.1156
21.7244
55.5974
89.0249
121.333
151.669
179.057
202.459
220.87
233.406
239.403
238.501
230.759
216.624
196.827
172.291
144.039
113.1
80.4256
46.8243
12.9199
-20.8568
-54.2862
-87.3521
-120.185
-152.913
-185.642
-218.35
-250.805
-282.395
-312.402
-339.863
-363.675
-382.737
-396.133
-403.323
-404.116
-398.502
-386.638
-368.976
-346.356
-319.853
-290.589
-259.581
-227.619
-195.363
-163.138
-131.012
-98.8925
-66.6432
-34.0683
-1.07754
32.243
65.6034
98.5262
130.337
160.192
187.128
210.131
228.217
240.525
246.41
270.89
262.298
246.629
224.721
197.641
166.565
132.675
97.07
60.69
24.2669
-11.7152
-46.8942
-81.2109
-114.774
-147.747
-180.361
-212.735
-244.801
-276.232
-306.448
-334.659
-359.897
-381.114
-397.312
-407.682
-411.707
-409.153
-400.158
-385.158
-364.888
-340.31
-312.466
-282.342
-250.762
-218.336
-185.448
-152.209
-118.537
-84.2336
-49.1621
-13.2532
23.3984
60.4038
97.1921
132.978
166.766
197.408
223.69
244.424
258.567
265.337
264.319
255.58
239.638
217.357
189.827
158.253
123.84
87.7049
50.7931
13.8267
-22.6548
-58.3492
-93.2083
-127.333
-160.881
-194.029
-226.819
-259.076
-290.345
-319.964
-347.058
-370.614
-389.599
-403.095
-410.443
-411.282
-405.571
-393.622
-376.028
-353.663
-327.549
-298.727
-268.125
-236.477
-204.308
-171.871
-139.178
-106.074
-72.3255
-37.7855
-2.37803
33.755
70.2255
106.483
141.738
175.003
205.151
230.991
251.364
265.254
271.898
297.482
287.843
270.299
245.833
215.68
181.196
143.736
104.555
64.7303
25.1152
-13.6874
-51.301
-87.5935
-122.615
-156.536
-189.641
-222.105
-253.922
-284.852
-314.416
-341.915
-366.482
-387.16
-403.006
-413.207
-417.176
-414.612
-405.701
-390.959
-371.141
-347.16
-319.971
-290.456
-259.34
-227.137
-194.129
-160.36
-125.689
-89.8628
-52.7378
-14.3041
25.2618
65.5318
105.832
145.241
182.614
216.639
245.919
269.086
284.928
292.525
291.381
281.579
263.734
238.856
208.21
173.184
135.161
95.418
55.0452
14.9002
-24.404
-62.5084
-99.2902
-134.794
-169.213
-202.779
-235.592
-267.551
-298.31
-327.298
-353.743
-376.732
-395.313
-408.602
-415.899
-416.76
-411.126
-399.388
-382.198
-360.413
-334.991
-306.874
-276.893
-245.692
-213.69
-181.065
-147.768
-113.593
-78.2423
-41.5987
-3.65066
35.4091
75.1474
114.896
153.74
190.549
224.033
252.829
275.598
291.158
298.613
325.551
314.846
295.419
268.409
235.222
197.38
156.396
113.666
70.3957
27.5464
-14.1803
-54.3385
-92.7204
-129.303
-164.269
-197.938
-230.527
-262.085
-292.452
-321.244
-347.867
-371.564
-391.48
-406.752
-416.602
-420.431
-417.906
-409.24
-394.965
-375.815
-352.628
-326.257
-297.47
-266.885
-234.915
-201.755
-167.386
-131.623
-94.1758
-54.89
-13.8314
28.7405
72.3182
116.127
159.127
200.038
237.396
269.641
295.231
312.783
321.226
319.952
309.067
289.312
261.854
228.132
189.705
148.117
104.791
60.9506
17.5671
-24.6541
-65.2732
-104.086
-141.066
-176.442
-210.485
-243.343
-274.982
-305.149
-333.375
-358.997
-381.217
-399.177
-412.055
-419.165
-420.033
-414.591
-403.263
-386.701
-365.715
-341.174
-313.917
-284.664
-253.955
-222.119
-189.259
-155.277
-119.924
-82.8691
-44.0104
-3.41163
38.6615
81.6989
124.931
167.328
207.632
244.406
276.124
301.28
318.524
326.812
355.326
343.604
322.4
293.007
256.986
216.009
171.723
125.643
79.0794
33.0915
-11.5284
-54.2501
-94.779
-133.006
-169.126
-203.47
-236.28
-267.65
-297.486
-325.494
-351.189
-373.928
-392.971
-407.548
-416.944
-420.583
-418.125
-409.789
-396.096
-377.721
-355.413
-329.91
-301.864
-271.779
-239.972
-206.564
-171.488
-134.528
-95.3824
-53.8861
-10.1943
35.3416
82.1232
129.28
175.667
219.892
260.362
295.378
323.241
342.409
351.66
350.261
338.346
316.79
286.915
250.319
208.714
163.782
117.069
69.9082
23.3736
-21.7363
-64.8909
-105.796
-144.335
-180.775
-215.402
-248.395
-279.774
-309.369
-336.809
-361.549
-382.907
-400.134
-412.493
-419.341
-420.209
-415.026
-404.218
-388.406
-368.325
-344.745
-318.39
-289.864
-259.605
-227.856
-194.659
-159.877
-123.24
-84.4048
-43.284
-0.0286593
45.0093
91.2338
137.783
183.528
227.102
266.946
301.394
328.791
347.628
356.711
386.973
374.356
351.604
320.151
281.689
238.009
190.858
141.839
92.3413
43.5012
-3.80948
-48.9755
-91.6101
-131.508
-168.868
-204.009
-237.176
-268.487
-297.905
-325.215
-350.035
-371.837
-389.995
-403.845
-412.751
-416.18
-413.797
-405.82
-392.734
-375.143
-353.693
-329.006
-301.614
-271.916
-240.143
-206.354
-170.45
-132.213
-91.3497
-47.6947
-1.50178
46.7814
96.4673
146.601
195.956
243.054
286.21
323.614
353.446
374.025
383.988
382.478
369.657
346.532
314.568
275.496
231.147
183.309
133.618
83.4917
34.0851
-13.7179
-59.2966
-102.261
-142.398
-179.997
-215.332
-248.594
-279.841
-308.969
-335.703
-359.604
-380.113
-396.594
-408.404
-414.966
-415.834
-410.935
-400.684
-385.648
-366.477
-343.83
-318.314
-290.422
-260.495
-228.699
-195.031
-159.333
-121.337
-80.7135
-37.3927
8.37764
56.155
105.26
154.75
203.423
249.828
292.317
329.119
358.455
378.683
388.468
420.604
407.291
383.356
350.345
310.05
264.336
215.011
163.725
111.909
60.7499
11.1791
-36.1137
-80.6529
-122.134
-160.746
-196.766
-230.417
-261.824
-290.985
-317.75
-341.827
-362.796
-380.143
-393.309
-401.743
-404.965
-402.65
-395.011
-382.491
-365.61
-344.914
-320.909
-294.02
-264.548
-232.655
-198.359
-161.551
-122.031
-79.5482
-33.9493
14.4104
64.9923
117.032
169.512
221.154
270.432
315.609
354.811
386.135
407.797
418.317
416.719
403.193
378.869
345.325
304.39
257.974
207.925
155.928
103.449
51.6975
1.62333
-46.0728
-90.9088
-132.58
-171.368
-207.505
-241.172
-272.444
-301.266
-327.441
-350.631
-370.386
-386.185
-397.483
-403.774
-404.646
-400.026
-390.31
-376
-357.656
-335.829
-311.014
-283.6
-253.843
-221.852
-187.594
-150.914
-111.57
-69.2745
-23.9856
23.9518
74.0094
125.437
177.236
228.156
276.702
321.178
359.751
390.557
411.853
422.187
456.287
442.558
417.946
384.072
342.781
295.967
245.444
192.862
139.653
87.0152
35.9112
-12.9176
-58.9218
-101.707
-141.427
-178.292
-212.476
-244.087
-273.137
-299.523
-323.023
-343.31
-359.969
-372.541
-380.557
-383.589
-381.325
-373.975
-361.933
-345.644
-325.553
-302.067
-275.515
-246.124
-214.005
-179.156
-141.486
-100.838
-57.0288
-9.94389
39.9707
92.1021
145.634
199.518
252.465
302.945
349.221
389.406
421.563
443.851
454.706
453.054
439.109
414.098
379.678
337.729
290.188
238.91
185.584
131.677
78.4178
26.791
-22.4424
-68.7158
-111.689
-151.548
-188.474
-222.61
-254.026
-282.695
-308.477
-331.116
-350.26
-365.488
-376.35
-382.412
-383.295
-378.928
-369.682
-356
-338.352
-317.19
-292.908
-265.809
-236.083
-203.802
-168.926
-131.325
-90.8093
-47.1632
-0.386073
49.0904
100.67
153.554
206.721
258.911
308.63
354.181
393.717
425.344
447.258
457.924
494.047
480.267
455.625
421.779
380.57
333.862
283.423
230.849
177.523
124.612
73.0691
23.6523
-23.0442
-66.5584
-106.984
-144.435
-179.016
-210.793
-239.77
-265.867
-288.911
-308.643
-324.734
-336.806
-344.464
-347.329
-345.102
-337.986
-326.336
-310.524
-290.915
-267.832
-241.53
-212.185
-179.882
-144.625
-106.361
-65.0019
-20.4609
27.3137
77.8094
130.371
184.166
238.16
291.097
341.498
387.679
427.798
459.945
482.272
493.177
491.514
477.517
452.478
418.083
376.211
328.766
277.556
224.214
170.162
116.6
64.5058
14.6653
-32.3053
-76.0295
-116.585
-154.065
-188.555
-220.095
-248.663
-274.149
-296.357
-315.012
-329.777
-340.283
-346.159
-347.06
-342.912
-334.066
-320.91
-303.835
-283.209
-259.347
-232.484
-202.77
-170.26
-134.932
-96.7046
-55.4643
-11.0941
36.3515
86.379
138.354
191.468
244.715
296.872
346.497
391.943
431.411
463.027
484.98
495.696
533.875
520.482
496.598
463.855
424.034
378.91
330.146
279.227
227.439
175.867
125.405
76.7843
30.5988
-12.6637
-53.0064
-90.4287
-124.948
-156.574
-185.278
-210.979
-233.531
-252.719
-268.275
-279.887
-287.22
-289.932
-287.737
-280.835
-269.546
-254.186
-235.056
-212.416
-186.477
-157.384
-125.223
-90.0274
-51.7994
-10.5388
33.7278
80.9604
130.623
182.065
234.488
286.918
338.188
386.923
431.551
470.334
501.449
523.104
533.71
532.089
518.487
494.217
460.94
420.47
374.619
325.085
273.394
220.865
168.617
117.573
68.4939
21.9989
-21.5183
-62.0064
-99.4542
-133.867
-165.239
-193.524
-218.624
-240.374
-258.551
-272.882
-283.061
-288.768
-289.686
-285.737
-277.258
-264.587
-248.055
-227.965
-204.574
-178.076
-148.602
-116.216
-80.9347
-42.7409
-1.61576
42.4382
89.2997
138.456
189.278
240.996
292.667
343.153
391.117
435.021
473.168
503.767
525.059
535.482
575.722
563.227
541.004
510.601
473.677
431.856
386.637
339.348
291.122
242.913
195.507
149.554
105.591
64.072
25.1101
-11.1749
-44.7083
-75.4309
-103.272
-128.131
-149.864
-168.283
-183.156
-194.217
-201.177
-203.727
-201.587
-194.956
-184.129
-169.38
-150.963
-129.103
-103.982
-75.7428
-44.4884
-10.2953
26.7663
66.6045
109.074
154.02
200.945
249.263
298.263
347.089
394.713
439.917
481.295
517.276
546.185
566.349
576.252
574.735
562.045
539.461
508.558
471.021
428.508
382.551
334.51
285.552
236.659
188.648
142.195
97.863
56.0295
16.8852
-19.4477
-52.8891
-83.3712
-110.813
-135.103
-156.088
-173.575
-187.329
-197.092
-202.583
-203.502
-199.774
-191.717
-179.635
-163.813
-144.509
-121.944
-96.2941
-67.6909
-36.2258
-1.96327
35.0374
74.6958
116.882
161.403
207.786
255.465
303.758
351.837
398.702
443.168
483.861
519.242
547.668
567.493
577.226
619.51
608.473
588.901
562.195
529.825
493.207
453.627
412.202
369.873
327.417
285.466
244.532
205.034
167.321
131.633
98.1971
67.1683
38.6681
12.8111
-10.2757
-30.4414
-47.5063
-61.2619
-71.4741
-77.886
-80.2159
-78.1978
-72.026
-61.9711
-48.2778
-31.1701
-10.849
12.5104
38.7588
67.7675
99.4159
133.572
170.062
208.636
249.016
290.819
333.584
376.748
419.62
461.358
500.95
537.206
568.774
594.189
611.962
620.718
619.374
608.163
588.272
561.12
528.201
490.958
450.705
408.585
365.566
322.449
279.891
238.425
198.491
160.402
124.483
90.956
59.9766
31.6705
6.15788
-16.4283
-35.9326
-52.1731
-64.9427
-74.0118
-79.1298
-80.0173
-76.5955
-69.1678
-58.0087
-43.3689
-25.4764
-4.53231
19.2913
45.8508
75.0239
106.697
140.742
176.991
215.197
255.104
296.345
338.482
380.97
423.144
464.186
503.108
538.747
569.779
594.764
612.238
620.842
665.13
656.137
640.251
618.656
592.571
563.148
531.411
498.233
464.325
430.255
396.463
363.28
330.951
299.648
269.726
241.483
215.122
190.802
168.665
148.853
131.522
116.842
105.002
96.2108
90.692
88.6976
90.4711
95.8306
104.532
116.36
131.116
148.616
168.693
191.194
215.974
242.884
271.757
302.371
334.407
367.481
401.395
435.874
470.549
504.932
538.402
570.188
599.359
624.831
645.409
659.853
666.997
665.897
656.761
640.611
618.648
592.106
562.161
529.857
496.083
461.572
426.908
392.546
358.829
326.011
294.29
264.092
235.704
209.328
185.124
163.237
143.813
127.009
112.997
101.962
94.1079
89.6567
88.8624
91.8009
98.195
107.801
120.4
135.789
153.784
174.217
196.938
221.805
248.674
277.378
307.691
339.282
371.858
405.231
439.135
473.212
506.992
539.871
571.094
599.752
624.781
645.004
659.201
666.22
712.47
706.101
694.923
679.834
661.736
641.466
619.748
597.173
574.204
551.183
528.338
505.803
483.611
461.704
440.508
420.327
401.362
383.762
367.659
353.183
340.467
329.658
320.913
314.4
310.301
308.824
310.171
314.188
320.673
329.449
340.354
353.235
367.95
384.363
402.344
421.754
442.436
464.176
486.648
509.412
532.511
555.892
579.396
602.761
625.606
647.426
667.58
685.302
699.718
709.904
714.974
714.19
707.717
696.348
680.988
662.557
641.903
619.762
596.739
573.306
549.811
526.489
503.47
480.782
458.454
436.959
416.586
397.53
379.942
363.956
349.704
337.322
326.955
318.759
312.898
309.555
308.942
311.123
315.869
322.981
332.28
343.6
356.789
371.703
388.209
406.178
425.475
445.938
467.343
489.332
511.626
534.259
557.173
580.212
603.118
625.521
646.926
666.704
684.102
698.26
708.267
713.246
761.354
758.153
752.636
745.342
736.798
727.47
717.74
707.897
698.138
688.575
679.237
670.069
660.914
651.476
642.155
633.175
624.657
616.678
609.309
602.616
596.674
591.568
587.389
584.24
582.236
581.512
582.206
584.21
587.393
591.64
596.854
602.942
609.823
617.422
625.668
634.492
643.806
653.483
663.285
672.808
682.345
692.047
701.955
712.02
722.111
732.002
741.377
749.823
756.849
761.913
764.477
764.077
760.818
755.193
747.749
739.019
729.475
719.505
709.403
699.367
689.509
679.851
670.325
660.745
650.947
641.347
632.148
623.466
615.38
607.96
601.277
595.408
590.436
586.456
583.568
581.89
581.564
582.636
584.95
588.378
592.808
598.141
604.287
611.163
618.698
626.823
635.469
644.546
653.907
663.265
672.421
681.635
691.038
700.663
710.462
720.3
729.957
739.122
747.389
754.272
759.237
761.75
811.813
812.248
813.205
814.799
817.112
820.185
824.016
828.561
833.739
839.436
845.51
851.779
857.992
863.731
869.182
874.359
879.215
883.693
887.735
891.294
894.331
896.82
898.746
900.106
900.914
901.198
901.002
900.292
899.034
897.216
894.839
891.917
888.477
884.556
880.204
875.476
870.43
865.114
859.51
853.44
847.326
841.424
835.915
830.942
826.615
823.009
820.159
818.059
816.655
815.856
815.542
815.583
816.011
816.957
818.534
820.826
823.873
827.672
832.175
837.298
842.922
848.894
855.016
860.992
866.517
871.766
876.734
881.37
885.615
889.415
892.723
895.505
897.737
899.409
900.522
901.095
901.165
900.749
899.799
898.292
896.219
893.585
890.409
886.72
882.559
877.977
873.031
867.775
862.242
856.361
850.119
843.887
837.9
832.327
827.307
822.942
819.307
816.435
814.316
812.898
812.089
811.77
)
;

boundaryField
{
    top
    {
        type            fixedFluxPressure;
        gradient        nonuniform List<scalar> 
102
(
1555.05
1675.12
1888.29
2179.76
2534.19
2936.95
3374.98
3837.16
4314.46
4799.99
5289.14
5780.2
6276.31
6791.4
7302.54
7798.09
8270.72
8714.58
9124.35
9494.96
9821.45
10099
10322.9
10488.7
10592.3
10629.5
10596.8
10496.8
10333.6
10111.2
9833.95
9506.36
9133.25
8719.61
8270.63
7791.78
7289.18
6770.51
6248.06
5744.77
5246.82
4751.38
4260.62
3779.72
3316.22
2879.87
2482.53
2137.97
1861.35
1668.24
1573.18
1587.77
1709.49
1925.7
2221.42
2581.07
2989.77
3434.22
3903.11
4387.25
4879.74
5376.15
5875.55
6383.33
6906.19
7421.55
7918.65
8390.32
8830.66
9234.27
9596.03
9911
10174.4
10381.8
10529
10611.8
10626.4
10571.5
10451.3
10269.9
10031.6
9740.83
9402.37
9021.06
8601.9
8150.03
7670.89
7170.69
6657.86
6147.78
5652.74
5161.77
4673.02
4188.96
3714.77
3257.89
2827.88
2436.39
2096.92
1824.4
1634.16
1540.56
)
;
        value           nonuniform List<scalar> 
102
(
837.73
840.166
844.677
851.128
859.348
869.134
880.266
892.514
905.646
919.436
933.663
948.116
962.597
976.92
990.891
1004.33
1017.06
1028.94
1039.81
1049.54
1058.02
1065.14
1070.79
1074.92
1077.45
1078.36
1077.62
1075.24
1071.26
1065.74
1058.74
1050.36
1040.7
1029.88
1018.05
1005.34
991.917
977.956
963.645
949.186
934.773
920.613
906.925
893.937
881.885
871.006
861.535
853.691
847.677
843.66
841.761
842.046
844.503
849.052
855.558
863.844
873.703
884.909
897.226
910.418
924.251
938.497
952.942
967.381
981.62
995.458
1008.71
1021.21
1032.79
1043.32
1052.66
1060.69
1067.31
1072.44
1076.01
1077.96
1078.27
1076.94
1073.99
1069.46
1063.41
1055.93
1047.11
1037.07
1025.92
1013.81
1000.88
987.287
973.206
958.823
944.331
929.917
915.783
902.143
889.219
877.241
866.438
857.041
849.264
843.305
839.325
837.446
)
;
    }
    bottom
    {
        type            fixedFluxPressure;
        gradient        nonuniform List<scalar> 
102
(
0
0
0
0
0
0
0
0
0
0
0
0
0
0
0
0
0
0
0
0
0
0
0
0
0
0
0
0
0
0
0
0
0
0
0
0
0
0
0
0
0
0
0
0
0
0
0
0
0
0
0
0
0
0
0
0
0
0
0
0
0
0
0
0
0
0
0
0
0
0
0
0
0
0
0
0
0
0
0
0
0
0
0
0
0
0
0
0
0
0
0
0
0
0
0
0
0
0
0
0
0
-1.65791e-14
)
;
        value           nonuniform List<scalar> 
102
(
-38.8499
-42.04
-48.011
-56.7001
-68.0364
-81.9569
-98.4152
-117.372
-138.766
-162.477
-188.296
-215.911
-244.877
-274.595
-304.25
-332.829
-359.27
-382.652
-402.216
-417.499
-428.663
-436.2
-440.884
-443.552
-444.887
-445.31
-444.976
-443.783
-441.37
-437.106
-430.166
-419.738
-405.262
-386.474
-363.717
-337.716
-309.379
-279.791
-250.02
-220.938
-193.198
-167.28
-143.526
-122.162
-103.324
-87.0787
-73.4702
-62.5443
-54.3604
-48.9832
-46.4675
-46.8438
-50.1068
-56.2188
-65.1212
-76.7493
-91.0467
-107.97
-127.474
-149.475
-173.818
-200.249
-228.39
-257.721
-287.54
-316.909
-344.737
-369.973
-391.76
-409.432
-422.817
-432.268
-438.429
-442.138
-444.183
-445.129
-445.267
-444.631
-443
-439.882
-434.537
-426.121
-413.922
-397.514
-376.892
-352.635
-325.54
-296.576
-266.813
-237.223
-208.557
-181.372
-156.076
-132.953
-112.186
-93.8766
-78.0767
-64.8254
-54.1733
-46.1869
-40.9366
-38.4803
)
;
    }
    frontAndBack
    {