/*--------------------------------*- C++ -*----------------------------------*\
| =========                 |                                                 |
| \\      /  F ield         | OpenFOAM: The Open Source CFD Toolbox           |
|  \\    /   O peration     | Version:  2.3.0                                 |
|   \\  /    A nd           | Web:      www.OpenFOAM.org                      |
|    \\/     M anipulation  |                                                 |
\*---------------------------------------------------------------------------*/
FoamFile
{
    version     2.0;
    format      ascii;
    class       volScalarField;
    location    "9000";
    object      p_rgh;
}
// * * * * * * * * * * * * * * * * * * * * * * * * * * * * * * * * * * * * * //

dimensions      [0 2 -2 0 0 0 0];

internalField   nonuniform List<scalar> 
3060
(
-38.866
-41.9287
-47.6698
-56.044
-67.0048
-80.5157
-96.5514
-115.084
-136.053
-159.333
-184.706
-211.846
-240.294
-269.436
-298.466
-326.426
-352.334
-375.289
-394.525
-409.66
-420.858
-428.576
-433.521
-436.448
-437.974
-438.48
-438.109
-436.773
-434.147
-429.667
-422.595
-412.186
-397.914
-379.522
-357.263
-331.845
-304.171
-275.246
-246.075
-217.521
-190.25
-164.763
-141.418
-120.454
-102.012
-86.1617
-72.9353
-62.3569
-54.4589
-49.2813
-46.8613
-47.2219
-50.359
-56.245
-64.8408
-76.1078
-90.0162
-106.542
-125.647
-147.245
-171.173
-197.163
-224.821
-253.606
-282.804
-311.504
-338.685
-363.365
-384.677
-402
-415.234
-424.714
-431.039
-434.972
-437.219
-438.283
-438.427
-437.68
-435.836
-432.452
-426.861
-418.301
-406.115
-389.911
-369.65
-345.847
-319.316
-290.982
-261.834
-232.805
-204.643
-177.922
-153.066
-130.37
-110.025
-92.1376
-76.7563
-63.9059
-53.6139
-45.9202
-40.8721
-38.5123
-62.7301
-65.4202
-70.4833
-77.9173
-87.7252
-99.9081
-114.451
-131.307
-150.374
-171.496
-194.439
-218.874
-244.328
-270.156
-295.625
-320.234
-343.78
-365.594
-384.423
-399.382
-410.598
-418.561
-423.922
-427.312
-429.205
-429.876
-429.416
-427.77
-424.708
-419.804
-412.452
-401.99
-387.882
-369.857
-348.574
-325.306
-300.898
-275.605
-249.855
-224.39
-199.901
-176.903
-155.762
-136.73
-119.982
-105.625
-93.7097
-84.249
-77.2377
-72.6681
-70.5395
-70.8565
-73.6176
-78.8191
-86.464
-96.5605
-109.111
-124.094
-141.447
-161.045
-182.696
-206.121
-230.921
-256.533
-282.233
-307.311
-331.46
-354.327
-374.881
-391.909
-405.029
-414.623
-421.277
-425.651
-428.313
-429.638
-429.804
-428.831
-426.584
-422.736
-416.762
-408.013
-395.868
-379.877
-360.154
-337.78
-313.927
-289.078
-263.448
-237.646
-212.401
-188.314
-165.817
-145.21
-126.704
-110.443
-96.5104
-84.9448
-75.7547
-68.9377
-64.4914
-62.4199
-76.4002
-79.2126
-84.4757
-92.1332
-102.101
-114.254
-128.425
-144.406
-161.977
-180.931
-201.092
-222.317
-244.488
-267.505
-291.181
-314.809
-337.134
-356.894
-373.616
-387.8
-399.361
-407.792
-413.587
-417.398
-419.635
-420.47
-419.924
-417.986
-414.531
-409.216
-401.436
-390.575
-376.927
-360.842
-341.818
-320.041
-296.679
-273.067
-250.066
-227.924
-206.745
-186.652
-167.796
-150.363
-134.571
-120.647
-108.804
-99.2147
-92.0058
-87.2617
-85.0387
-85.3705
-88.2507
-93.6394
-101.474
-111.661
-124.062
-138.492
-154.731
-172.552
-191.746
-212.134
-233.572
-255.947
-279.138
-302.796
-325.888
-347.041
-365.265
-380.687
-393.687
-403.721
-410.796
-415.58
-418.619
-420.19
-420.378
-419.185
-416.564
-412.288
-405.876
-396.649
-384.336
-369.533
-352.051
-331.53
-308.728
-284.983
-261.444
-238.636
-216.702
-195.742
-175.879
-157.266
-140.087
-124.555
-110.89
-99.291
-89.9143
-82.8729
-78.2429
-76.0749
-57.5741
-60.5436
-66.0802
-74.0991
-84.4822
-97.0704
-111.66
-128.006
-145.843
-164.912
-184.986
-205.885
-227.492
-249.732
-272.468
-295.181
-317.108
-337.77
-356.612
-372.279
-384.362
-393.858
-400.649
-405.173
-407.917
-408.986
-408.314
-405.951
-401.861
-395.668
-386.793
-375.399
-360.695
-342.531
-322.296
-300.706
-278.196
-255.523
-233.316
-211.76
-190.932
-170.952
-152.004
-134.323
-118.178
-103.846
-91.5804
-81.5915
-74.0422
-69.0521
-66.7053
-67.0564
-70.0941
-75.7563
-83.9505
-94.5467
-107.37
-122.197
-138.767
-156.802
-176.038
-196.252
-217.277
-239.007
-261.359
-284.071
-306.409
-327.685
-347.487
-364.877
-378.609
-389.34
-397.508
-403.094
-406.717
-408.647
-408.866
-407.357
-404.174
-399.127
-391.633
-381.492
-368.581
-351.953
-332.541
-311.515
-289.315
-266.514
-243.889
-221.809
-200.378
-179.679
-159.847
-141.075
-123.599
-107.684
-93.5934
-81.5608
-71.7792
-64.3962
-59.5205
-57.2296
-27.1401
-30.1369
-35.7114
-43.7658
-54.1734
-66.7779
-81.3954
-97.8206
-115.838
-135.234
-155.808
-177.368
-199.721
-222.639
-245.789
-268.655
-290.697
-311.896
-332.39
-350.943
-365.922
-377.008
-385.002
-390.618
-394.138
-395.561
-394.696
-391.677
-386.601
-379.245
-369.058
-355.129
-337.412
-317.244
-296.214
-274.389
-251.685
-228.595
-205.69
-183.344
-161.806
-141.283
-121.976
-104.096
-87.8643
-73.5051
-61.2294
-51.2254
-43.6515
-38.6341
-36.2693
-36.6236
-39.6828
-45.3726
-53.5893
-64.1981
-77.0327
-91.898
-108.578
-126.849
-146.492
-167.297
-189.065
-211.583
-234.579
-257.632
-280.138
-301.729
-322.589
-342.318
-359.125
-372.023
-381.383
-388.118
-392.648
-395.13
-395.399
-393.411
-389.364
-383.163
-374.463
-362.414
-346.422
-327.167
-306.451
-285.062
-262.777
-239.778
-216.643
-193.844
-171.677
-150.354
-130.068
-111.009
-93.3852
-77.4094
-63.2963
-51.2465
-41.4373
-34.0171
-29.1051
-26.7916
5.01221
1.90279
-3.86607
-12.1778
-22.8872
-35.8225
-50.7909
-67.5852
-85.9943
-105.812
-126.845
-148.907
-171.817
-195.365
-219.276
-243.221
-266.69
-289.221
-310.344
-329.58
-346.335
-359.16
-368.223
-374.446
-378.571
-380.357
-379.293
-375.72
-370.111
-361.908
-350.191
-334.36
-315.609
-294.871
-272.59
-249.281
-225.406
-201.491
-177.913
-154.975
-132.903
-111.896
-92.1486
-73.8638
-57.2567
-42.5461
-29.9447
-19.6496
-11.8341
-6.64285
-4.18993
-4.55795
-7.72907
-13.612
-22.0847
-32.9947
-46.1621
-61.385
-78.4479
-97.1322
-117.226
-138.528
-160.845
-183.975
-207.679
-231.628
-255.403
-278.486
-300.421
-320.668
-338.823
-353.622
-364.325
-371.772
-376.843
-379.83
-380.15
-377.692
-373.048
-366.169
-356.224
-342.319
-324.772
-305.026
-283.485
-260.673
-237.037
-213.065
-189.202
-165.791
-143.081
-121.267
-100.532
-81.0609
-63.0513
-46.7114
-32.2523
-19.8782
-9.77709
-2.11413
2.97276
5.37463
37.8859
34.6238
28.5872
19.9151
8.77614
-4.63671
-20.1143
-37.4408
-56.4029
-76.799
-98.443
-121.163
-144.791
-169.146
-194.003
-219.143
-244.13
-268.486
-291.618
-312.701
-330.683
-344.181
-353.028
-358.967
-362.84
-364.617
-363.575
-360.258
-354.966
-347.123
-334.917
-317.911
-297.419
-274.646
-250.468
-225.545
-200.385
-175.454
-151.01
-127.301
-104.527
-82.8701
-62.5127
-43.6512
-26.4964
-11.2691
1.80865
12.5239
20.6822
26.116
28.6897
28.303
24.9778
18.8243
9.98673
-1.35984
-15.0153
-30.7634
-48.3815
-67.6506
-88.3638
-110.329
-133.365
-157.288
-181.893
-206.918
-232.058
-256.836
-280.722
-302.99
-322.72
-338.571
-349.489
-356.537
-361.292
-364.1
-364.4
-362.01
-357.629
-351.079
-341.154
-326.392
-307.471
-285.772
-262.253
-237.688
-212.623
-187.53
-162.762
-138.57
-115.159
-92.702
-71.3649
-51.3229
-32.7659
-15.8995
-0.938254
11.9027
22.4175
30.419
35.7457
38.267
69.4943
66.0185
59.6032
50.4174
38.6641
24.5707
8.37735
-9.67585
-29.3604
-50.4688
-72.8201
-96.2586
-120.646
-145.846
-171.699
-198.053
-224.502
-250.55
-275.561
-298.674
-318.754
-334.055
-343.047
-347.565
-350.283
-351.504
-350.85
-348.602
-344.815
-337.328
-323.558
-304.432
-281.876
-257.167
-231.229
-204.764
-178.308
-152.304
-126.948
-102.42
-78.8748
-56.4636
-35.3544
-15.7393
2.16442
18.1195
31.8787
43.1974
51.8465
57.625
60.3685
59.9559
56.4134
49.8745
40.5136
28.5402
14.1885
-2.29493
-20.6644
-40.6869
-62.1515
-84.8732
-108.69
-133.452
-159.003
-185.155
-211.655
-238.036
-263.73
-287.976
-309.788
-327.732
-339.813
-346.008
-349.309
-351.187
-351.35
-349.7
-346.624
-341.27
-330.659
-313.914
-292.908
-269.209
-243.856
-217.651
-191.182
-164.919
-139.222
-114.218
-90.064
-66.8938
-44.8494
-24.0926
-4.81128
12.7808
28.4513
41.9586
53.0649
61.5481
67.2132
69.9011
99.1334
95.3713
88.4452
78.5638
65.9777
50.9645
33.8117
14.7998
-5.81321
-27.8042
-50.9913
-75.2346
-100.429
-126.49
-153.333
-180.842
-208.649
-236.265
-263.032
-288.057
-310.174
-327.782
-338.874
-343.48
-345.001
-345.589
-345.36
-344.304
-340.94
-331.705
-315.535
-294.315
-269.809
-243.285
-215.709
-187.806
-160.113
-133.04
-106.749
-81.3466
-56.9339
-33.6308
-11.5903
8.99337
27.885
44.816
59.4968
71.6341
80.9484
87.1919
90.1628
89.7157
85.8815
78.8218
68.7514
55.9279
40.6361
23.1701
3.81523
-17.1673
-39.5527
-63.1576
-87.8392
-113.485
-139.995
-167.259
-195.048
-222.922
-250.303
-276.404
-300.195
-320.3
-334.803
-342.225
-344.681
-345.489
-345.504
-344.721
-342.728
-336.692
-323.753
-304.787
-281.782
-256.206
-229.141
-201.418
-173.642
-146.265
-119.627
-93.7857
-68.8304
-44.8504
-21.9591
-0.307111
19.9126
38.4668
55.0905
69.4998
81.4079
90.5428
96.6636
99.5743
126.667
122.529
114.93
104.128
90.4387
74.2081
55.7913
35.5282
13.7227
-9.37265
-33.5666
-58.731
-84.7943
-111.727
-139.519
-168.078
-197.081
-226.071
-254.397
-281.17
-305.228
-325.1
-339.021
-346.058
-348.269
-348.756
-348.63
-347.235
-341.826
-329.674
-311.101
-287.873
-261.562
-233.414
-204.392
-175.212
-146.389
-118.287
-91.0472
-64.7012
-39.2972
-14.9222
8.28062
30.1049
50.2834
68.498
84.397
97.6177
107.811
114.667
117.936
117.444
113.227
105.481
94.4719
80.5234
63.99
45.2339
24.6001
2.39492
-21.1295
-45.7834
-71.4392
-98.0217
-125.489
-153.809
-182.766
-211.961
-240.834
-268.608
-294.251
-316.436
-333.501
-343.809
-347.832
-348.721
-348.692
-347.954
-344.829
-336.065
-320.435
-299.315
-274.423
-247.146
-218.57
-189.52
-160.589
-132.195
-104.631
-77.9259
-52.0928
-27.1718
-3.24865
19.5323
40.9631
60.7769
78.6586
94.2621
107.232
117.229
123.95
127.152
152.441
147.826
139.366
127.385
112.279
94.4841
74.4443
52.5799
29.2595
4.78013
-20.6462
-46.8953
-73.9248
-101.757
-130.454
-159.938
-189.949
-220.074
-249.699
-277.959
-303.732
-325.652
-342.212
-352.347
-356.832
-358.079
-357.511
-354.219
-345.762
-330.786
-310.035
-285.015
-257.15
-227.635
-197.405
-167.143
-137.316
-108.231
-80.011
-52.6194
-26.0531
-0.372346
24.2812
47.6764
69.4972
89.3564
106.818
121.428
132.746
140.383
144.03
143.481
138.778
130.155
117.945
102.553
84.4275
64.0199
41.7564
18.0076
-6.93134
-32.8525
-59.6363
-87.2401
-115.675
-144.985
-174.964
-205.272
-235.393
-264.58
-291.832
-315.888
-335.278
-348.566
-355.462
-357.838
-357.943
-356.075
-350.329
-338.503
-320.411
-297.347
-270.805
-242.092
-212.263
-182.113
-152.203
-122.899
-94.4325
-66.8137
-39.987
-13.9446
11.251
35.453
58.4263
79.8539
99.3514
116.49
130.823
141.923
149.41
152.983
177.016
171.812
162.29
148.848
131.984
112.243
90.1828
66.3243
41.1208
14.9299
-12.0018
-39.5436
-67.6739
-96.4593
-126.021
-156.304
-187.119
-218.114
-248.721
-278.122
-305.245
-328.814
-347.482
-360.207
-367.048
-369.35
-368.128
-362.706
-351.598
-334.361
-311.854
-285.405
-256.333
-225.769
-194.602
-163.466
-132.767
-102.741
-73.487
-44.9113
-16.969
10.2979
36.7373
62.0787
85.9391
107.841
127.243
143.574
156.284
164.884
168.996
168.377
163.075
153.37
139.673
122.493
102.39
79.9302
55.6435
29.9847
3.30887
-24.1439
-52.2515
-80.9974
-110.444
-140.664
-171.508
-202.703
-233.785
-264.057
-292.567
-318.124
-339.385
-355.075
-364.602
-368.787
-369.1
-365.77
-357.494
-343.172
-323.108
-298.485
-270.654
-240.845
-210.066
-179.07
-148.364
-118.255
-88.8994
-60.2922
-32.3177
-4.92819
21.8282
47.7907
72.6829
96.1203
117.629
136.675
152.7
165.165
173.598
177.626
201.013
195.111
184.32
169.132
150.16
128.083
103.591
77.3281
49.8497
21.591
-7.15201
-36.2289
-65.6275
-95.4475
-125.846
-156.809
-188.228
-219.819
-251.067
-281.207
-309.227
-333.93
-354.062
-368.587
-377.157
-380.299
-378.538
-371.504
-358.53
-339.717
-315.985
-288.567
-258.695
-227.433
-195.612
-163.807
-132.36
-101.428
-71.0582
-41.1291
-11.5643
17.6004
46.1886
73.8735
100.187
124.544
146.271
164.662
179.033
188.782
193.445
192.744
186.731
175.735
160.262
140.939
118.464
93.5394
66.818
38.859
10.0951
-19.1853
-48.8442
-78.8789
-109.391
-140.464
-172.027
-203.88
-235.622
-266.614
-295.961
-322.545
-345.113
-362.476
-373.877
-379.467
-379.958
-375.482
-365.388
-349.335
-327.901
-302.215
-273.533
-243.016
-211.614
-180.026
-148.703
-117.88
-87.6344
-57.9376
-28.6286
0.367791
29.0053
57.0954
84.3046
110.164
134.092
155.428
173.479
187.577
197.136
201.705
225.018
218.311
206.057
188.85
167.439
142.655
115.338
86.2723
56.1329
25.4465
-5.42622
-36.2988
-67.1548
-98.1151
-129.334
-160.88
-192.722
-224.649
-256.194
-286.652
-315.085
-340.367
-361.319
-376.897
-386.51
-390.176
-388.058
-380.023
-365.94
-346.214
-321.822
-293.929
-263.686
-232.082
-199.875
-167.591
-135.5
-103.678
-72.094
-40.6237
-9.17424
22.2098
53.312
83.7309
112.898
140.101
164.52
185.293
201.583
212.654
217.951
217.155
210.324
197.841
180.315
158.516
133.294
105.508
75.9526
45.308
14.1002
-17.3154
-48.7692
-80.2563
-111.898
-143.79
-175.947
-208.249
-240.36
-271.695
-301.432
-328.531
-351.82
-370.162
-382.687
-389.161
-389.778
-384.591
-373.412
-356.353
-334.167
-307.952
-278.89
-248.065
-216.361
-184.42
-152.64
-121.175
-90.0225
-59.1136
-28.2625
2.61745
33.4673
64.053
93.9699
122.65
149.386
173.374
193.769
209.753
220.612
225.804
249.527
241.921
228.032
208.57
184.433
156.619
126.135
93.9176
60.7701
27.3211
-5.98869
-38.9154
-71.4222
-103.629
-135.687
-167.746
-199.858
-231.912
-263.429
-293.791
-322.151
-347.472
-368.648
-384.663
-394.794
-398.734
-396.409
-387.841
-373.238
-353.202
-328.698
-300.821
-270.632
-239.028
-206.656
-174.048
-141.389
-108.668
-75.7672
-42.5646
-8.97297
24.9371
58.8928
92.3957
124.767
155.156
182.585
206.018
224.45
236.999
243.004
242.103
234.357
220.212
200.395
175.829
147.536
116.544
83.8036
50.1251
16.1395
-17.7067
-51.1977
-84.3077
-117.154
-149.854
-182.508
-215.09
-247.314
-278.627
-308.312
-335.42
-358.868
-377.577
-390.655
-397.609
-398.308
-392.75
-381.046
-363.604
-341.247
-315.03
-286.054
-255.318
-223.603
-191.505
-159.398
-127.342
-95.2488
-62.9906
-30.3829
2.65396
36.0343
69.4544
102.428
134.277
164.16
191.114
214.128
232.219
244.53
250.417
274.94
266.355
250.694
228.793
201.716
170.636
136.731
101.097
64.6718
28.183
-7.83734
-43.0513
-77.394
-110.958
-143.895
-176.428
-208.669
-240.551
-271.738
-301.678
-329.601
-354.561
-375.532
-391.536
-401.792
-405.816
-403.395
-394.646
-379.962
-360.043
-335.824
-308.325
-278.512
-247.194
-214.962
-182.198
-149.027
-115.374
-81.0511
-45.9352
-9.97137
26.7274
63.8228
100.679
136.518
170.346
201.018
227.321
248.069
262.223
268.998
267.982
259.242
243.295
221.002
193.453
161.849
127.395
91.204
54.2197
17.1695
-19.3614
-55.1095
-90.0085
-124.144
-157.661
-190.729
-223.379
-255.419
-286.415
-315.714
-342.459
-365.66
-384.305
-397.504
-404.637
-405.382
-399.711
-387.904
-370.523
-348.417
-322.589
-294.056
-263.723
-232.309
-200.312
-167.993
-135.369
-102.291
-68.535
-33.9672
1.46998
37.6636
74.1909
110.489
145.77
179.049
209.203
235.042
255.412
269.3
275.943
301.564
291.937
274.41
249.965
219.833
185.364
147.91
108.722
68.8764
29.2275
-9.60769
-47.2515
-83.5645
-118.584
-152.468
-185.491
-217.824
-249.457
-280.154
-309.449
-336.668
-360.964
-381.403
-397.067
-407.167
-411.142
-408.703
-400.02
-385.574
-366.09
-342.457
-315.602
-286.389
-255.526
-223.514
-190.633
-156.936
-122.289
-86.4523
-49.2928
-10.8136
28.7994
69.1229
109.466
148.907
186.3
220.337
249.624
272.795
288.641
296.241
295.101
285.301
267.458
242.581
211.931
176.894
138.85
99.0735
58.6546
18.4557
-20.8968
-59.0461
-95.8589
-131.366
-165.75
-199.231
-231.902
-263.652
-294.145
-322.823
-348.93
-371.577
-389.835
-402.846
-409.945
-410.716
-405.112
-393.503
-376.516
-354.983
-329.839
-302.004
-272.285
-241.308
-209.478
-176.971
-143.744
-109.596
-74.2424
-37.5763
0.401745
39.498
79.2669
119.033
157.881
194.683
228.154
256.933
279.687
295.238
302.691
329.664
318.978
299.582
272.612
239.469
201.67
160.722
118.017
74.7563
31.904
-9.83352
-50.0052
-88.3942
-124.966
-159.891
-193.478
-225.938
-257.319
-287.464
-316
-342.356
-365.794
-385.485
-400.587
-410.346
-414.184
-411.776
-403.319
-389.32
-370.485
-347.627
-321.574
-293.076
-262.733
-230.949
-197.917
-163.624
-127.894
-90.4509
-51.148
-10.0637
32.5336
76.1326
119.953
162.954
203.857
241.202
273.433
299.011
316.556
324.997
323.728
312.853
293.113
265.673
231.97
193.557
151.977
108.649
64.794
21.3868
-20.8618
-61.5069
-100.335
-137.305
-172.639
-206.594
-239.31
-270.748
-300.661
-328.59
-353.892
-375.787
-393.444
-406.066
-412.993
-413.777
-408.358
-397.148
-380.776
-360.03
-335.755
-308.766
-279.762
-249.267
-217.598
-184.855
-150.944
-115.625
-78.5765
-39.7095
0.901506
42.984
86.0211
129.239
171.61
211.878
248.612
280.291
305.416
322.639
330.919
359.468
347.775
326.62
297.292
261.347
220.449
176.237
130.222
83.7097
37.7581
-6.83838
-49.5445
-90.0575
-128.257
-164.326
-198.586
-231.27
-262.47
-292.097
-319.868
-345.313
-367.812
-386.645
-401.065
-410.38
-414.03
-411.68
-403.535
-390.096
-372.012
-350.01
-324.805
-297.03
-267.175
-235.548
-202.27
-167.277
-130.365
-91.2441
-49.7576
-6.07174
39.4541
86.2171
133.345
179.693
223.873
264.297
299.269
327.098
346.244
355.487
354.094
342.198
320.674
290.842
254.296
212.74
167.854
121.179
74.0442
27.5248
-17.578
-60.7283
-101.623
-140.134
-176.52
-211.053
-243.904
-275.091
-304.446
-331.609
-356.049
-377.105
-394.053
-406.176
-412.858
-413.647
-408.483
-397.782
-382.145
-362.288
-338.956
-312.851
-284.558
-254.501
-222.912
-189.831
-155.125
-118.534
-79.7239
-38.6198
4.61714
49.6279
95.8121
142.306
187.986
231.485
271.254
305.635
332.977
351.777
360.845
391.142
378.566
355.887
324.531
286.183
242.625
195.598
146.695
97.3004
48.5475
1.30772
-43.8006
-86.3842
-126.229
-163.521
-198.569
-231.609
-262.758
-291.98
-319.071
-343.662
-365.244
-383.211
-396.92
-405.754
-409.195
-406.909
-399.105
-386.25
-368.925
-347.756
-323.343
-296.205
-266.724
-235.127
-201.471
-165.664
-127.496
-86.6884
-43.0815
3.06108
51.2857
100.902
150.955
200.221
247.227
290.294
327.618
357.387
377.924
387.87
386.368
373.578
350.509
318.618
279.633
235.379
187.635
138.032
87.9838
38.6435
-9.10468
-54.636
-97.5531
-137.635
-175.161
-210.392
-243.511
-274.573
-303.476
-329.951
-353.577
-373.81
-390.035
-401.632
-408.043
-408.839
-403.957
-393.802
-378.925
-359.957
-337.538
-312.252
-284.576
-254.838
-223.197
-189.648
-154.039
-116.108
-75.5383
-32.2715
13.4365
61.1378
110.15
159.535
208.09
254.374
296.745
333.443
362.695
382.867
392.628
424.798
411.542
387.707
354.83
314.694
269.155
220.012
168.903
117.255
66.2469
16.8087
-30.3697
-74.809
-116.199
-154.714
-190.624
-224.14
-255.386
-284.361
-310.923
-334.792
-355.562
-372.738
-385.777
-394.148
-397.382
-395.155
-387.671
-375.358
-358.719
-338.278
-314.526
-287.873
-258.61
-226.894
-192.743
-156.054
-116.635
-74.249
-28.7498
19.5013
69.9621
121.868
174.203
225.695
274.824
319.862
358.941
390.167
411.763
422.254
420.666
407.188
382.946
349.513
308.711
262.442
212.544
160.698
108.361
56.7399
6.78249
-40.809
-85.5475
-127.126
-165.812
-201.828
-235.343
-266.432
-295.039
-320.974
-343.912
-363.417
-378.985
-390.091
-396.248
-397.055
-392.448
-382.816
-368.649
-350.488
-328.868
-304.264
-277.051
-247.476
-215.641
-181.513
-144.942
-105.695
-63.4947
-18.3112
29.5054
79.4243
130.695
182.324
233.066
281.435
325.743
364.168
394.856
416.071
426.37
460.504
446.85
422.368
388.67
347.59
301.01
250.734
198.401
145.434
93.0249
42.1292
-6.51328
-52.353
-94.9925
-134.574
-171.297
-205.327
-236.768
-265.634
-291.825
-315.132
-335.236
-351.741
-364.2
-372.16
-375.203
-373.02
-365.809
-353.954
-337.883
-318.026
-294.777
-268.453
-239.271
-207.339
-172.658
-135.14
-94.6383
-50.9825
-4.06349
45.6697
97.6041
150.925
204.59
257.316
307.583
353.661
393.673
425.692
447.887
458.7
457.059
443.179
418.282
384.015
342.252
294.917
243.858
190.754
137.066
84.0134
32.5791
-16.4779
-62.5894
-105.417
-145.134
-181.907
-215.872
-247.097
-275.554
-301.108
-323.512
-342.427
-357.447
-368.137
-374.078
-374.903
-370.546
-361.376
-347.822
-330.34
-309.368
-285.284
-258.38
-228.837
-196.723
-162
-124.543
-84.1694
-40.6758
5.92912
55.2117
106.576
159.228
212.15
264.092
313.569
358.895
398.235
429.705
451.511
462.128
498.285
484.598
460.119
426.492
385.548
339.139
289.018
236.771
183.771
131.175
79.9275
30.7828
-15.6692
-58.9679
-99.1954
-136.455
-170.845
-202.429
-231.209
-257.108
-279.961
-299.52
-315.465
-327.432
-335.039
-337.914
-335.76
-328.771
-317.292
-301.684
-282.298
-259.446
-233.375
-204.252
-172.162
-137.111
-99.0496
-57.8982
-13.5813
33.9471
84.1756
136.452
189.95
243.642
296.281
346.397
392.317
432.21
464.176
486.379
497.226
495.577
481.665
456.773
422.578
380.947
333.774
282.855
229.815
176.066
122.797
70.9835
21.4041
-25.327
-68.8368
-109.19
-146.471
-180.756
-212.083
-240.427
-265.685
-287.666
-306.105
-320.676
-331.025
-336.791
-337.638
-333.501
-324.725
-311.688
-294.77
-274.327
-250.66
-223.998
-194.483
-162.168
-127.033
-89.001
-47.9658
-3.82122
43.3704
93.1175
144.79
197.586
250.507
302.339
351.652
396.813
436.032
467.449
489.266
499.918
538.129
524.849
501.16
468.68
429.179
384.416
336.041
285.528
234.151
182.984
132.913
84.6589
38.8103
-4.15137
-44.2186
-81.383
-115.657
-147.045
-175.52
-201.003
-223.351
-242.36
-257.77
-269.277
-276.557
-279.276
-277.149
-270.367
-259.242
-244.083
-225.177
-202.779
-177.089
-148.251
-116.347
-81.4125
-43.4543
-2.47837
41.4798
88.3745
137.676
188.739
240.773
292.816
343.708
392.086
436.389
474.892
505.783
527.283
537.815
536.211
522.713
498.624
465.593
425.421
379.907
330.74
279.431
227.292
175.429
124.76
76.0359
29.8702
-13.3491
-53.56
-90.7434
-124.899
-156.016
-184.051
-208.905
-230.42
-248.381
-262.523
-272.552
-278.156
-279.024
-275.088
-266.679
-254.128
-237.755
-217.855
-194.674
-168.4
-139.16
-107.017
-71.9864
-34.0574
6.78325
50.5244
97.0389
145.82
196.247
247.557
298.817
348.903
396.486
440.043
477.889
508.248
529.375
539.718
579.989
567.623
545.624
515.524
478.967
437.563
392.799
345.987
298.251
250.532
203.608
158.117
114.587
73.4635
34.8666
-1.07826
-34.293
-64.7163
-92.2775
-116.878
-138.378
-156.596
-171.308
-182.254
-189.154
-191.704
-189.629
-183.118
-172.459
-157.919
-139.743
-118.15
-93.3162
-65.3807
-34.4447
-0.585037
36.1255
75.5908
117.66
162.173
208.643
256.49
305.016
353.374
400.546
445.327
486.322
521.973
550.617
570.597
580.412
578.913
566.345
543.974
513.359
476.172
434.057
388.534
340.951
292.464
244.045
196.5
150.497
106.589
65.1458
26.366
-9.62287
-42.7372
-72.9071
-100.052
-124.062
-144.789
-162.044
-175.603
-185.213
-190.601
-191.476
-187.766
-179.787
-167.836
-152.19
-133.099
-110.776
-85.3932
-57.0777
-25.9193
8.01657
44.6684
83.9516
125.73
169.809
215.722
262.916
310.718
358.309
404.703
448.726
489.018
524.052
552.201
571.833
581.473
623.782
612.886
593.561
567.188
535.221
499.063
459.984
419.091
377.313
335.416
294.021
253.63
214.652
177.425
142.193
109.184
78.555
50.4271
24.9139
2.1395
-17.7493
-34.5782
-48.1451
-58.2225
-64.5604
-66.8834
-64.9276
-58.8796
-49.0038
-35.5384
-18.7009
1.31401
24.3363
50.2206
78.8404
110.076
143.796
179.825
217.912
257.774
299.04
341.259
383.879
426.219
467.448
506.565
542.391
573.589
598.707
616.274
624.929
623.604
612.531
592.876
566.046
533.518
496.721
456.954
415.352
372.869
330.298
288.283
247.348
207.923
170.314
134.849
101.75
71.175
43.2493
18.092
-4.167
-23.3764
-39.3598
-51.9162
-60.823
-65.836
-66.6814
-63.2879
-55.9537
-44.9469
-30.5115
-12.8688
7.78618
31.2866
57.4924
86.2837
117.547
151.156
186.94
224.648
264.027
304.72
346.298
388.23
429.858
470.375
508.807
544.004
574.654
599.333
616.593
625.094
669.401
660.554
644.925
623.677
598.012
569.068
537.856
505.235
471.908
438.432
405.238
372.649
340.899
310.151
280.758
253.015
227.126
203.247
181.515
162.071
145.065
130.66
119.042
110.41
104.983
103.006
104.72
109.95
118.459
130.037
144.492
161.645
181.336
203.416
227.743
254.172
282.538
312.62
344.103
376.602
409.928
443.818
477.909
511.725
544.654
575.937
604.653
629.733
649.996
664.22
671.256
670.176
661.184
645.286
623.662
597.534
568.059
536.27
503.046
469.107
435.029
401.256
368.123
335.874
304.701
275.028
247.139
221.236
197.475
175.999
156.95
140.479
126.753
115.951
108.271
103.929
103.172
106.07
112.352
121.78
134.141
149.238
166.894
186.948
209.251
233.668
260.056
288.25
318.026
349.053
381.045
413.822
447.128
480.614
513.819
546.148
576.859
605.054
629.684
649.587
663.56
670.469
716.709
710.484
699.558
684.81
667.125
647.326
626.123
604.097
581.7
559.265
537.015
515.076
493.476
472.152
451.519
431.878
413.426
396.308
380.651
366.58
354.224
343.722
335.224
328.891
324.901
323.453
324.747
328.634
334.92
343.434
354.018
366.528
380.827
396.785
414.277
433.169
453.308
474.484
496.379
518.554
541.06
563.85
586.772
609.572
631.879
653.197
672.898
690.228
704.328
714.294
719.255
718.491
712.161
701.041
686.021
668.001
647.815
626.188
603.711
580.848
557.938
535.207
512.78
490.677
468.925
447.989
428.152
409.607
392.499
376.957
363.108
351.083
341.021
333.069
327.388
324.153
323.57
325.7
330.316
337.227
346.261
357.259
370.074
384.57
400.619
418.096
436.872
456.789
477.624
499.026
520.726
542.762
565.082
587.538
609.878
631.741
652.641
671.964
688.968
702.809
712.595
717.465
765.579
762.507
757.215
750.229
742.058
733.155
723.89
714.541
705.297
696.261
687.458
678.831
670.219
661.329
652.542
644.079
636.055
628.545
621.612
615.318
609.732
604.93
600.999
598.034
596.144
595.459
596.112
598.002
601.001
605.002
609.912
615.646
622.129
629.291
637.069
645.396
654.193
663.337
672.597
681.578
690.574
699.738
709.116
718.667
728.265
737.697
746.655
754.741
761.478
766.34
768.803
768.42
765.291
759.894
752.76
744.406
735.292
725.791
716.188
706.671
697.345
688.226
679.241
670.202
660.946
651.877
643.191
634.998
627.372
620.379
614.083
608.554
603.871
600.12
597.398
595.815
595.509
596.521
598.701
601.927
606.093
611.107
616.884
623.35
630.44
638.089
646.234
654.789
663.612
672.422
681.035
689.71
698.578
707.679
716.967
726.317
735.52
744.272
752.182
758.779
763.543
765.958
815.794
816.338
817.489
819.35
821.988
825.431
829.665
834.635
840.252
846.396
852.919
859.638
866.302
872.501
878.405
884.024
889.307
894.194
898.623
902.54
905.902
908.673
910.832
912.37
913.293
913.626
913.409
912.61
911.201
909.173
906.535
903.306
899.521
895.223
890.467
885.314
879.827
874.055
867.99
861.461
854.888
848.524
842.558
837.135
832.374
828.36
825.139
822.717
821.057
820.08
819.678
819.732
820.272
821.417
823.269
825.896
829.325
833.538
838.479
844.054
850.137
856.57
863.15
869.585
875.572
881.274
886.681
891.737
896.38
900.549
904.194
907.272
909.753
911.62
912.87
913.514
913.588
913.106
912.024
910.325
908.005
905.078
901.569
897.514
892.961
887.964
882.587
876.887
870.9
864.56
857.867
851.186
844.749
838.731
833.273
828.488
824.456
821.223
818.793
817.125
816.143
815.739
)
;

boundaryField
{
    top
    {
        type            fixedFluxPressure;
        gradient        nonuniform List<scalar> 
102
(
1565.91
1684.41
1894.96
2183.06
2533.59
2932.12
3365.72
3823.36
4296.07
4776.99
5261.49
5747.81
6238.88
6748.14
7253.56
7743.53
8210.78
8649.51
9054.48
9420.68
9743.25
10017.4
10238.7
10402.6
10505.2
10542.3
10510.6
10412.5
10251.9
10032.9
9759.56
9436.41
9068.15
8659.67
8216.08
7742.78
7245.82
6732.79
6215.73
5717.26
5223.9
4732.97
4246.68
3770.22
3311.09
2878.98
2485.65
2144.72
1871.16
1680.29
1586.4
1600.75
1720.93
1934.6
2227.03
2582.89
2987.49
3427.64
3892.12
4371.81
4859.81
5351.71
5846.49
6349.36
6866.66
7376.35
7867.84
8334.01
8769.03
9167.59
9524.64
9835.32
10095
10299.3
10444
10525.2
10539.1
10484.6
10365.7
10186.5
9951.08
9663.87
9329.5
8952.74
8538.51
8091.86
7618.17
7123.6
6616.49
6112.04
5621.97
5135.72
4651.61
4172.16
3702.55
3250.17
2824.53
2437.16
2101.42
1832.04
1644.09
1551.66
)
;
        value           nonuniform List<scalar> 
102
(
841.893
844.411
849.072
855.734
864.214
874.3
885.761
898.358
911.853
926.013
940.611
955.435
970.283
984.97
999.298
1013.08
1026.15
1038.35
1049.53
1059.55
1068.29
1075.63
1081.48
1085.75
1088.38
1089.33
1088.58
1086.15
1082.07
1076.39
1069.19
1060.58
1050.66
1039.55
1027.4
1014.36
1000.59
986.268
971.586
956.749
941.953
927.407
913.336
899.972
887.559
876.343
866.567
858.463
852.243
848.084
846.118
846.411
848.954
853.661
860.387
868.944
879.116
890.665
903.348
916.917
931.134
945.765
960.592
975.408
990.017
1004.21
1017.81
1030.64
1042.53
1053.34
1062.94
1071.19
1078
1083.27
1086.94
1088.93
1089.24
1087.85
1084.79
1080.1
1073.86
1066.14
1057.06
1046.73
1035.27
1022.83
1009.56
995.614
981.175
966.428
951.566
936.781
922.275
908.267
894.982
882.657
871.532
861.843
853.816
847.659
843.545
841.6
)
;
    }
    bottom
    {
        type            fixedFluxPressure;
        gradient        nonuniform List<scalar> 
102
(
0
0
0
0
0
0
0
0
0
0
0
0
0
0
0
0
0
0
0
0
0
0
0
0
0
0
0
0
0
0
0
0
0
0
0
0
0
0
0
0
0
0
0
0
0
0
0
0
0
0
0
0
0
0
0
0
0
0
0
0
0
0
0
0
0
0
0
0
0
0
0
0
0
0
0
0
0
0
0
0
0
0
0
0
0
0
0
0
0
0
0
0
0
0
0
0
0
0
0
0
0
-1.64785e-14
)
;
        value           nonuniform List<scalar> 
102
(
-38.866
-41.9287
-47.6698
-56.044
-67.0048
-80.5157
-96.5514
-115.084
-136.053
-159.333
-184.706
-211.846
-240.294
-269.436
-298.466
-326.426
-352.334
-375.289
-394.525
-409.66
-420.858
-428.576
-433.521
-436.448
-437.974
-438.48
-438.109
-436.773
-434.147
-429.667
-422.595
-412.186
-397.914
-379.522
-357.263
-331.845
-304.171
-275.246
-246.075
-217.521
-190.25
-164.763
-141.418
-120.454
-102.012
-86.1617
-72.9353
-62.3569
-54.4589
-49.2813
-46.8613
-47.2219
-50.359
-56.245
-64.8408
-76.1078
-90.0162
-106.542
-125.647
-147.245
-171.173
-197.163
-224.821
-253.606
-282.804
-311.504
-338.685
-363.365
-384.677
-402
-415.234
-424.714
-431.039
-434.972
-437.219
-438.283
-438.427
-437.68
-435.836
-432.452
-426.861
-418.301
-406.115
-389.911
-369.65
-345.847
-319.316
-290.982
-261.834
-232.805
-204.643
-177.922
-153.066
-130.37
-110.025
-92.1376
-76.7563
-63.9059
-53.6139
-45.9202
-40.8721
-38.5123
)
;
    }
    frontAndBack
    {
        type            empty;
    }
    left_cyc