/*--------------------------------*- C++ -*----------------------------------*\
| =========                 |                                                 |
| \\      /  F ield         | OpenFOAM: The Open Source CFD Toolbox           |
|  \\    /   O peration     | Version:  2.3.0                                 |
|   \\  /    A nd           | Web:      www.OpenFOAM.org                      |
|    \\/     M anipulation  |                                                 |
\*---------------------------------------------------------------------------*/
FoamFile
{
    version     2.0;
    format      ascii;
    class       surfaceScalarField;
    location    "9000";
    object      phi;
}
// * * * * * * * * * * * * * * * * * * * * * * * * * * * * * * * * * * * * * //

dimensions      [0 3 -1 0 0 0 0];

internalField   nonuniform List<scalar> 
5988
(
0.0100905
-0.00885271
0.0186583
-0.00856775
0.0266934
-0.00803511
0.0339528
-0.00725942
0.0402046
-0.00625177
0.045243
-0.00503848
0.0489178
-0.00367481
0.051178
-0.00226016
0.0521168
-0.000938783
0.0519746
0.000142137
0.0510661
0.000908552
0.0496478
0.00141825
0.0478319
0.00181594
0.0455928
0.00223912
0.0428303
0.00276248
0.0394568
0.00337347
0.0354561
0.00400074
0.0308705
0.00458556
0.0258236
0.00504696
0.0206266
0.00519698
0.0156501
0.00497651
0.0111934
0.00445668
0.00742792
0.0037655
0.00434942
0.0030785
0.0017913
0.00255811
-0.000514999
0.0023063
-0.00287918
0.00236418
-0.0056002
0.00272102
-0.00891209
0.00331189
-0.0129187
0.00400664
-0.0175449
0.00462614
-0.0225524
0.0050075
-0.0276042
0.00505189
-0.0323249
0.00472069
-0.0364846
0.0041597
-0.0399998
0.00351515
-0.0428442
0.00284442
-0.045068
0.00222382
-0.0467629
0.00169484
-0.0479791
0.00121624
-0.0486554
0.000676316
-0.0485986
-5.68697e-05
-0.0475415
-0.00105707
-0.0452528
-0.00228866
-0.041622
-0.00363082
-0.0366801
-0.00494187
-0.0305655
-0.00611462
-0.0234805
-0.00708499
-0.0156606
-0.0078199
-0.00735678
-0.00830385
0.00117283
-0.00852961
0.00966649
-0.00849366
0.0178632
-0.00819668
0.0255062
-0.00764302
0.0323477
-0.0068415
0.038159
-0.00581129
0.0427515
-0.00459251
0.0460117
-0.0032602
0.0479452
-0.00193348
0.048701
-0.000755796
0.0485318
0.000169174
0.0476939
0.000837884
0.0463457
0.00134823
0.0445142
0.00183147
0.0421294
0.00238485
0.0391028
0.00302656
0.0354053
0.00369747
0.0310796
0.00432568
0.0262361
0.00484358
0.0211579
0.00507819
0.0162235
0.00493437
0.0117497
0.00447378
0.00793443
0.00381529
0.00480198
0.00313245
0.00220626
0.00259572
-0.000110954
0.00231721
-0.00245682
0.00234587
-0.00513476
0.00267794
-0.00839179
0.00325703
-0.0123549
0.00396313
-0.0169778
0.00462288
-0.0220473
0.00506953
-0.0272422
0.00519489
-0.0321847
0.00494247
-0.0366154
0.00443071
-0.040446
0.00383063
-0.0436461
0.00320006
-0.0462533
0.00260719
-0.0483671
0.00211383
-0.0500755
0.00170836
-0.0513702
0.00129477
-0.0520974
0.000727178
-0.0519711
-0.000126332
-0.0506845
-0.00128656
-0.0480351
-0.00264945
-0.0439723
-0.00406278
-0.0385797
-0.00539262
-0.0320267
-0.00655296
-0.0245286
-0.00749815
-0.0163213
-0.00820724
-0.0076497
-0.00867163
-0.00888749
0.00833612
-0.0161682
0.0155017
-0.0157333
0.022396
-0.0149295
0.0289193
-0.0137827
0.0350061
-0.0123385
0.0406376
-0.01067
0.0458483
-0.00888549
0.0507126
-0.0071245
0.0552984
-0.00552461
0.0595984
-0.00415786
0.063486
-0.00297899
0.066748
-0.00184379
0.0691504
-0.00058645
0.0704587
0.000930781
0.0704247
0.00279656
0.0687815
0.00501663
0.0653285
0.00745376
0.0600258
0.00988826
0.0530304
0.0120423
0.0447964
0.013431
0.035967
0.0138059
0.0271974
0.0132263
0.0190131
0.0119498
0.0116469
0.0104447
0.00499969
0.00920536
-0.00126994
0.00857593
-0.00761144
0.00870569
-0.0144463
0.00955587
-0.0220319
0.0108975
-0.0303347
0.0123095
-0.0389827
0.0132741
-0.0473669
0.0133917
-0.0548286
0.0125136
-0.0607733
0.0106654
-0.0648989
0.0082853
-0.0671543
0.0057706
-0.0676657
0.0033558
-0.066683
0.00124109
-0.0644747
-0.000513379
-0.0612965
-0.00196198
-0.0573993
-0.00322091
-0.0530165
-0.00443962
-0.0483108
-0.00576285
-0.0433348
-0.00726461
-0.0380534
-0.00891225
-0.0324034
-0.0105919
-0.0263494
-0.0121685
-0.0199061
-0.0135283
-0.0131353
-0.0145907
-0.00613463
-0.0153045
0.00097657
-0.0156408
0.00807009
-0.0155872
0.015019
-0.0151456
0.0217085
-0.0143325
0.0280494
-0.0131824
0.0339918
-0.0117537
0.0395354
-0.0101361
0.0447267
-0.00845155
0.0496282
-0.00683492
0.0542561
-0.00538371
0.0585263
-0.00410099
0.0622509
-0.00288679
0.0651888
-0.00158967
0.0670871
-6.67508e-05
0.0676868
0.0017851
0.0667182
0.00399513
0.0639548
0.00646094
0.0593162
0.00896423
0.0529106
0.0112493
0.0451297
0.012859
0.0366051
0.013459
0.0279982
0.0130807
0.0198691
0.0119444
0.0125005
0.010501
0.00583634
0.00925991
-0.000439944
0.0085935
-0.00677134
0.00867726
-0.0135906
0.00949723
-0.0211853
0.0108517
-0.0295682
0.012346
-0.0384147
0.0134695
-0.0471442
0.013799
-0.0550995
0.0131502
-0.0616588
0.0115018
-0.0664577
0.00922965
-0.0694004
0.00677324
-0.0705744
0.00437407
-0.0702117
0.00224449
-0.0685774
0.000479584
-0.0659142
-0.00095486
-0.062456
-0.00216338
-0.058435
-0.00329383
-0.0540482
-0.00451312
-0.0493892
-0.00594558
-0.0444372
-0.00760148
-0.0391162
-0.00938378
-0.0333598
-0.011149
-0.027148
-0.0127647
-0.0205137
-0.0141325
-0.0135331
-0.0151878
-0.00631324
-0.0158915
-0.0162214
0.00791842
-0.0231179
0.0147619
-0.0225768
0.021415
-0.0215825
0.0278093
-0.0201771
0.0338974
-0.0184266
0.0396514
-0.016424
0.0450538
-0.0142879
0.0500769
-0.0121476
0.0546607
-0.0101084
0.0587086
-0.00820575
0.062113
-0.00638336
0.0647923
-0.00452316
0.0667091
-0.00250317
0.0678695
-0.000229633
0.068312
0.00235403
0.0680543
0.0052743
0.0669509
0.00855716
0.0646126
0.0122266
0.0605527
0.0161022
0.0543751
0.0196086
0.0461051
0.0220759
0.036481
0.0228504
0.0264499
0.0219808
0.016668
0.0202266
0.00733654
0.0185368
-0.00170426
0.0176167
-0.0107776
0.017779
-0.0201666
0.0189449
-0.0299103
0.0206412
-0.0396261
0.0220253
-0.0485083
0.0221563
-0.0556283
0.0205116
-0.0605623
0.0174476
-0.0635308
0.0136339
-0.065002
0.00975652
-0.0654409
0.0062095
-0.0651226
0.00303743
-0.0640863
0.000204822
-0.0622926
-0.00230703
-0.0597218
-0.00453277
-0.0563996
-0.00654311
-0.0523984
-0.00844085
-0.0478237
-0.0103376
-0.0427832
-0.0123051
-0.0373572
-0.0143383
-0.0315926
-0.0163564
-0.0255199
-0.0182413
-0.0191728
-0.0198754
-0.0126009
-0.0211626
-0.00587143
-0.022034
0.000934126
-0.0224464
0.00772746
-0.0223805
0.0144214
-0.0218395
0.0209377
-0.0208488
0.0272137
-0.0194585
0.0332049
-0.0177449
0.03888
-0.0158112
0.0442065
-0.013778
0.049129
-0.0117575
0.053558
-0.0098127
0.0573827
-0.00792569
0.0605043
-0.00600839
0.0628625
-0.0039479
0.0644447
-0.00164892
0.0652806
0.000949222
0.0654026
0.00387315
0.0647192
0.00714431
0.0628865
0.0107969
0.0594206
0.0147151
0.0538885
0.0183911
0.0462074
0.0211401
0.0370006
0.0222876
0.027212
0.021733
0.0175474
0.0201656
0.00826308
0.0185442
-0.000767856
0.0176244
-0.00986011
0.0177695
-0.0193117
0.0189488
-0.0292014
0.0207414
-0.0392035
0.0223482
-0.0485525
0.0228184
-0.0562906
0.0215371
-0.0618615
0.0187211
-0.0653994
0.0150397
-0.0673496
0.0111798
-0.0681897
0.00761334
-0.0682498
0.00443411
-0.0676135
0.00160821
-0.0662472
-0.000886737
-0.0641186
-0.00308343
-0.0612331
-0.00504885
-0.057641
-0.00688595
-0.0534338
-0.00872035
-0.0487201
-0.0106593
-0.0435877
-0.0127338
-0.0380861
-0.0148854
-0.0322377
-0.0169975
-0.0260613
-0.0189411
-0.0195896
-0.0206042
-0.0128761
-0.0219013
-0.00599424
-0.0227734
-0.0231843
0.00757085
-0.0297631
0.0141342
-0.0291401
0.0205496
-0.027998
0.0267603
-0.0263877
0.0327182
-0.0243845
0.0383798
-0.0220856
0.0436953
-0.0196033
0.0485964
-0.0170487
0.0529921
-0.0145041
0.0567817
-0.0119954
0.0598808
-0.00948248
0.0622401
-0.00688238
0.0638437
-0.00410684
0.0647002
-0.00108613
0.0648293
0.002225
0.0642501
0.00585345
0.062988
0.00981927
0.0610888
0.0141258
0.0584674
0.0187236
0.0545858
0.0234902
0.0486847
0.027977
0.0404457
0.0310895
0.0304587
0.0319677
0.019725
0.0309603
0.00887537
0.0293865
-0.00190907
0.0284012
-0.0126584
0.0285284
-0.0233559
0.0296423
-0.0336751
0.0309604
-0.0428127
0.0311629
-0.04984
0.0291836
-0.0545872
0.0252589
-0.0576338
0.0204942
-0.0597155
0.0157155
-0.0611301
0.0111712
-0.0618636
0.00694297
-0.0618783
0.00305215
-0.0611574
-0.000516104
-0.0596843
-0.00378013
-0.0574487
-0.00676841
-0.0544606
-0.00953112
-0.0507617
-0.0121398
-0.0464284
-0.0146709
-0.0415606
-0.0171729
-0.0362587
-0.0196402
-0.0306053
-0.0220098
-0.0246638
-0.0241828
-0.018487
-0.0260522
-0.0121278
-0.0275218
-0.00564461
-0.0285172
0.00089777
-0.0289887
0.00743067
-0.0289134
0.0138861
-0.0282949
0.0202009
-0.0271636
0.0263183
-0.0255759
0.0321864
-0.023613
0.0377505
-0.0213753
0.0429427
-0.0189702
0.0476746
-0.0164893
0.0518434
-0.0139815
0.0553536
-0.0114359
0.058138
-0.00879276
0.0601644
-0.00597435
0.0614296
-0.00291408
0.061947
0.000431766
0.061733
0.00408713
0.0608074
0.00806998
0.0592142
0.0123901
0.0569197
0.0170097
0.0534853
0.0218254
0.0481487
0.0264767
0.0404808
0.0299555
0.0309165
0.0312973
0.0204331
0.0306489
0.00970683
0.0292705
-0.00104726
0.0283785
-0.011851
0.0285732
-0.0227022
0.0298
-0.0333151
0.0313543
-0.0429236
0.0319566
-0.0505357
0.0304305
-0.0558202
0.0268216
-0.0592738
0.0221747
-0.0616663
0.0174322
-0.0633926
0.0129062
-0.0644703
0.00869098
-0.0648557
0.00481956
-0.0645279
0.00128041
-0.0634668
-0.00194784
-0.0616544
-0.00489581
-0.0590879
-0.00761535
-0.0557914
-0.0101825
-0.0518245
-0.0126872
-0.0472789
-0.0152048
-0.042255
-0.0177578
-0.036838
-0.0203025
-0.0310899
-0.0227456
-0.0250575
-0.0249734
-0.018785
-0.0268767
-0.0123225
-0.0283638
-0.00572956
-0.0293663
-0.0298396
0.00719768
-0.0360808
0.0134456
-0.035388
0.0195654
-0.0341177
0.0255024
-0.0323248
0.0312045
-0.0300866
0.0366168
-0.027498
0.0416757
-0.0246622
0.0463025
-0.0216755
0.050406
-0.0186077
0.0538952
-0.0154846
0.0566977
-0.012285
0.0587712
-0.00895594
0.0601016
-0.00543724
0.0606941
-0.0016786
0.0605654
0.00235366
0.0597413
0.00667764
0.0582601
0.0113004
0.0561674
0.0162185
0.0534834
0.0214076
0.0501678
0.0268058
0.0459209
0.0322239
0.0398538
0.0371566
0.0313589
0.0404626
0.0209686
0.0413506
0.00965171
0.0407034
-0.00195133
0.0400042
-0.0134306
0.0400076
-0.0243295
0.0405413
-0.0338856
0.0405164
-0.0411948
0.0384721
-0.0462227
0.0342115
-0.0498559
0.0288921
-0.0527297
0.023368
-0.0549816
0.0179674
-0.0566145
0.0128041
-0.057592
0.00792046
-0.057871
0.00333118
-0.0574237
-0.000963429
-0.0562336
-0.00497025
-0.0542944
-0.00870759
-0.0516165
-0.012209
-0.0482354
-0.0155209
-0.0442163
-0.0186899
-0.0396475
-0.0217416
-0.0346249
-0.0246629
-0.0292364
-0.0273982
-0.0235567
-0.0298625
-0.0176493
-0.0319595
-0.0115726
-0.0335986
-0.00538432
-0.0347055
0.00085629
-0.0352294
0.00708856
-0.0351457
0.0132521
-0.0344585
0.0192881
-0.0331996
0.0251391
-0.0314268
0.0307457
-0.0292197
0.036042
-0.0266716
0.0409496
-0.0238778
0.0453773
-0.020917
0.0492296
-0.0178338
0.0524231
-0.0146294
0.0549007
-0.0112704
0.0566346
-0.0077082
0.0576197
-0.00389926
0.0578658
0.000185745
0.0573916
0.00456129
0.0562295
0.00923213
0.0544242
0.0141954
0.0520038
0.0194301
0.0489467
0.0248826
0.0450263
0.0303971
0.0394371
0.0355447
0.0314523
0.0392822
0.0214299
0.0406713
0.0103122
0.0403883
-0.00123947
0.0399302
-0.0128092
0.040143
-0.0239508
0.0409416
-0.0339212
0.0413247
-0.0417504
0.0397859
-0.0472184
0.0358985
-0.0511451
0.0307483
-0.0542742
0.0253039
-0.0567948
0.0199527
-0.0587224
0.0148338
-0.0600269
0.00999548
-0.0606622
0.00545492
-0.0605939
0.00121208
-0.0597989
-0.0027428
-0.0582631
-0.00643161
-0.0559857
-0.00989276
-0.0529879
-0.0131803
-0.0493205
-0.0163546
-0.0450628
-0.0194625
-0.0403079
-0.0225127
-0.0351441
-0.0254663
-0.0296457
-0.028244
-0.0238733
-0.0307458
-0.0178804
-0.0328696
-0.0117196
-0.0345247
-0.00544632
-0.0356395
-0.0361658
0.00678202
-0.0420335
0.0126694
-0.0412755
0.0184353
-0.0398836
0.0240241
-0.0379136
0.0293796
-0.035442
0.0344411
-0.0325594
0.03914
-0.0293611
0.0433983
-0.0259338
0.0471325
-0.0223419
0.0502642
-0.0186163
0.0527323
-0.014753
0.0544998
-0.0107235
0.0555529
-0.00649035
0.0558944
-0.00202003
0.0555377
0.00271034
0.0545047
0.00771065
0.0528268
0.0129783
0.0505475
0.0184978
0.047719
0.0242362
0.0443867
0.030138
0.0405025
0.0361081
0.0357257
0.0419334
0.0291705
0.0470178
0.0202604
0.0502607
0.0095787
0.0513851
-0.00183918
0.0514221
-0.013028
0.0511964
-0.0230097
0.050523
-0.0308488
0.0483555
-0.0364378
0.0440611
-0.040662
0.0384357
-0.0441724
0.0324025
-0.0471493
0.0263449
-0.0495822
0.0204004
-0.051419
0.0146408
-0.0526114
0.00911289
-0.0531236
0.00384336
-0.0529324
-0.00115463
-0.0520243
-0.00587839
-0.0503955
-0.0103364
-0.0480568
-0.0145477
-0.0450396
-0.0185381
-0.0413995
-0.02233
-0.0372122
-0.025929
-0.032563
-0.029312
-0.0275365
-0.0324247
-0.0222093
-0.0351897
-0.0166499
-0.037519
-0.0109208
-0.0393277
-0.00508175
-0.0405445
0.000808207
-0.0411193
0.00669008
-0.0410276
0.0125049
-0.0402733
0.0181935
-0.0388882
0.0236958
-0.0369291
0.0289477
-0.0344716
0.0338789
-0.0316028
0.0384101
-0.028409
0.0424558
-0.0249627
0.0459319
-0.0213099
0.0487675
-0.017465
0.0509136
-0.0134165
0.052345
-0.00913961
0.0530556
-0.00460983
0.0530521
0.000189231
0.0523504
0.00526293
0.0509769
0.0106056
0.0489713
0.016201
0.0463838
0.0220175
0.043264
0.0280024
0.0395893
0.0340718
0.0350847
0.0400492
0.028939
0.0454279
0.0204476
0.0491626
0.0100317
0.0508043
-0.00131421
0.051276
-0.0126282
0.0514569
-0.0229247
0.0512382
-0.0311983
0.0495982
-0.0371628
0.0457504
-0.0416312
0.0403669
-0.0453469
0.0344639
-0.0485421
0.0284991
-0.0512244
0.0226351
-0.0533427
0.016952
-0.0548464
0.0114992
-0.0556954
0.00630387
-0.0558611
0.00137779
-0.0553241
-0.00327979
-0.0540733
-0.00768237
-0.05211
-0.0118561
-0.0494538
-0.0158365
-0.0461485
-0.01966
-0.0422611
-0.0233499
-0.0378727
-0.0269011
-0.0330661
-0.0302728
-0.0279169
-0.0333932
-0.022491
-0.0361716
-0.0168477
-0.038513
-0.0110426
-0.0403297
-0.00513142
-0.0415507
-0.0421265
0.00631244
-0.0475738
0.011788
-0.046751
0.0171421
-0.0452377
0.0223177
-0.0430893
0.0272563
-0.0403806
0.0318953
-0.0371985
0.0361673
-0.033633
0.0399998
-0.0297663
0.0433197
-0.0256618
0.0460608
-0.0213574
0.0481717
-0.0168639
0.0496205
-0.0121723
0.0503937
-0.00726358
0.0504926
-0.00211886
0.0499287
0.0032742
0.0487223
0.00891707
0.046902
0.0147985
0.0445063
0.0208934
0.0415822
0.0271604
0.0381804
0.0335398
0.0343348
0.0399537
0.0299727
0.0462955
0.0246759
0.0523145
0.0176162
0.0573204
0.0085719
0.0604294
-0.00155298
0.061547
-0.0113675
0.0610109
-0.0196006
0.0587562
-0.0257892
0.054544
-0.0305455
0.0488174
-0.0345807
0.0424709
-0.038132
0.0359537
-0.041206
0.0294189
-0.0437572
0.0229516
-0.0457366
0.0166202
-0.047102
0.0104783
-0.0478214
0.00456274
-0.0478732
-0.00110282
-0.047245
-0.00650657
-0.0459343
-0.0116471
-0.0439518
-0.0165303
-0.0413253
-0.0211646
-0.0381018
-0.0255535
-0.0343453
-0.0296855
-0.03013
-0.0335272
-0.0255328
-0.037022
-0.0206272
-0.0400952
-0.0154825
-0.0426637
-0.0101632
-0.044647
-0.00473129
-0.0459764
0.000752577
-0.0466032
0.0062282
-0.0465032
0.0116353
-0.0456804
0.0169131
-0.044166
0.0219989
-0.0420149
0.026827
-0.0392998
0.0313272
-0.0361029
0.0354244
-0.0325062
0.0390419
-0.0285802
0.0421074
-0.0243754
0.0445612
-0.0199188
0.0463614
-0.0152166
0.0474852
-0.0102634
0.0479261
-0.00505071
0.0476895
0.000425814
0.0467903
0.00616214
0.0452527
0.0121432
0.0431117
0.0183421
0.0404118
0.0247173
0.0372032
0.0312111
0.0335246
0.0377504
0.0293313
0.0442425
0.0242736
0.0504857
0.0175465
0.0558897
0.00878303
0.0595677
-0.00125742
0.0613165
-0.0112163
0.0614158
-0.0197616
0.0597835
-0.026266
0.0561026
-0.0312326
0.050717
-0.0354308
0.0445652
-0.0391547
0.0381878
-0.0424298
0.0317741
-0.0452132
0.0254185
-0.0474545
0.0191934
-0.0491088
0.0131534
-0.0501403
0.00733539
-0.0505228
0.00176031
-0.0502385
-0.00356409
-0.0492783
-0.00864261
-0.0476445
-0.0134899
-0.0453554
-0.0181255
-0.0424485
-0.0225669
-0.0389798
-0.0268186
-0.0350184
-0.0308625
-0.0306379
-0.0346534
-0.0259094
-0.0381216
-0.0208993
-0.0411818
-0.0156685
-0.0437438
-0.0102751
-0.0457231
-0.00477599
-0.0470498
-0.0476747
0.00578828
-0.0526536
0.0108025
-0.0517652
0.0156934
-0.0501286
0.0204031
-0.0477989
0.0248722
-0.0448497
0.0290397
-0.041366
0.0328418
-0.0374352
0.0362139
-0.0331384
0.0390935
-0.0285414
0.0414257
-0.0236896
0.0431684
-0.0186066
0.044295
-0.0132989
0.0447942
-0.00776277
0.0446672
-0.00199187
0.0439252
0.00401628
0.0425872
0.010255
0.0406805
0.0167053
0.0382399
0.023334
0.0353076
0.0300926
0.0319305
0.036917
0.0281534
0.0437308
0.0239971
0.0504518
0.0193543
0.0569572
0.0137832
0.0628915
0.00682004
0.0673926
-0.00112188
0.0694889
-0.0087788
0.0686678
-0.0151416
0.0651189
-0.0202246
0.0596271
-0.0245858
0.0531786
-0.0285096
0.0463947
-0.0320288
0.039473
-0.0351071
0.0324971
-0.0376981
0.0255426
-0.0397579
0.01868
-0.0412486
0.011969
-0.0421407
0.00545487
-0.0424134
-0.000830152
-0.0420543
-0.00686566
-0.0410605
-0.0126408
-0.039441
-0.0181498
-0.037219
-0.0233867
-0.0344335
-0.0283391
-0.0311376
-0.0329813
-0.0273947
-0.0372702
-0.0232725
-0.0411442
-0.0188395
-0.0445281
-0.0141628
-0.0473405
-0.00930695
-0.0495028
-0.00433534
-0.050948
0.000689747
-0.0516283
0.00570636
-0.0515198
0.0106525
-0.0506265
0.0154656
-0.0489791
0.0200821
-0.0466314
0.0244366
-0.0436543
0.0284618
-0.0401281
0.0320888
-0.0361333
0.0352507
-0.0317421
0.0378865
-0.0270112
0.0399465
-0.0219788
0.041396
-0.0166662
0.042216
-0.0110834
0.042401
-0.00523573
0.0419567
0.000870062
0.0408979
0.00722098
0.0392477
0.0137935
0.0370379
0.0205518
0.0343086
0.0274466
0.0311049
0.0344148
0.0274719
0.0413833
0.0234372
0.0482772
0.0189233
0.0549995
0.0135408
0.0612723
0.00677964
0.0663288
-0.00108981
0.0691859
-0.00886671
0.0691927
-0.0154392
0.066356
-0.0206916
0.061355
-0.0251742
0.0551995
-0.0292239
0.0486149
-0.0328949
0.0418588
-0.0361543
0.0350336
-0.0389555
0.0282197
-0.0412528
0.0214906
-0.0430057
0.0149064
-0.0441815
0.00851119
-0.0447554
0.00233414
-0.0447101
-0.00360931
-0.0440373
-0.00931548
-0.0427387
-0.0147884
-0.0408298
-0.0200345
-0.0383415
-0.0250553
-0.0353198
-0.0298402
-0.0318224
-0.0343599
-0.0279128
-0.038563
-0.0236557
-0.0423788
-0.019114
-0.0457235
-0.0143483
-0.0485094
-0.00941749
-0.0506539
-0.00437936
-0.052088
-0.0527625
0.00521284
-0.057228
0.00972088
-0.0562733
0.0141045
-0.0545123
0.0183058
-0.0520002
0.0222668
-0.0488107
0.0259292
-0.0450284
0.0292352
-0.0407411
0.0321281
-0.0360313
0.0345558
-0.0309692
0.0364738
-0.0256076
0.0378489
-0.0199817
0.0386605
-0.0141105
0.0389009
-0.00800314
0.0385731
-0.0016641
0.0376894
0.00490003
0.0362695
0.0116749
0.0343402
0.0186345
0.0319352
0.025739
0.0290946
0.0329333
0.0258641
0.0401475
0.0222939
0.047301
0.0184374
0.0543083
0.0143263
0.0610683
0.009874
0.0673438
0.00484897
0.0724176
-0.00065754
0.0749954
-0.00602204
0.0740323
-0.0107912
0.0698881
-0.0150623
0.0638982
-0.0190313
0.0571476
-0.0227164
0.0500799
-0.0260707
0.0428273
-0.0290422
0.0354687
-0.0315835
0.0280839
-0.0336522
0.0207488
-0.0352123
0.013529
-0.0362346
0.00647719
-0.0366976
-0.0003671
-0.0365877
-0.00697565
-0.0358996
-0.0133288
-0.0346391
-0.0194103
-0.0328238
-0.025202
-0.0304846
-0.0306782
-0.0276649
-0.0358011
-0.0244174
-0.0405177
-0.0208011
-0.0447606
-0.0168779
-0.0484513
-0.012711
-0.0515074
-0.00836355
-0.0538502
-0.00389872
-0.0554128
0.000620465
-0.0561474
0.00513103
-0.0560304
0.00956996
-0.0550654
0.0138742
-0.0532834
0.0179807
-0.0507378
0.021826
-0.0474997
0.0253474
-0.0436494
0.0284833
-0.0392692
0.0311762
-0.034435
0.0333755
-0.0292105
0.0350412
-0.0236445
0.036146
-0.0177709
0.0366755
-0.0116129
0.0366273
-0.00518758
0.036009
0.00148832
0.0348367
0.00839336
0.0331338
0.0154963
0.0309315
0.0227541
0.0282677
0.0301104
0.0251861
0.0374963
0.0217356
0.0448339
0.0179688
0.052044
0.0139244
0.0590439
0.00954293
0.0656538
0.00460124
0.0712705
-0.000870647
0.0746578
-0.00628975
0.0746118
-0.0111415
0.0712078
-0.0154783
0.0656918
-0.0195185
0.0592396
-0.0233011
0.0523975
-0.026783
0.0453407
-0.0299109
0.0381615
-0.0326358
0.0309446
-0.0349133
0.0237681
-0.036705
0.0166981
-0.0379793
0.00978547
-0.0387112
0.00306604
-0.0388829
-0.0034376
-0.0384846
-0.00971377
-0.037516
-0.015757
-0.0359883
-0.0215622
-0.0339255
-0.027118
-0.0313644
-0.0324014
-0.0283518
-0.0373725
-0.0249416
-0.0419733
-0.0211907
-0.0461296
-0.0171575
-0.0497567
-0.0129
-0.0527669
-0.00847613
-0.0550778
-0.00394392
-0.0566202
-0.0573449
0.00459114
-0.0612562
0.00855352
-0.0602356
0.0123927
-0.0583514
0.016052
-0.0556596
0.0194764
-0.052235
0.0226118
-0.0481638
0.0254067
-0.0435361
0.0278131
-0.0384376
0.0297881
-0.0329442
0.0312971
-0.0271166
0.0323151
-0.0209997
0.0328282
-0.0146236
0.0328333
-0.00800819
0.0323367
-0.00116759
0.0313535
0.00588331
0.0299054
0.013123
0.028021
0.0205189
0.0257352
0.0280248
0.0230895
0.0355789
0.0201328
0.0431043
0.0169234
0.0505105
0.0135354
0.0576963
0.0100643
0.0645394
0.0066036
0.0708045
0.00316588
0.0758553
-0.000283556
0.0784448
-0.00373314
0.0774819
-0.0071822
0.0733371
-0.0106499
0.067366
-0.0140757
0.0605733
-0.0173558
0.05336
-0.0204034
0.0458749
-0.0231528
0.0382181
-0.025551
0.0304821
-0.0275534
0.0227511
-0.0291223
0.0150979
-0.030227
0.00758189
-0.0308434
0.000249342
-0.0309549
-0.00686422
-0.0305527
-0.013731
-0.0296378
-0.0203253
-0.0282217
-0.0266181
-0.0263275
-0.0325724
-0.023989
-0.0381396
-0.0212493
-0.0432573
-0.0181587
-0.0478512
-0.0147721
-0.0518379
-0.0111477
-0.0551319
-0.00734545
-0.0576524
-0.00342695
-0.0593313
0.000545599
-0.06012
0.00450956
-0.0599943
0.00840238
-0.0589582
0.012162
-0.0570429
0.0157272
-0.054303
0.0190383
-0.0508109
0.0220381
-0.0466492
0.0246725
-0.0419037
0.0268932
-0.0366557
0.0286592
-0.0309766
0.0299397
-0.0249249
0.0307146
-0.0185459
0.0309756
-0.0118738
0.0307244
-0.00493637
0.0299719
0.00224077
0.0287371
0.00962816
0.0270459
0.0171876
0.0249308
0.0248691
0.0224315
0.0326098
0.0195945
0.0403333
0.0164758
0.0479527
0.013146
0.0553738
0.00969849
0.0624913
0.00623448
0.0691178
0.00278849
0.0747165
-0.000662759
0.0781091
-0.00410754
0.0780566
-0.00754716
0.0746474
-0.0110167
0.0691613
-0.0144751
0.062698
-0.0178224
0.0557448
-0.0209687
0.048487
-0.023845
0.0410378
-0.0263959
0.0334955
-0.0285748
0.025947
-0.030342
0.0184653
-0.0316643
0.0111078
-0.0325151
0.00391681
-0.0328742
-0.00307849
-0.032729
-0.00985893
-0.0320757
-0.0164104
-0.0309201
-0.0227177
-0.0292794
-0.0287588
-0.0271812
-0.0344995
-0.0246629
-0.0398908
-0.0217688
-0.0448673
-0.0185482
-0.0493502
-0.0150534
-0.0532515
-0.0113387
-0.0564816
-0.00745981
-0.0589567
-0.00347343
-0.0606065
-0.0613812
0.00392851
-0.0647025
0.00731099
-0.0636181
0.0105745
-0.0616149
0.0136654
-0.0587505
0.0165323
-0.055102
0.0191269
-0.0507584
0.0214044
-0.0458135
0.0233248
-0.040358
0.0248543
-0.0344738
0.0259671
-0.0282294
0.0266463
-0.0216788
0.0268846
-0.0148619
0.0266841
-0.00780772
0.0260557
-0.000539234
0.025018
0.00692102
0.0235963
0.0145447
0.0218223
0.0222929
0.019734
0.0301131
0.0173767
0.0379363
0.0148046
0.0456763
0.012085
0.0532301
0.00930626
0.0604751
0.00659105
0.0672546
0.00409291
0.0733026
0.00191527
0.078033
-3.75483e-05
0.0803977
-0.00206248
0.0795068
-0.0043859
0.0756606
-0.00699581
0.0699759
-0.00974307
0.0633206
-0.0124802
0.0560971
-0.0150998
0.0484945
-0.0175242
0.0406426
-0.0196931
0.032651
-0.0215571
0.0246151
-0.0230749
0.0166157
-0.0242121
0.00871908
-0.0249409
0.00097819
-0.0252405
-0.0065646
-0.0250977
-0.0138738
-0.024508
-0.020915
-0.0234765
-0.0276496
-0.0220183
-0.0340306
-0.0201587
-0.0399992
-0.0179316
-0.0454844
-0.0153788
-0.050404
-0.0125479
-0.0546688
-0.00949115
-0.0581887
-0.00626419
-0.0608794
-0.00292522
-0.0626703
0.000465974
-0.0635112
0.00384887
-0.0633772
0.00716305
-0.0622724
0.0103491
-0.060229
0.0133494
-0.0573033
0.0161091
-0.0535706
0.0185771
-0.0491172
0.0207074
-0.0440339
0.02246
-0.0384083
0.0238033
-0.0323199
0.0247148
-0.0258364
0.025182
-0.0190131
0.0252026
-0.0118944
0.0247836
-0.00451734
0.0239403
0.00308406
0.0226956
0.0108728
0.0210792
0.018804
0.0191271
0.0268212
0.0168828
0.0348541
0.0143982
0.0428179
0.0117376
0.0506132
0.00898548
0.058126
0.00625988
0.065217
0.00371673
0.071661
0.00148422
0.076949
-0.000488948
0.0800823
-0.00247923
0.0800468
-0.004746
0.0769142
-0.00731881
0.0717341
-0.0100658
0.065445
-0.0128386
0.0585176
-0.0155251
0.0511736
-0.018044
0.0435567
-0.020332
0.0357836
-0.0223377
0.0279527
-0.024018
0.0201456
-0.0253366
0.0124264
-0.0262635
0.0048437
-0.0267751
-0.00256682
-0.0268551
-0.00977897
-0.0264948
-0.0167707
-0.0256946
-0.0235179
-0.0244645
-0.0299889
-0.022824
-0.0361401
-0.0208012
-0.0419136
-0.0184318
-0.0472367
-0.0157572
-0.0520248
-0.0128233
-0.0561854
-0.00967943
-0.0596255
-0.00637759
-0.0622585
-0.00297188
-0.0640122
-0.0648353
0.00322991
-0.0675354
0.00600286
-0.0663911
0.00866455
-0.0642766
0.0111658
-0.0612517
0.0134604
-0.0573966
0.0155062
-0.0528042
0.0172655
-0.0475728
0.0187062
-0.0417988
0.0198031
-0.0355706
0.0205382
-0.0289646
0.0209022
-0.0220428
0.0208942
-0.0148539
0.0205219
-0.00743545
0.0198009
0.000181723
0.0187541
0.00796787
0.0174106
0.0158881
0.0158059
0.0238976
0.0139818
0.0319372
0.0119875
0.0399306
0.00988194
0.0477819
0.00773776
0.0553743
0.00564844
0.0625644
0.0037379
0.0691652
0.00215456
0.074886
0.000990449
0.0791971
0.000111387
0.0812767
-0.000857762
0.080476
-0.00220988
0.0770127
-0.00395659
0.0717226
-0.00595729
0.0653213
-0.00806646
0.0582063
-0.010173
0.050601
-0.0121934
0.0426629
-0.0140617
0.0345194
-0.0157241
0.0262774
-0.017135
0.0180266
-0.018256
0.00984006
-0.019055
0.0017772
-0.0195066
-0.00611301
-0.0195926
-0.0137878
-0.0193028
-0.0212047
-0.018636
-0.0283165
-0.0175999
-0.0350667
-0.0162114
-0.0413877
-0.0144963
-0.0471995
-0.0124878
-0.0524124
-0.0102261
-0.0569305
-0.00775669
-0.0606581
-0.00512954
-0.0635065
-0.00239802
-0.0654018
0.000382305
-0.0662915
0.00315487
-0.0661498
0.00586325
-0.0649808
0.00845237
-0.0628181
0.0108697
-0.0597207
0.0130663
-0.0557672
0.0149981
-0.051049
0.0166267
-0.0456625
0.0179208
-0.0397024
0.0188571
-0.0332561
0.0194209
-0.0264002
0.0196071
-0.0191993
0.0194195
-0.0117068
0.0188705
-0.00396834
0.0179803
0.00397421
0.0167763
0.0120768
0.0152923
0.020288
0.0135686
0.0285449
0.0116527
0.03677
0.00960163
0.044869
0.0074852
0.0527296
0.00539342
0.0602177
0.00344696
0.0671634
0.00179772
0.0733102
0.000563532
0.0781832
-0.000340799
0.0809866
-0.00126736
0.0809734
-0.00254591
0.0781928
-0.00423337
0.0734216
-0.0062072
0.0674188
-0.00832232
0.0606328
-0.010464
0.0533152
-0.0125453
0.045638
-0.014498
0.0377362
-0.016266
0.0297208
-0.0178025
0.021682
-0.0190673
0.0136911
-0.0200267
0.00580315
-0.0206533
-0.00194026
-0.0209261
-0.00950616
-0.0208316
-0.0168651
-0.0203646
-0.0239849
-0.0195282
-0.0308253
-0.0183341
-0.0373342
-0.0168024
-0.0434453
-0.0149604
-0.0490787
-0.0128419
-0.0541434
-0.0104856
-0.0585416
-0.00793525
-0.0621759
-0.00523774
-0.064956
-0.00244302
-0.066807
-0.0676754
0.00249972
-0.069727
0.00463744
-0.0685288
0.00667528
-0.0663144
0.00856986
-0.0631463
0.0102814
-0.0591081
0.0117744
-0.0542972
0.0130187
-0.0488171
0.01399
-0.0427701
0.0146706
-0.0362512
0.0150501
-0.029344
0.0151258
-0.0221185
0.0149029
-0.014631
0.0143943
-0.00692683
0.0136201
0.000955897
0.0126073
0.0089807
0.0113887
0.0171067
0.0100032
0.0252832
0.00849542
0.033445
0.0069173
0.0415087
0.00532946
0.0493698
0.0038044
0.0568993
0.00243076
0.063938
0.00131659
0.0702793
0.000576008
0.0756265
0.000255983
0.0795171
0.000203144
0.0813296
6.58576e-05
0.0806133
-0.000440643
0.0775192
-0.00136412
0.0726461
-0.00260819
0.0665653
-0.00405339
0.0596515
-0.00559845
0.0521461
-0.00716175
0.0442262
-0.0086763
0.0360339
-0.0100856
0.0276867
-0.0113411
0.0192821
-0.0124008
0.0108998
-0.0132289
0.00260525
-0.0137955
-0.00554643
-0.0140776
-0.0135056
-0.0140599
-0.0212224
-0.0137349
-0.0286415
-0.0131034
-0.0356982
-0.0121751
-0.042316
-0.0109676
-0.0484071
-0.00950618
-0.0538738
-0.00782309
-0.0586136
-0.00595648
-0.0625247
-0.00394947
-0.0655135
-0.00184906
-0.0675023
0.000295181
-0.0684357
0.00243244
-0.068287
0.00451212
-0.0670605
0.00648519
-0.0647912
0.00830562
-0.0615411
0.00993153
-0.0573931
0.0113263
-0.0524438
0.0124595
-0.0467957
0.0133079
-0.0405508
0.013856
-0.0338042
0.0140965
-0.0266408
0.0140309
-0.0191337
0.0136689
-0.0113448
0.0130281
-0.00332749
0.0121333
0.00486901
0.011016
0.0131941
0.00971391
0.0215902
0.00827064
0.0299882
0.00673676
0.0383039
0.00517136
0.0464344
0.00364499
0.054256
0.00224417
0.0616186
0.0010761
0.0683315
0.000261045
0.0741253
-0.000129253
0.0785735
-0.000206247
0.0810636
-0.000302751
0.0810699
-0.000733835
0.0786238
-0.00158684
0.0742746
-0.00278399
0.068616
-0.00420907
0.0620578
-0.00575931
0.0548655
-0.00735098
0.0472297
-0.00891519
0.0393004
-0.010394
0.0311996
-0.0117375
0.0230256
-0.0129028
0.0148564
-0.0138527
0.00675302
-0.0145558
-0.00123712
-0.0149872
-0.00907483
-0.0151285
-0.0167238
-0.0149689
-0.0241445
-0.0145056
-0.0312887
-0.0137432
-0.0380965
-0.0126943
-0.0444942
-0.0113785
-0.0503945
-0.00982172
-0.0557001
-0.00805581
-0.0603075
-0.00611743
-0.0641143
-0.00404749
-0.067026
-0.00189017
-0.0689643
-0.0698737
0.00174179
-0.0712532
0.00322194
-0.0700089
0.00461716
-0.0677096
0.00589129
-0.0644205
0.00701192
-0.0602288
0.00795118
-0.0552365
0.00868641
-0.0495524
0.00920077
-0.0432844
0.00948372
-0.0365342
0.0095315
-0.0293918
0.00934739
-0.0219344
0.0089418
-0.0142254
0.00833215
-0.00631718
0.00754252
0.00174552
0.00660316
0.00992006
0.00554979
0.0181601
0.00442331
0.0264097
0.00326994
0.0345984
0.00214166
0.042637
0.0010973
0.0504141
0.000203849
0.0577928
-0.000462257
0.0646041
-0.000817493
0.0706346
-0.000789336
0.0755984
-0.000375924
0.0791037
0.000265224
0.0806884
0.000833763
0.0800447
0.00107722
0.0772757
0.000919589
0.0728037
0.000408903
0.067076
-0.000369941
0.0604303
-0.00133392
0.0531101
-0.00240995
0.0453023
-0.0035344
0.0371583
-0.00465133
0.0288037
-0.00571114
0.0203419
-0.00666977
0.0118584
-0.00748852
0.003424
-0.00813418
-0.00490077
-0.00857975
-0.01306
-0.00880511
-0.020997
-0.00879745
-0.0286492
-0.00855167
-0.035944
-0.0080704
-0.0427973
-0.00736391
-0.0491135
-0.00644966
-0.0547881
-0.00535177
-0.0597115
-0.00410031