/*--------------------------------*- C++ -*----------------------------------*\
| =========                 |                                                 |
| \\      /  F ield         | OpenFOAM: The Open Source CFD Toolbox           |
|  \\    /   O peration     | Version:  2.3.0                                 |
|   \\  /    A nd           | Web:      www.OpenFOAM.org                      |
|    \\/     M anipulation  |                                                 |
\*---------------------------------------------------------------------------*/
FoamFile
{
    version     2.0;
    format      ascii;
    class       surfaceScalarField;
    location    "9000";
    object      phi;
}
// * * * * * * * * * * * * * * * * * * * * * * * * * * * * * * * * * * * * * //

dimensions      [0 3 -1 0 0 0 0];

internalField   nonuniform List<scalar> 
5988
(
0.00358738
-0.00317301
0.00670653
-0.00311915
0.00972634
-0.0030198
0.0126045
-0.00287819
0.0153031
-0.00269852
0.0177888
-0.00248578
0.0200342
-0.00224538
0.0220167
-0.00198244
0.023717
-0.00170037
0.0251159
-0.0013989
0.0261882
-0.00107229
0.0268971
-0.000708921
0.0271904
-0.000293276
0.0270015
0.000188958
0.0262602
0.000741211
0.0249179
0.00134237
0.022975
0.00194284
0.0204963
0.00247874
0.0176216
0.00287474
0.0145488
0.00307274
0.0114757
0.00307313
0.00856817
0.0029075
0.00591834
0.00264984
0.00352819
0.00239015
0.00132769
0.0022005
-0.00079386
0.00212155
-0.00296103
0.00216717
-0.00529006
0.00232903
-0.00786395
0.0025739
-0.0107011
0.00283716
-0.0137311
0.00303001
-0.0168017
0.00307061
-0.0197185
0.00291679
-0.0222767
0.00255816
-0.0243167
0.00204
-0.0257541
0.00143737
-0.0265722
0.000818165
-0.0268117
0.000239526
-0.0265418
-0.00026993
-0.0258323
-0.000709555
-0.0247399
-0.00109234
-0.0233061
-0.0014338
-0.0215602
-0.00174594
-0.0195252
-0.00203499
-0.0172236
-0.00230164
-0.0146808
-0.00254277
-0.0119273
-0.00275348
-0.00899872
-0.00292858
-0.00593547
-0.00306326
-0.00278194
-0.00315353
0.00041441
-0.00319635
0.00360435
-0.00318994
0.00673896
-0.00313461
0.00977148
-0.00303253
0.0126585
-0.00288697
0.0153606
-0.00270218
0.0178437
-0.00248309
0.0200786
-0.00223492
0.0220409
-0.00196228
0.0237084
-0.00166751
0.025057
-0.0013486
0.0260548
-0.000997755
0.0266565
-0.00060173
0.0268014
-0.000144889
0.0264179
0.000383465
0.0254413
0.000976595
0.0238436
0.00159779
0.021658
0.00218556
0.0189886
0.00266941
0.0160119
0.00297671
0.0129338
0.00307809
0.00994208
0.00299171
0.00717025
0.00277183
0.00466479
0.00250546
0.00238752
0.00227727
0.000243954
0.00214356
-0.00188641
0.00213036
-0.00412667
0.00224026
-0.00657991
0.00245324
-0.00930038
0.00272047
-0.0122632
0.00296282
-0.0153543
0.00309113
-0.0183956
0.00304132
-0.0211852
0.00278959
-0.0235352
0.00234996
-0.0253256
0.00179041
-0.0265094
0.00118382
-0.0271011
0.000591698
-0.0271579
5.67346e-05
-0.0267506
-0.000407285
-0.0259428
-0.000807818
-0.0247825
-0.00116027
-0.023303
-0.00147947
-0.0215274
-0.00177559
-0.0194746
-0.00205285
-0.0171642
-0.00231035
-0.0146202
-0.00254408
-0.0118714
-0.00274873
-0.00895249
-0.00291894
-0.00590259
-0.00304991
-0.00276491
-0.00313768
-0.00317929
0.00541534
-0.0079639
0.0101682
-0.007872
0.0148509
-0.00770249
0.019434
-0.00746136
0.023891
-0.00715552
0.0281959
-0.00679065
0.0323193
-0.00636876
0.0362231
-0.00588621
0.0398554
-0.00533275
0.043148
-0.00469151
0.046015
-0.00393926
0.0483524
-0.00304631
0.0500363
-0.00197717
0.0509198
-0.000694554
0.0508365
0.000824547
0.0496241
0.00255477
0.0471663
0.00440059
0.0434378
0.0062073
0.038568
0.00774451
0.0328689
0.00877184
0.026727
0.00921504
0.0205171
0.00911736
0.0145086
0.00865835
0.00880618
0.00809257
0.00336249
0.00764418
-0.00196567
0.00744971
-0.00735663
0.00755813
-0.0129676
0.00793996
-0.0188755
0.00848188
-0.025017
0.00897865
-0.0311592
0.0091722
-0.0369429
0.00885427
-0.0419744
0.00794835
-0.0459097
0.00649341
-0.0485733
0.00470362
-0.0499616
0.00282562
-0.0501761
0.00103274
-0.0493755
-0.00056115
-0.0477311
-0.00191433
-0.0453977
-0.00304288
-0.0425072
-0.0039829
-0.0391704
-0.00477055
-0.0354796
-0.00543677
-0.0315084
-0.00600617
-0.0273131
-0.00649693
-0.0229354
-0.00692045
-0.0184076
-0.00728133
-0.0137578
-0.00757832
-0.00901473
-0.00780638
-0.00420901
-0.00795924
0.000626284
-0.00803165
0.00545719
-0.00802084
0.0102498
-0.00792724
0.0149716
-0.00775434
0.0195925
-0.00750786
0.0240843
-0.00719397
0.0284182
-0.00681697
0.03256
-0.00637675
0.0364647
-0.00586698
0.0400717
-0.00527449
0.0433025
-0.00457939
0.0460602
-0.00375543
0.0482285
-0.00277011
0.0496702
-0.00158658
0.0502246
-0.000170921
0.0497194
0.00148178
0.048007
0.00331022
0.0450075
0.00518512
0.0407628
0.00691411
0.0354991
0.0082404
0.0295839
0.0089932
0.0234113
0.00916434
0.0173148
0.00886833
0.0114843
0.00833594
0.00594211
0.00781949
0.000584179
0.0075015
-0.00475747
0.00747201
-0.0102574
0.00774021
-0.0160402
0.00823597
-0.022118
0.0087983
-0.0283417
0.0091865
-0.0344069
0.00915633
-0.0399271
0.00856159
-0.0445242
0.00738662
-0.0479277
0.00575352
-0.050055
0.00391765
-0.0509602
0.00208907
-0.0507757
0.000407155
-0.0496686
-0.00105031
-0.0478017
-0.00227419
-0.0453155
-0.00329398
-0.0423286
-0.00414722
-0.03894
-0.00486805
-0.0352311
-0.00548451
-0.0312658
-0.00601818
-0.0270919
-0.00648423
-0.0227448
-0.00689118
-0.0182525
-0.00724106
-0.0136407
-0.00753069
-0.00893679
-0.00775383
-0.00417085
-0.00790362
-0.00797458
0.0060715
-0.0133351
0.0113936
-0.0131941
0.0166234
-0.0129323
0.0217181
-0.0125561
0.0266347
-0.0120721
0.0313288
-0.0114848
0.0357543
-0.0107942
0.039862
-0.00999395
0.0436006
-0.00907137
0.0469175
-0.00800835
0.0497609
-0.00678272
0.052084
-0.00536932
0.053848
-0.00374121
0.0550243
-0.00187083
0.055576
0.000272838
0.0553979
0.00273288
0.0542527
0.00554575
0.0518211
0.00863893
0.0478432
0.0117224
0.0422778
0.0143373
0.0354303
0.0160625
0.0278595
0.0166882
0.0200664
0.0164515
0.0123425
0.0158164
0.00476431
0.0152224
-0.00273332
0.0149473
-0.010268
0.0150928
-0.0179262
0.0155981
-0.0256755
0.0162312
-0.0332822
0.0165854
-0.0402897
0.0161797
-0.0461283
0.0146929
-0.0504073
0.0122273
-0.0530937
0.00917978
-0.0544125
0.00602247
-0.054687
0.00310012
-0.054184
0.000529701
-0.0530334
-0.0017117
-0.0512793
-0.00366842
-0.0489505
-0.00537174
-0.0460852
-0.00684813
-0.0427319
-0.00812391
-0.0389442
-0.00922446
-0.0347777
-0.0101727
-0.030287
-0.0109877
-0.0255242
-0.0116832
-0.020539
-0.0122666
-0.0153783
-0.012739
-0.0100879
-0.0130968
-0.00471296
-0.0133342
0.000701363
-0.013446
0.00610983
-0.0134293
0.0114672
-0.0132846
0.0167284
-0.0130155
0.0218481
-0.0126276
0.0267804
-0.0121263
0.0314776
-0.0115142
0.0358895
-0.0107887
0.0399632
-0.00994072
0.0436438
-0.00895501
0.0468757
-0.00781132
0.0496062
-0.00648597
0.0517893
-0.0049532
0.0533894
-0.00318665
0.0543779
-0.00115945
0.0546972
0.00116253
0.0541823
0.00382507
0.052539
0.00682843
0.0494537
0.00999939
0.0447534
0.0129408
0.0385604
0.0151862
0.0313441
0.0163806
0.023665
0.0165475
0.015926
0.0160749
0.00830317
0.0154424
0.000788907
0.0150158
-0.00671917
0.0149801
-0.0143331
0.0153541
-0.0220901
0.015993
-0.029863
0.0165712
-0.0373004
0.0166239
-0.0438642
0.0157202
-0.0490314
0.0137288
-0.0525921
0.0109473
-0.0546593
0.00782072
-0.0555235
0.0047819
-0.055495
0.00206055
-0.0547754
-0.000312468
-0.053444
-0.00238173
-0.0515316
-0.00418658
-0.0490692
-0.0057564
-0.0460978
-0.00711856
-0.0426662
-0.00829967
-0.0388265
-0.00932423
-0.0346312
-0.0102135
-0.0301312
-0.0109842
-0.0253748
-0.0116476
-0.0204077
-0.0122082
-0.0152736
-0.0126647
-0.0100156
-0.0130118
-0.00467659
-0.0132427
-0.0133515
0.00635587
-0.0189576
0.0119155
-0.0187537
0.0173569
-0.0183738
0.0226254
-0.0178246
0.0276666
-0.0171133
0.0324269
-0.0162451
0.0368536
-0.0152209
0.0408962
-0.0140366
0.0445071
-0.0126823
0.0476426
-0.0111439
0.0502641
-0.00940419
0.0523388
-0.00744405
0.0538403
-0.00524266
0.0547456
-0.00277613
0.0550302
-1.1807e-05
0.0546659
0.00309719
0.0536235
0.00658815
0.0518366
0.0104258
0.0490739
0.014485
0.0448936
0.0185175
0.0389913
0.0219649
0.0315486
0.0241309
0.0231808
0.0248193
0.0144478
0.0245494
0.00563445
0.0240357
-0.00317616
0.023758
-0.0119741
0.0238908
-0.0207068
0.0243308
-0.0291546
0.024679
-0.0368255
0.0242563
-0.0430751
0.0224292
-0.0475878
0.0192056
-0.0505719
0.0152114
-0.0524797
0.0110876
-0.0535994
0.00714218
-0.0540217
0.00352249
-0.0537784
0.000286327
-0.0528979
-0.00259213
-0.0514063
-0.00516009
-0.049327
-0.00745102
-0.046687
-0.00948808
-0.0435199
-0.0112911
-0.0398656
-0.0128787
-0.03577
-0.0142682
-0.0312836
-0.0154741
-0.0264598
-0.0165069
-0.0213547
-0.0173717
-0.0160251
-0.0180685
-0.0105288
-0.0185931
-0.00492339
-0.0189395
0.000732821
-0.0191022
0.00638146
-0.0190779
0.0119642
-0.0188673
0.0174229
-0.0184743
0.0226999
-0.0179046
0.0277376
-0.017164
0.0324794
-0.0162559
0.0368697
-0.015179
0.0408556
-0.0139267
0.0443879
-0.0124873
0.0474221
-0.0108455
0.0499197
-0.00898354
0.051849
-0.0068825
0.0531844
-0.00452206
0.0539022
-0.00187731
0.0539756
0.00108911
0.053376
0.00442471
0.052066
0.00813844
0.0499176
0.0121477
0.0465789
0.0162795
0.041617
0.020148
0.0349464
0.0230513
0.0270122
0.0244816
0.018455
0.0246321
0.00969334
0.024204
0.000890717
0.0238184
-0.00792254
0.0237934
-0.0167288
0.0241604
-0.0254055
0.0246697
-0.0335966
0.0247623
-0.0406882
0.0237154
-0.046138
0.0211699
-0.0499068
0.0174977
-0.0523793
0.0134197
-0.05396
0.00940145
-0.054823
0.00564486
-0.055016
0.00225363
-0.0545676
-0.000760908
-0.0535053
-0.00344407
-0.0518526
-0.00583926
-0.0496329
-0.00797604
-0.0468744
-0.00987709
-0.0436113
-0.0115628
-0.0398838
-0.0130518
-0.0357365
-0.0143607
-0.031218
-0.0155027
-0.0263795
-0.0164861
-0.0212739
-0.0173138
-0.0159551
-0.0179835
-0.0104776
-0.0184893
-0.00489634
-0.018824
-0.0189812
0.00641687
-0.0246338
0.0120198
-0.0243566
0.0174856
-0.0238395
0.0227513
-0.0230903
0.0277559
-0.0221179
0.0324408
-0.02093
0.0367509
-0.019531
0.0406353
-0.017921
0.0440485
-0.0160954
0.0469502
-0.0140455
0.0493057
-0.0117597
0.0510855
-0.00922382
0.0522643
-0.0064215
0.0528213
-0.00333315
0.0527432
6.63131e-05
0.052034
0.0038064
0.0507185
0.00790365
0.0488114
0.0123329
0.0462702
0.0170263
0.0429328
0.0218549
0.0383883
0.0265094
0.0321409
0.0303783
0.0242576
0.0327025
0.015376
0.0334311
0.00606421
0.0333474
-0.00336611
0.0331883
-0.0127113
0.0332359
-0.021706
0.0333256
-0.0298575
0.0328305
-0.0364945
0.0308932
-0.0413697
0.0273045
-0.0448901
0.022726
-0.0475326
0.0178539
-0.0495068
0.0130618
-0.0508752
0.00851054
-0.0516316
0.00427895
-0.0517496
0.000404267
-0.0512202
-0.00312146
-0.050055
-0.00632532
-0.0482747
-0.00923133
-0.045905
-0.0118578
-0.0429766
-0.0142196
-0.0395255
-0.0163298
-0.0355941
-0.0181996
-0.0312307
-0.0198376
-0.0264891
-0.0212485
-0.0214279
-0.022433
-0.0161092
-0.0233873
-0.0105975
-0.0241048
-0.00495923
-0.0245778
0.000738247
-0.0247997
0.00642691
-0.0247666
0.0120388
-0.0244793
0.0175069
-0.0239423
0.0227651
-0.0231628
0.0277494
-0.0221483
0.0323985
-0.020905
0.036655
-0.0194355
0.0404664
-0.017738
0.0437859
-0.0158068
0.0465728
-0.0136324
0.0487925
-0.0112032
0.0504157
-0.00850568
0.0514178
-0.0055242
0.0517798
-0.0022393
0.0514944
0.00137454
0.0505765
0.00534256
0.0490524
0.00966254
0.0469147
0.0142855
0.0440739
0.0191203
0.0402587
0.0239632
0.0349442
0.0283658
0.0278612
0.0315647
0.0194275
0.0330658
0.0103063
0.0333252
0.000919088
0.0332056
-0.00850127
0.0332137
-0.0177397
0.0333988
-0.0264282
0.0333581
-0.0339351
0.0322693
-0.0397168
0.0294971
-0.0438919
0.025345
-0.0469955
0.0206012
-0.0493631
0.0157874
-0.0511155
0.0111538
-0.0522763
0.00680565
-0.0528234
0.00280073
-0.052736
-0.000848292
-0.0520157
-0.00416438
-0.0506785
-0.00717649
-0.0487465
-0.00990807
-0.0462459
-0.0123777
-0.0432076
-0.014601
-0.0396678
-0.0165916
-0.035668
-0.0183605
-0.0312553
-0.0199154
-0.0264817
-0.0212597
-0.0214034
-0.0223921
-0.0160797
-0.0233072
-0.0105721
-0.0239969
-0.00494392
-0.0244522
-0.0246658
0.00630198
-0.030208
0.0117959
-0.0298506
0.0171395
-0.0291831
0.0222649
-0.0282157
0.0271071
-0.0269601
0.0316052
-0.0254281
0.0357031
-0.0236289
0.0393508
-0.0215686
0.0425044
-0.019249
0.0451268
-0.016668
0.0471868
-0.0138197
0.0486588
-0.0106958
0.0495221
-0.00728481
0.0497621
-0.0035732
0.0493738
0.000454662
0.0483678
0.00481239
0.0467726
0.00949885
0.0446228
0.0144827
0.0419474
0.0197017
0.0387401
0.0250622
0.0348486
0.0304009
0.0298545
0.0353724
0.0232452
0.0393118
0.015097
0.0415793
0.0060438
0.0424006
-0.0033103
0.0425424
-0.0124737
0.0423994
-0.0208875
0.0417394
-0.0278859
0.0398289
-0.0332067
0.0362141
-0.0372723
0.0313701
-0.040567
0.0260206
-0.0433008
0.0205878
-0.0455023
0.0152633
-0.0471457
0.0101539
-0.0481962
0.00532947
-0.0486227
0.000830771
-0.0484106
-0.00333359
-0.0475628
-0.00717312
-0.0460933
-0.0107007
-0.0440232
-0.0139279
-0.0413789
-0.0168639
-0.0381931
-0.0195156
-0.034505
-0.0218877
-0.030361
-0.0239816
-0.0258142
-0.0257953
-0.0209241
-0.0273231
-0.0157552
-0.0285562
-0.0103762
-0.0294838
-0.00485886
-0.0300952
0.000723366
-0.0303819
0.00629593
-0.0303392
0.0117845
-0.0299678
0.0171158
-0.0292736
0.022219
-0.0282659
0.0270263
-0.0269556
0.0314742
-0.025353
0.035505
-0.0234662
0.0390671
-0.0213002
0.0421162
-0.0188558
0.0446146
-0.0161309
0.0465315
-0.0131201
0.0478416
-0.00981579
0.0485256
-0.00620826
0.0485719
-0.00228555
0.0479813
0.0019651
0.0467736
0.00655026
0.0449823
0.0114538
0.042641
0.0166269
0.0397691
0.0219921
0.0363054
0.0274269
0.0319711
0.0327
0.0262331
0.0373027
0.0188136
0.0404852
0.010142
0.0419968
0.000881658
0.042466
-0.00844296
0.0425383
-0.0173266
0.0422825
-0.0251247
0.0411563
-0.0312899
0.0384345
-0.0359419
0.0341492
-0.0396274
0.0290305
-0.0426904
0.0236642
-0.0452313
0.0183283
-0.0472403
0.0131628
-0.0486858
0.00825121
-0.0495335
0.00364843
-0.0497589
-0.000622938
-0.0493559
-0.0045674
-0.0483327
-0.0081997
-0.0467057
-0.0115351
-0.0444967
-0.0145866
-0.0417329
-0.0173648
-0.038447
-0.0198776
-0.0346777
-0.0221297
-0.0304706
-0.0241225
-0.0258774
-0.0258529
-0.0209555
-0.0273141
-0.0157669
-0.0284958
-0.0103775
-0.0293862
-0.00485588
-0.0299738
-0.0302494
0.00604251
-0.0355526
0.0113024
-0.0351105
0.0164045
-0.0342851
0.021278
-0.0330893
0.0258566
-0.0315387
0.0300787
-0.0296502
0.033889
-0.0274392
0.037239
-0.0249187
0.0400876
-0.0220976
0.0424006
-0.018981
0.0441506
-0.0155698
0.0453165
-0.0118616
0.0458831
-0.0078514
0.0458424
-0.00353251
0.0451962
0.00110088
0.0439595
0.00604902
0.0421612
0.0112971
0.0398373
0.0168066
0.0370255
0.0225135
0.033759
0.0283288
0.0300323
0.0341276
0.0256909
0.0397138
0.020317
0.0446857
0.0135152
0.048381
0.00551296
0.0504029
-0.00297798
0.0510333
-0.0111683
0.0505897
-0.0183038
0.0488749
-0.023992
0.045517
-0.0285082
0.0407302
-0.0323178
0.0351797
-0.0356392
0.0293421
-0.0384996
0.0234481
-0.0408702
0.0176339
-0.0427128
0.0119965
-0.0439905
0.00660715
-0.044672
0.00151229
-0.0447393
-0.00326629
-0.0441887
-0.00772377
-0.0430273
-0.0118621
-0.0412704
-0.0156848
-0.0389399
-0.0191943
-0.0360647
-0.0223908
-0.0326807
-0.0252716
-0.0288318
-0.0278305
-0.0245694
-0.0300577
-0.0199521
-0.0319404
-0.0150452
-0.0334631
-0.00991885
-0.0346101
-0.0046475
-0.0353666
0.000691934
-0.0357213
0.00602122
-0.0356685
0.0112623
-0.0352089
0.0163388
-0.0343502
0.0211774
-0.0331044
0.0257088
-0.031487
0.0298695
-0.0295137
0.0336026
-0.0271994
0.0368587
-0.0245563
0.039596
-0.0215931
0.0417804
-0.0183153
0.0433849
-0.0147245
0.0443892
-0.0108201
0.04478
-0.00659909
0.0445526
-0.00205816
0.0437142
0.00280354
0.0422866
0.00797784
0.0403033
0.0134371
0.0378021
0.0191281
0.0348204
0.0249738
0.0313793
0.0308681
0.0274188
0.0366605
0.0226493
0.0420722
0.0165863
0.0465483
0.00911542
0.0494677
0.000771615
0.0508098
-0.00766814
0.0509781
-0.0154168
0.0500311
-0.0218403
0.0475797
-0.0268951
0.0434893
-0.0310471
0.0383011
-0.0346488
0.0326323
-0.0377993
0.0268147
-0.0404881
0.0210171
-0.0426792
0.0153539
-0.0443349
0.00990695
-0.0454204
0.00473396
-0.0459101
-0.000133255
-0.0457926
-0.00468486
-0.0450692
-0.00892317
-0.0437497
-0.0128545
-0.041851
-0.0164853
-0.0393959
-0.01982
-0.0364133
-0.0228601
-0.0329393
-0.0256038
-0.029017
-0.0280449
-0.0246965
-0.0301733
-0.0200351
-0.0319755
-0.0150955
-0.0334354
-0.00994545
-0.0345363
-0.00465636
-0.0352629
-0.0356037
0.00566557
-0.0405635
0.0105902
-0.0400351
0.0153541
-0.039049
0.0198861
-0.0376213
0.02412
-0.0357725
0.0279953
-0.0335254
0.0314586
-0.0309025
0.0344642
-0.0279242
0.036974
-0.0246075
0.0389579
-0.0209649
0.0403929
-0.0170047
0.0412628
-0.0127315
0.0415584
-0.00814698
0.0412778
-0.00325192
0.0404283
0.00195038
0.039028
0.00744926
0.0371059
0.0132193
0.034698
0.0192145
0.0318445
0.025367
0.0285867
0.0315866
0.0249563
0.037758
0.0209417
0.0437283
0.0163846
0.0492429
0.0109497
0.0538159
0.00452723
0.0568254
-0.00239699
0.0579575
-0.00900844
0.0572011
-0.0146925
0.054559
-0.0194154
0.0502399
-0.0235098
0.0448245
-0.027189
0.038859
-0.0304895
0.0326426
-0.0333844
0.026343
-0.0358332
0.0200826
-0.0377947
0.013958
-0.0392313
0.00804379
-0.0401122
0.00239316
-0.0404169
-0.00296162
-0.0401364
-0.00800421
-0.0392718
-0.0127267
-0.0378324
-0.0171243
-0.0358348
-0.0211919
-0.0333034
-0.0249223
-0.0302701
-0.0283048
-0.0267755
-0.0313252
-0.022868
-0.0339651
-0.0186046
-0.0362038
-0.0140491
-0.0380187
-0.00927154
-0.0393876
-0.00434678
-0.0402913
0.000647181
-0.0407153
0.00563083
-0.0406521
0.0105249
-0.040103
0.0152519
-0.0390772
0.0197383
-0.0375908
0.0239155
-0.0356641
0.0277211
-0.0333194
0.0311007
-0.0305789
0.0340075
-0.0274631
0.0364034
-0.0239891
0.0382584
-0.0201703
0.0395503
-0.0160164
0.0402641
-0.0115339
0.0403926
-0.00672765
0.0399373
-0.00160287
0.03891
0.00383091
0.0373339
0.00955388
0.0352423
0.0155287
0.0326737
0.0216967
0.02967
0.0279775
0.0262696
0.0342684
0.0224911
0.0404391
0.0182636
0.0462996
0.0133192
0.0514927
0.00736536
0.0554215
0.000596531
0.0575786
-0.00627116
0.0578458
-0.0124602
0.0562202
-0.0176365
0.0527561
-0.0220248
0.0478775
-0.0259328
0.0422091
-0.0294684
0.0361679
-0.032625
0.0299713
-0.0353668
0.0237589
-0.0376523
0.0176394
-0.0394421
0.0116968
-0.0407016
0.00599346
-0.0414045
0.000569615
-0.0415356
-0.00455376
-0.0410902
-0.00936856
-0.0400722
-0.0138725
-0.0384927
-0.0180648
-0.0363695
-0.0219431
-0.0337276
-0.0255021
-0.030599
-0.0287324
-0.0270238
-0.0316201
-0.0230498
-0.0341473
-0.0187323
-0.036293
-0.0141333
-0.0380344
-0.0093206
-0.039349
-0.00436624
-0.0402173
-0.0406246
0.00519325
-0.0451564
0.00970052
-0.0445424
0.0140485
-0.043397
0.0181672
-0.04174
0.0219921
-0.0395975
0.0254654
-0.0369987
0.0285367
-0.0339738
0.0311637
-0.0305513
0.0333126
-0.0267563
0.0349576
-0.0226098
0.0360807
-0.0181278
0.0366712
-0.013322
0.0367256
-0.00820145
0.0362481
-0.00277444
0.0352511
0.00294744
0.0337559
0.00894441
0.0317929
0.0151823
0.0293988
0.0216086
0.0266157
0.02815
0.0234898
0.0347126
0.0200684
0.0411794
0.0163926
0.0474041
0.0124591
0.0531764
0.00815552
0.0581195
0.00336288
0.061618
-0.00172139
0.0630418
-0.00661923
0.062099
-0.0110316
0.0589713
-0.0150228
0.0542312
-0.0187302
0.048532
-0.0221798
0.0423086
-0.0253359
0.0357987
-0.0281509
0.029158
-0.0305777
0.0225095
-0.032573
0.0159533
-0.0340982
0.00956903
-0.0351215
0.00341639
-0.0356194
-0.00246373
-0.0355781
-0.00804546
-0.0349929
-0.013312
-0.0338669
-0.0182503
-0.0322113
-0.0228474
-0.0300453
-0.0270883
-0.0273963
-0.0309539
-0.0243004
-0.034421
-0.0208027
-0.0374629
-0.0169567
-0.0400499
-0.0128236
-0.0421517
-0.00847167
-0.0437396
-0.00397423
-0.0447888
0.000591719
-0.0452812
0.00514745
-0.0452078
0.0096145
-0.04457
0.0139166
-0.0433794
0.0179817
-0.0416559
0.0217431
-0.0394256
0.0251416
-0.0367178
0.0281257
-0.033563
0.0306528
-0.0299901
0.0326888
-0.0260252
0.0342087
-0.0216902
0.0351954
-0.017003
0.0356397
-0.0119782
0.0355405
-0.00662841
0.0349048
-0.000967172
0.0337488
0.00498685
0.0320984
0.0112043
0.0299873
0.0176398
0.0274554
0.0242286
0.0245473
0.0308856
0.0213105
0.0375052
0.0177918
0.0439578
0.0140176
0.0500738
0.00993372
0.0555767
0.00538984
0.0599654
0.000399789
0.0625687
-0.00464996
0.0628955
-0.00931742
0.0608877
-0.0135084
0.056947
-0.0173692
0.0517384
-0.0209816
0.0458215
-0.0243309
0.0395172
-0.0273724
0.0330128
-0.0300588
0.0264453
-0.0323447
0.0199254
-0.0341895
0.0135416
-0.0355578
0.00736172
-0.0364215
0.00143328
-0.0367615
-0.00421374
-0.0365677
-0.0095623
-0.0358382
-0.0146021
-0.0345781
-0.0193249
-0.0328
-0.0237212
-0.030524
-0.0277781
-0.0277778
-0.0314785
-0.0245976
-0.0348003
-0.0210277
-0.0377173
-0.0171204
-0.0402002
-0.0129356
-0.0422192
-0.00853932
-0.0437453
-0.00400255
-0.0447541
-0.0452275
0.00464371
-0.0492631
0.00866742
-0.0485661
0.012537
-0.0472665
0.0161854
-0.0453884
0.0195514
-0.0429634
0.0225806
-0.0400279
0.0252267
-0.03662
0.027452
-0.0327766
0.0292272
-0.0285316
0.0305316
-0.0239142
0.0313525
-0.0189487
0.0316849
-0.0136544
0.0315311
-0.00804765
0.0309009
-0.00214425
0.0298118
0.00403658
0.0282891
0.0104671
0.0263658
0.0171056
0.0240813
0.0238931
0.0214811
0.0307503
0.0186166
0.037577
0.0155469
0.0442492
0.0123384
0.0506126
0.00905675
0.056458
0.0057293
0.061447
0.00232789
0.0650194
-0.00113153
0.0665012
-0.00454957
0.065517
-0.00788188
0.0623036
-0.0111573
0.0575066
-0.014364
0.0517386
-0.0174409
0.0453855
-0.0203196
0.0386774
-0.022939
0.0317774
-0.0252453
0.0248158
-0.0271914
0.0178994
-0.0287362
0.0111138
-0.029845
0.00452523
-0.0304909
-0.00181787
-0.030655
-0.00788131
-0.0303269
-0.0136401
-0.0295039
-0.0190733
-0.0281913
-0.02416
-0.0264027
-0.0288768
-0.0241605
-0.0331961
-0.0214959
-0.0370856
-0.0184492
-0.0405095
-0.0150698
-0.0434293
-0.0114151
-0.0458064
-0.00754978
-0.0476049
-0.00354413
-0.0487944
0.000527682
-0.049353
0.00458962
-0.0492698
0.00856595
-0.0485463
0.0123833
-0.0471967
0.0159727
-0.0452453
0.0192711
-0.042724
0.0222233
-0.0396699
0.024782
-0.0361218
0.0269094
-0.0321175
0.0285764
-0.0276922
0.0297632
-0.0228769
0.0304582
-0.0176981
0.0306583
-0.0121783
0.030368
-0.00633814
0.0296001
-0.000199253
0.0283754
0.00621154
0.026723
0.0128567
0.0246793
0.0196835
0.022287
0.0266209
0.019595
0.0335777
0.0166586
0.0404416
0.0135412
0.0470751
0.0103121
0.0533029
0.00702364
0.0588651
0.00367111
0.0633179
0.000233484
0.0660063
-0.00321877
0.0663478
-0.00659814
0.064267
-0.00991249
0.0602614
-0.0131801
0.055006
-0.0163593
0.0490006
-0.0193819
0.0425398
-0.0221831
0.035814
-0.0247061
0.0289682
-0.0269008
0.0221201
-0.0287236
0.0153643
-0.0301364
0.00877456
-0.0311084
0.00240523
-0.031616
-0.00370605
-0.0316441
-0.00953427
-0.0311846
-0.0150616
-0.0302372
-0.0202723
-0.0288088
-0.0251495
-0.0269142
-0.0296727
-0.0245763
-0.0338164
-0.0218266
-0.0375501
-0.018705
-0.0408388
-0.01526
-0.0436452
-0.0115479
-0.0459313
-0.00763158
-0.0476616
-0.0035793
-0.0488063
-0.0493438
0.00403165
-0.0528283
0.00751842
-0.0520529
0.0108598
-0.0506079
0.013993
-0.0485216
0.0168613
-0.0458317
0.0194151
-0.0425818
0.0216131
-0.038818
0.0234225
-0.034586
0.0248193
-0.0299284
0.0257881
-0.0248831
0.0263217
-0.0194823
0.0264207
-0.0137534
0.0260931
-0.00772005
0.0253542
-0.00140531
0.0242264
0.00516441
0.0227393
0.0119541
0.0209296
0.0189154
0.01884
0.0259827
0.01652
0.0330704
0.0140266
0.0400704
0.0114265
0.0468493
0.00879856
0.0532405
0.00623219
0.0590244
0.00380282
0.0638763
0.00152124
0.067301
-0.000686771
0.0687092
-0.00293622
0.0677665
-0.00531674
0.0646841
-0.00783917
0.0600291
-0.0104384
0.0543378
-0.0130243
0.0479714
-0.0155141
0.0411672
-0.017838
0.0341013
-0.0199364
0.0269143
-0.0217579
0.0197208
-0.0232577
0.0126136
-0.0243978
0.00566526
-0.0251468
-0.00106883
-0.0254811
-0.00754697
-0.0253847
-0.0137366
-0.024849
-0.019609
-0.0238737
-0.0251353
-0.0224667
-0.0302838
-0.0206448
-0.035018
-0.0184338
-0.0392967
-0.0158686
-0.0430747
-0.0129934
-0.0463045
-0.00986075
-0.0489391
-0.00653035
-0.0509353
-0.00306794
-0.0522568
0.00045678
-0.0528778
0.00397221
-0.0527852
0.00740701
-0.0519811
0.0106923
-0.050482
0.0137638
-0.0483168
0.0165634
-0.0455236
0.0190408
-0.0421473
0.0211541
-0.0382351
0.0228707
-0.0338341
0.0241671
-0.0289886
0.0250289
-0.0237388
0.0254505
-0.0181196
0.0254343
-0.012162
0.0249907
-0.00589454
0.0241378
0.000653642
0.0229013
0.00744805
0.0213142
0.0144438
0.0194164
0.0215813
0.0172543
0.028783
0.0148812
0.0359507
0.0123593
0.0429635
0.0097615
0.0496729
0.00717371
0.0558907
0.00468415
0.0613547
0.0023425
0.0656595
0.00011459
0.0682342
-0.00210199
0.0685644
-0.00441777
0.0665828
-0.00688721
0.0627308
-0.00947807
0.0575969
-0.0121071
0.0516296
-0.0146865
0.0451192
-0.0171409
0.0382683
-0.0194062
0.0312336
-0.0214275
0.0241415
-0.0231573
0.017094
-0.0245541
0.0101714
-0.0255834
0.00343452
-0.0262173
-0.00307219
-0.0264351
-0.00931642
-0.0262236
-0.0152731
-0.0255766
-0.0209193
-0.0244954
-0.0262307
-0.0229895
-0.0311787
-0.0210763
-0.0357295
-0.0187823
-0.0398441
-0.0161423
-0.0434788
-0.0132001
-0.0465875
-0.010007
-0.0491243
-0.00662157
-0.051047
-0.00310782
-0.0523201
-0.052918
0.00336889
-0.0558072
0.00627569
-0.0549597
0.00904903
-0.0533812
0.0116319
-0.0511045
0.0139731
-0.048173
0.016029
-0.0446377
0.0177638
-0.0405528
0.0191505
-0.0359726
0.0201704
-0.0309484
0.0208138
-0.0255264
0.0210788
-0.0197473
0.0209713
-0.013646
0.0205048
-0.00725347
0.0196994
-0.000599923
0.0185823
0.00628145
0.0171874
0.013349
0.0155545
0.0205483
0.0137296
0.0278075
0.0117653
0.0350347
0.00972161
0.0421141
0.00766766
0.0489032
0.00568318
0.055225
0.00385537
0.0608522
0.00225697
0.0654747
0.000891494
0.0686665
-0.000355088
0.0699558
-0.00167204
0.0690834
-0.0032007
0.0662128
-0.00496416
0.0617925
-0.00689997
0.0562736
-0.00892056
0.049992
-0.0109432
0.0431898
-0.0128957
0.0360538
-0.0147156
0.0287342
-0.0163484
0.0213536
-0.0177461
0.0140114
-0.0188673
0.00678644
-0.0196767
-0.000259448
-0.0201459
-0.00707778
-0.0202537
-0.0136288
-0.0199862
-0.0198764
-0.0193376
-0.0257839
-0.0183101
-0.0313113
-0.0169148
-0.0364133
-0.0151716
-0.0410399
-0.0131096
-0.0451366
-0.010767
-0.0486471
-0.00819018
-0.0515159
-0.00543289
-0.0536926
-0.00255481
-0.0551349
0.000380374
-0.0558129
0.00330703
-0.0557119
0.00615983
-0.0548339
0.00887593
-0.0531981
0.011397
-0.0508378
0.0136711
-0.0477977
0.0156539
-0.04413
0.0173095
-0.0398907
0.0186111
-0.0351357
0.0195412
-0.0299187
0.020091
-0.0242886
0.0202603
-0.018289
0.0200574
-0.0119591
0.0194977
-0.00533492
0.0186046
0.00154678
0.0174082
0.0086445
0.0159453
0.0159067
0.0142592
0.0232674
0.0123994
0.0306428
0.0104224
0.0379277
0.00839294
0.044993
0.00638601
0.0516799
0.00448672
0.05779
0.00278047
0.0630609
0.00131384
0.0671262
3.27665e-05
0.0695153
-0.00122766
0.0698248
-0.00264757
0.0680027
-0.00430981
0.064393
-0.00618652
0.0594736
-0.00819723
0.0536403
-0.0102557
0.0471777
-0.012285
0.0402976
-0.0142185
0.033167
-0.0159983
0.0259212
-0.0175735
0.0186693
-0.0188998
0.0114977
-0.0199388
0.00447351
-0.0206584
-0.00235257
-0.0210332
-0.00894156
-0.0210448
-0.0152615
-0.0206817
-0.0212824
-0.0199399
-0.0269725
-0.0188233
-0.0322953
-0.017344
-0.0372089
-0.0155227
-0.0416654
-0.0133888
-0.0456127
-0.0109801
-0.0489961
-0.00834255
-0.0517619
-0.00552879
-0.0538608
-0.00259721
-0.0552517
-0.0559053
0.00266499
-0.0581634
0.0049571
-0.0572518
0.00713078
-0.0555549
0.00913594
-0.0531096
0.0109283
-0.0499654
0.0124707
-0.0461801
0.0137338
-0.0418158
0.0146964
-0.0369352
0.0153458
-0.0315978
0.0156776
-0.0258582
0.015695
-0.0197647
0.0154089
-0.0133599
0.0148374
-0.00668197
0.0140052
0.00023234
0.0129432
0.00734338
0.0116886
0.0146036
0.0102839
0.021953
0.00877684
0.0293146
0.00722098
0.0365905
0.00567573
0.0436594
0.00420697
0.050372
0.00288619
0.0565458
0.0017845
0.0619539
0.000951385
0.0663079
0.000368263
0.0692496
-9.19883e-05
0.0704161
-0.000625712
0.0696171
-0.00138512
0.0669722
-0.0024135
0.0628209
-0.00367248
0.0575326
-0.00509276
0.0514122
-0.00660158
0.0446986
-0.00813109
0.0375833
-0.0096199
0.030223
-0.0110128
0.0227465
-0.0122602
0.0152588
-0.0133182
0.00784438
-0.0141482
0.000570569
-0.014718
-0.00650799
-0.0150019
-0.0133449
-0.0149813
-0.019897
-0.0146452
-0.02612
-0.0139905
-0.031966
-0.0130224
-0.0373814
-0.011755
-0.0423073
-0.0102111
-0.0466806
-0.00842191
-0.0504362
-0.006427
-0.0535108
-0.00427292
-0.0558467
-0.00201198
-0.0573958
0.000299549
-0.0581245
0.00260353
-0.0580158
0.00484208
-0.0570725
0.00695978
-0.0553158
0.00890564
-0.0527837
0.0106348
-0.0495269
0.0121099
-0.0456051
0.0133016
-0.0410824
0.0141895
-0.0360237
0.0147619
-0.0304911
0.0150157
-0.0245423
0.0149561
-0.0182294
0.0145961
-0.0115991
0.0139562
-0.00469502
0.0130638
0.00243915
0.0119529
0.0097554
0.0106634
0.0171962
0.00924071
0.0246901
0.00773585
0.0321476
0.0062056
0.039458
0.004713
0.0464855
0.00332749
0.0530654
0.00212225
0.0589952
0.00116227
0.0640209
0.000470054
0.0678184
-2.62686e-05
0.0700116
-0.000500631
0.0702991
-0.00114099
0.0686431
-0.00204577
0.0652978
-0.00321053
0.0606384
-0.00457674
0.0550065
-0.00607201
0.048673
-0.00762605
0.0418516
-0.00917465
0.0347156
-0.01066
0.0274065
-0.0120301
0.0200393
-0.0132384
0.0127061
-0.014244
0.00547904
-0.0150111
-0.00158539
-0.0155105
-0.00844219
-0.0157191
-0.0150529
-0.0156206
-0.0213809
-0.0152063
-0.0273868
-0.0144746
-0.033027
-0.0134323
-0.0382512
-0.0120942
-0.0430035
-0.0104836
-0.0472233
-0.00863202
-0.0508477
-0.0065785
-0.0538154
-0.00436898
-0.0560703
-0.00205484
-0.0575658
-0.0582689
0.00192777
-0.0598675
0.00357733
-0.0589013
0.00512635
-0.0571039
0.00653289
-0.0545162
0.00776051
-0.051193
0.00877939
-0.0471989
0.00956706
-0.0426035
0.0101087
-0.0374769
0.0103974
-0.0318865
0.0104338
-0.0258946
0.010226
-0.0195569
0.00978914
-0.012923
0.00914508
-0.00603791
0.00832195
0.00105547
0.00735365
0.00831167
0.00627925
0.015678
0.00514239
0.0230899
0.0039909
0.030466
0.00287661
0.0377048
0.00185489
0.0446811
0.000983698
0.0512432
0.000320771
0.0572087
-8.43191e-05
0.062359
-0.00020951
0.0664331
-9.47297e-05
0.0691348
0.000132668
0.0701887
0.000292266
0.0694575
0.000237419
0.067027
-9.22606e-05
0.0631506
-0.000685904
0.0581263
-0.00149781
0.0522241
-0.00247081
0.0456716
-0.00354624
0.0386588
-0.0046676
0.0313444
-0.0057818
0.0238607
-0.00683964
0.0163167
-0.00779617
0.00880091
-0.00861105
0.00138544
-0.00924918
-0.00586987
-0.00968146
-0.0129126
-0.00988534
-0.0196931
-0.00984529
-0.0261601