/*--------------------------------*- C++ -*----------------------------------*\
| =========                 |                                                 |
| \\      /  F ield         | OpenFOAM: The Open Source CFD Toolbox           |
|  \\    /   O peration     | Version:  2.3.0                                 |
|   \\  /    A nd           | Web:      www.OpenFOAM.org                      |
|    \\/     M anipulation  |                                                 |
\*---------------------------------------------------------------------------*/
FoamFile
{
    version     2.0;
    format      ascii;
    class       surfaceScalarField;
    location    "9000";
    object      phi;
}
// * * * * * * * * * * * * * * * * * * * * * * * * * * * * * * * * * * * * * //

dimensions      [0 3 -1 0 0 0 0];

internalField   nonuniform List<scalar> 
5988
(
3.58738e-08
-3.17301e-08
6.70653e-08
-3.11915e-08
9.72634e-08
-3.0198e-08
1.26045e-07
-2.87819e-08
1.53031e-07
-2.69852e-08
1.77888e-07
-2.48578e-08
2.00342e-07
-2.24538e-08
2.20167e-07
-1.98244e-08
2.3717e-07
-1.70037e-08
2.51159e-07
-1.3989e-08
2.61882e-07
-1.07229e-08
2.68971e-07
-7.08921e-09
2.71904e-07
-2.93276e-09
2.70015e-07
1.88958e-09
2.62602e-07
7.41211e-09
2.49179e-07
1.34237e-08
2.2975e-07
1.94284e-08
2.04963e-07
2.47874e-08
1.76216e-07
2.87474e-08
1.45488e-07
3.07274e-08
1.14757e-07
3.07313e-08
8.56817e-08
2.9075e-08
5.91834e-08
2.64984e-08
3.52819e-08
2.39015e-08
1.32769e-08
2.2005e-08
-7.9386e-09
2.12155e-08
-2.96103e-08
2.16717e-08
-5.29006e-08
2.32903e-08
-7.86395e-08
2.5739e-08
-1.07011e-07
2.83716e-08
-1.37311e-07
3.03001e-08
-1.68017e-07
3.07061e-08
-1.97185e-07
2.91679e-08
-2.22767e-07
2.55816e-08
-2.43167e-07
2.04e-08
-2.57541e-07
1.43737e-08
-2.65722e-07
8.18165e-09
-2.68117e-07
2.39526e-09
-2.65418e-07
-2.6993e-09
-2.58323e-07
-7.09555e-09
-2.47399e-07
-1.09234e-08
-2.33061e-07
-1.4338e-08
-2.15602e-07
-1.74594e-08
-1.95252e-07
-2.03499e-08
-1.72236e-07
-2.30164e-08
-1.46808e-07
-2.54277e-08
-1.19273e-07
-2.75348e-08
-8.99872e-08
-2.92858e-08
-5.93547e-08
-3.06326e-08
-2.78194e-08
-3.15353e-08
4.1441e-09
-3.19635e-08
3.60435e-08
-3.18994e-08
6.73896e-08
-3.13461e-08
9.77148e-08
-3.03253e-08
1.26585e-07
-2.88697e-08
1.53606e-07
-2.70218e-08
1.78437e-07
-2.48309e-08
2.00786e-07
-2.23492e-08
2.20409e-07
-1.96228e-08
2.37084e-07
-1.66751e-08
2.5057e-07
-1.3486e-08
2.60548e-07
-9.97755e-09
2.66565e-07
-6.0173e-09
2.68014e-07
-1.44889e-09
2.64179e-07
3.83465e-09
2.54413e-07
9.76595e-09
2.38436e-07
1.59779e-08
2.1658e-07
2.18556e-08
1.89886e-07
2.66941e-08
1.60119e-07
2.97671e-08
1.29338e-07
3.07809e-08
9.94208e-08
2.99171e-08
7.17025e-08
2.77183e-08
4.66479e-08
2.50546e-08
2.38752e-08
2.27727e-08
2.43954e-09
2.14356e-08
-1.88641e-08
2.13036e-08
-4.12667e-08
2.24026e-08
-6.57991e-08
2.45324e-08
-9.30038e-08
2.72047e-08
-1.22632e-07
2.96282e-08
-1.53543e-07
3.09113e-08
-1.83956e-07
3.04132e-08
-2.11852e-07
2.78959e-08
-2.35352e-07
2.34996e-08
-2.53256e-07
1.79041e-08
-2.65094e-07
1.18382e-08
-2.71011e-07
5.91698e-09
-2.71579e-07
5.67346e-10
-2.67506e-07
-4.07285e-09
-2.59428e-07
-8.07818e-09
-2.47825e-07
-1.16027e-08
-2.3303e-07
-1.47947e-08
-2.15274e-07
-1.77559e-08
-1.94746e-07
-2.05285e-08
-1.71642e-07
-2.31035e-08
-1.46202e-07
-2.54408e-08
-1.18714e-07
-2.74873e-08
-8.95249e-08
-2.91894e-08
-5.90259e-08
-3.04991e-08
-2.76491e-08
-3.13768e-08
-3.17929e-08
5.41534e-08
-7.9639e-08
1.01682e-07
-7.872e-08
1.48509e-07
-7.70249e-08
1.9434e-07
-7.46136e-08
2.3891e-07
-7.15552e-08
2.81959e-07
-6.79065e-08
3.23193e-07
-6.36876e-08
3.62231e-07
-5.88621e-08
3.98554e-07
-5.33275e-08
4.3148e-07
-4.69151e-08
4.6015e-07
-3.93926e-08
4.83524e-07
-3.04631e-08
5.00363e-07
-1.97717e-08
5.09198e-07
-6.94554e-09
5.08365e-07
8.24547e-09
4.96241e-07
2.55477e-08
4.71663e-07
4.40059e-08
4.34378e-07
6.2073e-08
3.8568e-07
7.74451e-08
3.28689e-07
8.77184e-08
2.6727e-07
9.21504e-08
2.05171e-07
9.11736e-08
1.45086e-07
8.65835e-08
8.80618e-08
8.09257e-08
3.36249e-08
7.64418e-08
-1.96567e-08
7.44971e-08
-7.35663e-08
7.55813e-08
-1.29676e-07
7.93996e-08
-1.88755e-07
8.48188e-08
-2.5017e-07
8.97865e-08
-3.11592e-07
9.1722e-08
-3.69429e-07
8.85427e-08
-4.19744e-07
7.94835e-08
-4.59097e-07
6.49341e-08
-4.85733e-07
4.70362e-08
-4.99616e-07
2.82562e-08
-5.01761e-07
1.03274e-08
-4.93755e-07
-5.6115e-09
-4.77311e-07
-1.91433e-08
-4.53977e-07
-3.04288e-08
-4.25072e-07
-3.9829e-08
-3.91704e-07
-4.77055e-08
-3.54796e-07
-5.43677e-08
-3.15084e-07
-6.00617e-08
-2.73131e-07
-6.49693e-08
-2.29354e-07
-6.92045e-08
-1.84076e-07
-7.28133e-08
-1.37578e-07
-7.57832e-08
-9.01473e-08
-7.80638e-08
-4.20901e-08
-7.95924e-08
6.26284e-09
-8.03165e-08
5.45719e-08
-8.02084e-08
1.02498e-07
-7.92724e-08
1.49716e-07
-7.75434e-08
1.95925e-07
-7.50786e-08
2.40843e-07
-7.19397e-08
2.84182e-07
-6.81697e-08
3.256e-07
-6.37675e-08
3.64647e-07
-5.86698e-08
4.00717e-07
-5.27449e-08
4.33025e-07
-4.57939e-08
4.60602e-07
-3.75543e-08
4.82285e-07
-2.77011e-08
4.96702e-07
-1.58658e-08
5.02246e-07
-1.70921e-09
4.97194e-07
1.48178e-08
4.8007e-07
3.31022e-08
4.50075e-07
5.18512e-08
4.07628e-07
6.91411e-08
3.54991e-07
8.2404e-08
2.95839e-07
8.9932e-08
2.34113e-07
9.16434e-08
1.73148e-07
8.86833e-08
1.14843e-07
8.33594e-08
5.94211e-08
7.81949e-08
5.84179e-09
7.5015e-08
-4.75747e-08
7.47201e-08
-1.02574e-07
7.74021e-08
-1.60402e-07
8.23597e-08
-2.2118e-07
8.7983e-08
-2.83417e-07
9.1865e-08
-3.44069e-07
9.15633e-08
-3.99271e-07
8.56159e-08
-4.45242e-07
7.38662e-08
-4.79277e-07
5.75352e-08
-5.0055e-07
3.91765e-08
-5.09602e-07
2.08907e-08
-5.07757e-07
4.07155e-09
-4.96686e-07
-1.05031e-08
-4.78017e-07
-2.27419e-08
-4.53155e-07
-3.29398e-08
-4.23286e-07
-4.14722e-08
-3.894e-07
-4.86805e-08
-3.52311e-07
-5.48451e-08
-3.12658e-07
-6.01818e-08
-2.70919e-07
-6.48423e-08
-2.27448e-07
-6.89118e-08
-1.82525e-07
-7.24106e-08
-1.36407e-07
-7.53069e-08
-8.93679e-08
-7.75383e-08
-4.17085e-08
-7.90362e-08
-7.97458e-08
6.0715e-08
-1.33351e-07
1.13936e-07
-1.31941e-07
1.66234e-07
-1.29323e-07
2.17181e-07
-1.25561e-07
2.66347e-07
-1.20721e-07
3.13288e-07
-1.14848e-07
3.57543e-07
-1.07942e-07
3.9862e-07
-9.99395e-08
4.36006e-07
-9.07137e-08
4.69175e-07
-8.00835e-08
4.97609e-07
-6.78272e-08
5.2084e-07
-5.36932e-08
5.3848e-07
-3.74121e-08
5.50243e-07
-1.87083e-08
5.5576e-07
2.72838e-09
5.53979e-07
2.73288e-08
5.42527e-07
5.54575e-08
5.18211e-07
8.63893e-08
4.78432e-07
1.17224e-07
4.22778e-07
1.43373e-07
3.54303e-07
1.60625e-07
2.78595e-07
1.66882e-07
2.00664e-07
1.64515e-07
1.23425e-07
1.58164e-07
4.76431e-08
1.52224e-07
-2.73332e-08
1.49473e-07
-1.0268e-07
1.50928e-07
-1.79262e-07
1.55981e-07
-2.56755e-07
1.62312e-07
-3.32822e-07
1.65854e-07
-4.02897e-07
1.61797e-07
-4.61283e-07
1.46929e-07
-5.04073e-07
1.22273e-07
-5.30937e-07
9.17978e-08
-5.44125e-07
6.02247e-08
-5.4687e-07
3.10012e-08
-5.4184e-07
5.29701e-09
-5.30334e-07
-1.7117e-08
-5.12793e-07
-3.66842e-08
-4.89505e-07
-5.37174e-08
-4.60852e-07
-6.84813e-08
-4.27319e-07
-8.12391e-08
-3.89442e-07
-9.22446e-08
-3.47777e-07
-1.01727e-07
-3.0287e-07
-1.09877e-07
-2.55242e-07
-1.16832e-07
-2.0539e-07
-1.22666e-07
-1.53783e-07
-1.2739e-07
-1.00879e-07
-1.30968e-07
-4.71296e-08
-1.33342e-07
7.01363e-09
-1.3446e-07
6.10983e-08
-1.34293e-07
1.14672e-07
-1.32846e-07
1.67284e-07
-1.30155e-07
2.18481e-07
-1.26276e-07
2.67804e-07
-1.21263e-07
3.14776e-07
-1.15142e-07
3.58895e-07
-1.07887e-07
3.99632e-07
-9.94072e-08
4.36438e-07
-8.95501e-08
4.68757e-07
-7.81132e-08
4.96062e-07
-6.48597e-08
5.17893e-07
-4.9532e-08
5.33894e-07
-3.18665e-08
5.43779e-07
-1.15945e-08
5.46972e-07
1.16253e-08
5.41823e-07
3.82507e-08
5.2539e-07
6.82843e-08
4.94537e-07
9.99939e-08
4.47534e-07
1.29408e-07
3.85604e-07
1.51862e-07
3.13441e-07
1.63806e-07
2.3665e-07
1.65475e-07
1.5926e-07
1.60749e-07
8.30317e-08
1.54424e-07
7.88907e-09
1.50158e-07
-6.71917e-08
1.49801e-07
-1.43331e-07
1.53541e-07
-2.20901e-07
1.5993e-07
-2.9863e-07
1.65712e-07
-3.73004e-07
1.66239e-07
-4.38642e-07
1.57202e-07
-4.90314e-07
1.37288e-07
-5.25921e-07
1.09473e-07
-5.46593e-07
7.82072e-08
-5.55235e-07
4.7819e-08
-5.5495e-07
2.06055e-08
-5.47754e-07
-3.12468e-09
-5.3444e-07
-2.38173e-08
-5.15316e-07
-4.18658e-08
-4.90692e-07
-5.7564e-08
-4.60978e-07
-7.11856e-08
-4.26662e-07
-8.29967e-08
-3.88265e-07
-9.32423e-08
-3.46312e-07
-1.02135e-07
-3.01312e-07
-1.09842e-07
-2.53748e-07
-1.16476e-07
-2.04077e-07
-1.22082e-07
-1.52736e-07
-1.26647e-07
-1.00156e-07
-1.30118e-07
-4.67659e-08
-1.32427e-07
-1.33515e-07
6.35587e-08
-1.89576e-07
1.19155e-07
-1.87537e-07
1.73569e-07
-1.83738e-07
2.26254e-07
-1.78246e-07
2.76666e-07
-1.71133e-07
3.24269e-07
-1.62451e-07
3.68536e-07
-1.52209e-07
4.08962e-07
-1.40366e-07
4.45071e-07
-1.26823e-07
4.76426e-07
-1.11439e-07
5.02641e-07
-9.40419e-08
5.23388e-07
-7.44405e-08
5.38403e-07
-5.24266e-08
5.47456e-07
-2.77613e-08
5.50302e-07
-1.1807e-10
5.46659e-07
3.09719e-08
5.36235e-07
6.58815e-08
5.18366e-07
1.04258e-07
4.90739e-07
1.4485e-07
4.48936e-07
1.85175e-07
3.89913e-07
2.19649e-07
3.15486e-07
2.41309e-07
2.31808e-07
2.48193e-07
1.44478e-07
2.45494e-07
5.63445e-08
2.40357e-07
-3.17616e-08
2.3758e-07
-1.19741e-07
2.38908e-07
-2.07068e-07
2.43308e-07
-2.91546e-07
2.4679e-07
-3.68255e-07
2.42563e-07
-4.30751e-07
2.24292e-07
-4.75878e-07
1.92056e-07
-5.05719e-07
1.52114e-07
-5.24797e-07
1.10876e-07
-5.35994e-07
7.14218e-08
-5.40217e-07
3.52249e-08
-5.37784e-07
2.86327e-09
-5.28979e-07
-2.59213e-08
-5.14063e-07
-5.16009e-08
-4.9327e-07
-7.45102e-08
-4.6687e-07
-9.48808e-08
-4.35199e-07
-1.12911e-07
-3.98656e-07
-1.28787e-07
-3.577e-07
-1.42682e-07
-3.12836e-07
-1.54741e-07
-2.64598e-07
-1.65069e-07
-2.13547e-07
-1.73717e-07
-1.60251e-07
-1.80685e-07
-1.05288e-07
-1.85931e-07
-4.92339e-08
-1.89395e-07
7.32821e-09
-1.91022e-07
6.38146e-08
-1.90779e-07
1.19642e-07
-1.88673e-07
1.74229e-07
-1.84743e-07
2.26999e-07
-1.79046e-07
2.77376e-07
-1.7164e-07
3.24794e-07
-1.62559e-07
3.68697e-07
-1.5179e-07
4.08556e-07
-1.39267e-07
4.43879e-07
-1.24873e-07
4.74221e-07
-1.08455e-07
4.99197e-07
-8.98354e-08
5.1849e-07
-6.8825e-08
5.31844e-07
-4.52206e-08
5.39022e-07
-1.87731e-08
5.39756e-07
1.08911e-08
5.3376e-07
4.42471e-08
5.2066e-07
8.13844e-08
4.99176e-07
1.21477e-07
4.65789e-07
1.62795e-07
4.1617e-07
2.0148e-07
3.49464e-07
2.30513e-07
2.70122e-07
2.44816e-07
1.8455e-07
2.46321e-07
9.69334e-08
2.4204e-07
8.90717e-09
2.38184e-07
-7.92254e-08
2.37934e-07
-1.67288e-07
2.41604e-07
-2.54055e-07
2.46697e-07
-3.35966e-07
2.47623e-07
-4.06882e-07
2.37154e-07
-4.6138e-07
2.11699e-07
-4.99068e-07
1.74977e-07
-5.23793e-07
1.34197e-07
-5.396e-07
9.40145e-08
-5.4823e-07
5.64486e-08
-5.5016e-07
2.25363e-08
-5.45676e-07
-7.60908e-09
-5.35053e-07
-3.44407e-08
-5.18526e-07
-5.83926e-08
-4.96329e-07
-7.97604e-08
-4.68744e-07
-9.87709e-08
-4.36113e-07
-1.15628e-07
-3.98838e-07
-1.30518e-07
-3.57365e-07
-1.43607e-07
-3.1218e-07
-1.55027e-07
-2.63795e-07
-1.64861e-07
-2.12739e-07
-1.73138e-07
-1.59551e-07
-1.79835e-07
-1.04776e-07
-1.84893e-07
-4.89634e-08
-1.8824e-07
-1.89812e-07
6.41687e-08
-2.46338e-07
1.20198e-07
-2.43566e-07
1.74856e-07
-2.38395e-07
2.27513e-07
-2.30903e-07
2.77559e-07
-2.21179e-07
3.24408e-07
-2.093e-07
3.67509e-07
-1.9531e-07
4.06353e-07
-1.7921e-07
4.40485e-07
-1.60954e-07
4.69502e-07
-1.40455e-07
4.93057e-07
-1.17597e-07
5.10855e-07
-9.22382e-08
5.22643e-07
-6.4215e-08
5.28213e-07
-3.33315e-08
5.27432e-07
6.63131e-10
5.2034e-07
3.8064e-08
5.07185e-07
7.90365e-08
4.88114e-07
1.23329e-07
4.62702e-07
1.70263e-07
4.29328e-07
2.18549e-07
3.83883e-07
2.65094e-07
3.21409e-07
3.03783e-07
2.42576e-07
3.27025e-07
1.5376e-07
3.34311e-07
6.06421e-08
3.33474e-07
-3.36611e-08
3.31883e-07
-1.27113e-07
3.32359e-07
-2.1706e-07
3.33256e-07
-2.98575e-07
3.28305e-07
-3.64945e-07
3.08932e-07
-4.13697e-07
2.73045e-07
-4.48901e-07
2.2726e-07
-4.75326e-07
1.78539e-07
-4.95068e-07
1.30618e-07
-5.08752e-07
8.51054e-08
-5.16316e-07
4.27895e-08
-5.17496e-07
4.04267e-09
-5.12202e-07
-3.12146e-08
-5.0055e-07
-6.32532e-08
-4.82747e-07
-9.23133e-08
-4.5905e-07
-1.18578e-07
-4.29766e-07
-1.42196e-07
-3.95255e-07
-1.63298e-07
-3.55941e-07
-1.81996e-07
-3.12307e-07
-1.98376e-07
-2.64891e-07
-2.12485e-07
-2.14279e-07
-2.2433e-07
-1.61092e-07
-2.33873e-07
-1.05975e-07
-2.41048e-07
-4.95923e-08
-2.45778e-07
7.38247e-09
-2.47997e-07
6.42691e-08
-2.47666e-07
1.20388e-07
-2.44793e-07
1.75069e-07
-2.39423e-07
2.27651e-07
-2.31628e-07
2.77494e-07
-2.21483e-07
3.23985e-07
-2.0905e-07
3.6655e-07
-1.94355e-07
4.04664e-07
-1.7738e-07
4.37859e-07
-1.58068e-07
4.65728e-07
-1.36324e-07
4.87925e-07
-1.12032e-07
5.04157e-07
-8.50568e-08
5.14178e-07
-5.5242e-08
5.17798e-07
-2.2393e-08
5.14944e-07
1.37454e-08
5.05765e-07
5.34256e-08
4.90524e-07
9.66254e-08
4.69147e-07
1.42855e-07
4.40739e-07
1.91203e-07
4.02587e-07
2.39632e-07
3.49442e-07
2.83658e-07
2.78612e-07
3.15647e-07
1.94275e-07
3.30658e-07
1.03063e-07
3.33252e-07
9.19088e-09
3.32056e-07
-8.50127e-08
3.32137e-07
-1.77397e-07
3.33988e-07
-2.64282e-07
3.33581e-07
-3.39351e-07
3.22693e-07
-3.97168e-07
2.94971e-07
-4.38919e-07
2.5345e-07
-4.69955e-07
2.06012e-07
-4.93631e-07
1.57874e-07
-5.11155e-07
1.11538e-07
-5.22763e-07
6.80565e-08
-5.28234e-07
2.80073e-08
-5.2736e-07
-8.48292e-09
-5.20157e-07
-4.16438e-08
-5.06785e-07
-7.17649e-08
-4.87465e-07
-9.90807e-08
-4.62459e-07
-1.23777e-07
-4.32076e-07
-1.4601e-07
-3.96678e-07
-1.65916e-07
-3.5668e-07
-1.83605e-07
-3.12553e-07
-1.99154e-07
-2.64817e-07
-2.12597e-07
-2.14034e-07
-2.23921e-07
-1.60797e-07
-2.33072e-07
-1.05721e-07
-2.39969e-07
-4.94392e-08
-2.44522e-07
-2.46658e-07
6.30198e-08
-3.0208e-07
1.17959e-07
-2.98506e-07
1.71395e-07
-2.91831e-07
2.22649e-07
-2.82157e-07
2.71071e-07
-2.69601e-07
3.16052e-07
-2.54281e-07
3.57031e-07
-2.36289e-07
3.93508e-07
-2.15686e-07
4.25044e-07
-1.9249e-07
4.51268e-07
-1.6668e-07
4.71868e-07
-1.38197e-07
4.86588e-07
-1.06958e-07
4.95221e-07
-7.28481e-08
4.97621e-07
-3.5732e-08
4.93738e-07
4.54662e-09
4.83678e-07
4.81239e-08
4.67726e-07
9.49885e-08
4.46228e-07
1.44827e-07
4.19474e-07
1.97017e-07
3.87401e-07
2.50622e-07
3.48486e-07
3.04009e-07
2.98545e-07
3.53724e-07
2.32452e-07
3.93118e-07
1.5097e-07
4.15793e-07
6.0438e-08
4.24006e-07
-3.3103e-08
4.25424e-07
-1.24737e-07
4.23994e-07
-2.08875e-07
4.17394e-07
-2.78859e-07
3.98289e-07
-3.32067e-07
3.62141e-07
-3.72723e-07
3.13701e-07
-4.0567e-07
2.60206e-07
-4.33008e-07
2.05878e-07
-4.55023e-07
1.52633e-07
-4.71457e-07
1.01539e-07
-4.81962e-07
5.32947e-08
-4.86227e-07
8.30771e-09
-4.84106e-07
-3.33359e-08
-4.75628e-07
-7.17312e-08
-4.60933e-07
-1.07007e-07
-4.40232e-07
-1.39279e-07
-4.13789e-07
-1.68639e-07
-3.81931e-07
-1.95156e-07
-3.4505e-07
-2.18877e-07
-3.0361e-07
-2.39816e-07
-2.58142e-07
-2.57953e-07
-2.09241e-07
-2.73231e-07
-1.57552e-07
-2.85562e-07
-1.03762e-07
-2.94838e-07
-4.85886e-08
-3.00952e-07
7.23366e-09
-3.03819e-07
6.29593e-08
-3.03392e-07
1.17845e-07
-2.99678e-07
1.71158e-07
-2.92736e-07
2.2219e-07
-2.82659e-07
2.70263e-07
-2.69556e-07
3.14742e-07
-2.5353e-07
3.5505e-07
-2.34662e-07
3.90671e-07
-2.13002e-07
4.21162e-07
-1.88558e-07
4.46146e-07
-1.61309e-07
4.65315e-07
-1.31201e-07
4.78416e-07
-9.81579e-08
4.85256e-07
-6.20826e-08
4.85719e-07
-2.28555e-08
4.79813e-07
1.9651e-08
4.67736e-07
6.55026e-08
4.49823e-07
1.14538e-07
4.2641e-07
1.66269e-07
3.97691e-07
2.19921e-07
3.63054e-07
2.74269e-07
3.19711e-07
3.27e-07
2.62331e-07
3.73027e-07
1.88136e-07
4.04852e-07
1.0142e-07
4.19968e-07
8.81658e-09
4.2466e-07
-8.44296e-08
4.25383e-07
-1.73266e-07
4.22825e-07
-2.51247e-07
4.11563e-07
-3.12899e-07
3.84345e-07
-3.59419e-07
3.41492e-07
-3.96274e-07
2.90305e-07
-4.26904e-07
2.36642e-07
-4.52313e-07
1.83283e-07
-4.72403e-07
1.31628e-07
-4.86858e-07
8.25121e-08
-4.95335e-07
3.64843e-08
-4.97589e-07
-6.22938e-09
-4.93559e-07
-4.5674e-08
-4.83327e-07
-8.1997e-08
-4.67057e-07
-1.15351e-07
-4.44967e-07
-1.45866e-07
-4.17329e-07
-1.73648e-07
-3.8447e-07
-1.98776e-07
-3.46777e-07
-2.21297e-07
-3.04706e-07
-2.41225e-07
-2.58774e-07
-2.58529e-07
-2.09555e-07
-2.73141e-07
-1.57669e-07
-2.84958e-07
-1.03775e-07
-2.93862e-07
-4.85588e-08
-2.99738e-07
-3.02494e-07
6.04251e-08
-3.55526e-07
1.13024e-07
-3.51105e-07
1.64045e-07
-3.42851e-07
2.1278e-07
-3.30893e-07
2.58566e-07
-3.15387e-07
3.00787e-07
-2.96502e-07
3.3889e-07
-2.74392e-07
3.7239e-07
-2.49187e-07
4.00876e-07
-2.20976e-07
4.24006e-07
-1.8981e-07
4.41506e-07
-1.55698e-07
4.53165e-07
-1.18616e-07
4.58831e-07
-7.8514e-08
4.58424e-07
-3.53251e-08
4.51962e-07
1.10088e-08
4.39595e-07
6.04902e-08
4.21612e-07
1.12971e-07
3.98373e-07
1.68066e-07
3.70255e-07
2.25135e-07
3.3759e-07
2.83288e-07
3.00323e-07
3.41276e-07
2.56909e-07
3.97138e-07
2.0317e-07
4.46857e-07
1.35152e-07
4.8381e-07
5.51296e-08
5.04029e-07
-2.97798e-08
5.10333e-07
-1.11683e-07
5.05897e-07
-1.83038e-07
4.88749e-07
-2.3992e-07
4.5517e-07
-2.85082e-07
4.07302e-07
-3.23178e-07
3.51797e-07
-3.56392e-07
2.93421e-07
-3.84996e-07
2.34481e-07
-4.08702e-07
1.76339e-07
-4.27128e-07
1.19965e-07
-4.39905e-07
6.60715e-08
-4.4672e-07
1.51229e-08
-4.47393e-07
-3.26629e-08
-4.41887e-07
-7.72377e-08
-4.30273e-07
-1.18621e-07
-4.12704e-07
-1.56848e-07
-3.89399e-07
-1.91943e-07
-3.60647e-07
-2.23908e-07
-3.26807e-07
-2.52716e-07
-2.88318e-07
-2.78305e-07
-2.45694e-07
-3.00577e-07
-1.99521e-07
-3.19404e-07
-1.50452e-07
-3.34631e-07
-9.91885e-08
-3.46101e-07
-4.6475e-08
-3.53666e-07
6.91934e-09
-3.57213e-07
6.02122e-08
-3.56685e-07
1.12623e-07
-3.52089e-07
1.63388e-07
-3.43502e-07
2.11774e-07
-3.31044e-07
2.57088e-07
-3.1487e-07
2.98695e-07
-2.95137e-07
3.36026e-07
-2.71994e-07
3.68587e-07
-2.45563e-07
3.9596e-07
-2.15931e-07
4.17804e-07
-1.83153e-07
4.33849e-07
-1.47245e-07
4.43892e-07
-1.08201e-07
4.478e-07
-6.59909e-08
4.45526e-07
-2.05816e-08
4.37142e-07
2.80354e-08
4.22866e-07
7.97784e-08
4.03033e-07
1.34371e-07
3.78021e-07
1.91281e-07
3.48204e-07
2.49738e-07
3.13793e-07
3.08681e-07
2.74188e-07
3.66605e-07
2.26493e-07
4.20722e-07
1.65863e-07
4.65483e-07
9.11542e-08
4.94677e-07
7.71615e-09
5.08098e-07
-7.66814e-08
5.09781e-07
-1.54168e-07
5.00311e-07
-2.18403e-07
4.75797e-07
-2.68951e-07
4.34893e-07
-3.10471e-07
3.83011e-07
-3.46488e-07
3.26323e-07
-3.77993e-07
2.68147e-07
-4.04881e-07
2.10171e-07
-4.26792e-07
1.53539e-07
-4.43349e-07
9.90695e-08
-4.54204e-07
4.73396e-08
-4.59101e-07
-1.33255e-09
-4.57926e-07
-4.68486e-08
-4.50692e-07
-8.92317e-08
-4.37497e-07
-1.28545e-07
-4.1851e-07
-1.64853e-07
-3.93959e-07
-1.982e-07
-3.64133e-07
-2.28601e-07
-3.29393e-07
-2.56038e-07
-2.9017e-07
-2.80449e-07
-2.46965e-07
-3.01733e-07
-2.00351e-07
-3.19755e-07
-1.50955e-07
-3.34354e-07
-9.94545e-08
-3.45363e-07
-4.65636e-08
-3.52629e-07
-3.56037e-07
5.66557e-08
-4.05635e-07
1.05902e-07
-4.00351e-07
1.53541e-07
-3.9049e-07
1.98861e-07
-3.76213e-07
2.412e-07
-3.57725e-07
2.79953e-07
-3.35254e-07
3.14586e-07
-3.09025e-07
3.44642e-07
-2.79242e-07
3.6974e-07
-2.46075e-07
3.89579e-07
-2.09649e-07
4.03929e-07
-1.70047e-07
4.12628e-07
-1.27315e-07
4.15584e-07
-8.14698e-08
4.12778e-07
-3.25192e-08
4.04283e-07
1.95038e-08
3.9028e-07
7.44926e-08
3.71059e-07
1.32193e-07
3.4698e-07
1.92145e-07
3.18445e-07
2.5367e-07
2.85867e-07
3.15866e-07
2.49563e-07
3.7758e-07
2.09417e-07
4.37283e-07
1.63846e-07
4.92429e-07
1.09497e-07
5.38159e-07
4.52723e-08
5.68254e-07
-2.39699e-08
5.79575e-07
-9.00844e-08
5.72011e-07
-1.46925e-07
5.4559e-07
-1.94154e-07
5.02399e-07
-2.35098e-07
4.48245e-07
-2.7189e-07
3.8859e-07
-3.04895e-07
3.26426e-07
-3.33844e-07
2.6343e-07
-3.58332e-07
2.00826e-07
-3.77947e-07
1.3958e-07
-3.92313e-07
8.04379e-08
-4.01122e-07
2.39316e-08
-4.04169e-07
-2.96162e-08
-4.01364e-07
-8.00421e-08
-3.92718e-07
-1.27267e-07
-3.78324e-07
-1.71243e-07
-3.58348e-07
-2.11919e-07
-3.33034e-07
-2.49223e-07
-3.02701e-07
-2.83048e-07
-2.67755e-07
-3.13252e-07
-2.2868e-07
-3.39651e-07
-1.86046e-07
-3.62038e-07
-1.40491e-07
-3.80187e-07
-9.27154e-08
-3.93876e-07
-4.34678e-08
-4.02913e-07
6.47181e-09
-4.07153e-07
5.63083e-08
-4.06521e-07
1.05249e-07
-4.0103e-07
1.52519e-07
-3.90772e-07
1.97383e-07
-3.75908e-07
2.39155e-07
-3.56641e-07
2.77211e-07
-3.33194e-07
3.11007e-07
-3.05789e-07
3.40075e-07
-2.74631e-07
3.64034e-07
-2.39891e-07
3.82584e-07
-2.01703e-07
3.95503e-07
-1.60164e-07
4.02641e-07
-1.15339e-07
4.03926e-07
-6.72765e-08
3.99373e-07
-1.60287e-08
3.891e-07
3.83091e-08
3.73339e-07
9.55388e-08
3.52423e-07
1.55287e-07
3.26737e-07
2.16967e-07
2.967e-07
2.79775e-07
2.62696e-07
3.42684e-07
2.24911e-07
4.04391e-07
1.82636e-07
4.62996e-07
1.33192e-07
5.14927e-07
7.36536e-08
5.54215e-07
5.96531e-09
5.75786e-07
-6.27116e-08
5.78458e-07
-1.24602e-07
5.62202e-07
-1.76365e-07
5.27561e-07
-2.20248e-07
4.78775e-07
-2.59328e-07
4.22091e-07
-2.94684e-07
3.61679e-07
-3.2625e-07
2.99713e-07
-3.53668e-07
2.37589e-07
-3.76523e-07
1.76394e-07
-3.94421e-07
1.16968e-07
-4.07016e-07
5.99346e-08
-4.14045e-07
5.69615e-09
-4.15356e-07
-4.55376e-08
-4.10902e-07
-9.36856e-08
-4.00722e-07
-1.38725e-07
-3.84927e-07
-1.80648e-07
-3.63695e-07
-2.19431e-07
-3.37276e-07
-2.55021e-07
-3.0599e-07
-2.87324e-07
-2.70238e-07
-3.16201e-07
-2.30498e-07
-3.41473e-07
-1.87323e-07
-3.6293e-07
-1.41333e-07
-3.80344e-07
-9.3206e-08
-3.9349e-07
-4.36624e-08
-4.02173e-07
-4.06246e-07
5.19325e-08
-4.51564e-07
9.70052e-08
-4.45424e-07
1.40485e-07
-4.3397e-07
1.81672e-07
-4.174e-07
2.19921e-07
-3.95975e-07
2.54654e-07
-3.69987e-07
2.85367e-07
-3.39738e-07
3.11637e-07
-3.05513e-07
3.33126e-07
-2.67563e-07
3.49576e-07
-2.26098e-07
3.60807e-07
-1.81278e-07
3.66712e-07
-1.3322e-07
3.67256e-07
-8.20145e-08
3.62481e-07
-2.77444e-08
3.52511e-07
2.94744e-08
3.37559e-07
8.94441e-08
3.17929e-07
1.51823e-07
2.93988e-07
2.16086e-07
2.66157e-07
2.815e-07
2.34898e-07
3.47126e-07
2.00684e-07
4.11794e-07
1.63926e-07
4.74041e-07
1.24591e-07
5.31764e-07
8.15552e-08
5.81195e-07
3.36288e-08
6.1618e-07
-1.72139e-08
6.30418e-07
-6.61923e-08
6.2099e-07
-1.10316e-07
5.89713e-07
-1.50228e-07
5.42312e-07
-1.87302e-07
4.8532e-07
-2.21798e-07
4.23086e-07
-2.53359e-07
3.57987e-07
-2.81509e-07
2.9158e-07
-3.05777e-07
2.25095e-07
-3.2573e-07
1.59533e-07
-3.40982e-07
9.56903e-08
-3.51215e-07
3.41639e-08
-3.56194e-07
-2.46373e-08
-3.55781e-07
-8.04546e-08
-3.49929e-07
-1.3312e-07
-3.38669e-07
-1.82503e-07
-3.22113e-07
-2.28474e-07
-3.00453e-07
-2.70883e-07
-2.73963e-07
-3.09539e-07
-2.43004e-07
-3.4421e-07
-2.08027e-07
-3.74629e-07
-1.69567e-07
-4.00499e-07
-1.28236e-07
-4.21517e-07
-8.47167e-08
-4.37396e-07
-3.97423e-08
-4.47888e-07
5.91719e-09
-4.52812e-07
5.14745e-08
-4.52078e-07
9.6145e-08
-4.457e-07
1.39166e-07
-4.33794e-07
1.79817e-07
-4.16559e-07
2.17431e-07
-3.94256e-07
2.51416e-07
-3.67178e-07
2.81257e-07
-3.3563e-07
3.06528e-07
-2.99901e-07
3.26888e-07
-2.60252e-07
3.42087e-07
-2.16902e-07
3.51954e-07
-1.7003e-07
3.56397e-07
-1.19782e-07
3.55405e-07
-6.62841e-08
3.49048e-07
-9.67172e-09
3.37488e-07
4.98685e-08
3.20984e-07
1.12043e-07
2.99873e-07
1.76398e-07
2.74554e-07
2.42286e-07
2.45473e-07
3.08856e-07
2.13105e-07
3.75052e-07
1.77918e-07
4.39578e-07
1.40176e-07
5.00738e-07
9.93372e-08
5.55767e-07
5.38984e-08
5.99654e-07
3.99789e-09
6.25687e-07
-4.64996e-08
6.28955e-07
-9.31742e-08
6.08877e-07
-1.35084e-07
5.6947e-07
-1.73692e-07
5.17384e-07
-2.09816e-07
4.58215e-07
-2.43309e-07
3.95172e-07
-2.73724e-07
3.30128e-07
-3.00588e-07
2.64453e-07
-3.23447e-07
1.99254e-07
-3.41895e-07
1.35416e-07
-3.55578e-07
7.36172e-08
-3.64215e-07
1.43328e-08
-3.67615e-07
-4.21374e-08
-3.65677e-07
-9.5623e-08
-3.58382e-07
-1.46021e-07
-3.45781e-07
-1.93249e-07
-3.28e-07
-2.37212e-07
-3.0524e-07
-2.77781e-07
-2.77778e-07
-3.14785e-07
-2.45976e-07
-3.48003e-07
-2.10277e-07
-3.77173e-07
-1.71204e-07
-4.02002e-07
-1.29356e-07
-4.22192e-07
-8.53932e-08
-4.37453e-07
-4.00255e-08
-4.47541e-07
-4.52275e-07
4.64371e-08
-4.92631e-07
8.66742e-08
-4.85661e-07
1.2537e-07
-4.72665e-07
1.61854e-07
-4.53884e-07
1.95514e-07
-4.29634e-07
2.25806e-07
-4.00279e-07
2.52267e-07
-3.662e-07
2.7452e-07
-3.27766e-07
2.92272e-07
-2.85316e-07
3.05316e-07
-2.39142e-07
3.13525e-07
-1.89487e-07
3.16849e-07
-1.36544e-07
3.15311e-07
-8.04765e-08
3.09009e-07
-2.14425e-08
2.98118e-07
4.03658e-08
2.82891e-07
1.04671e-07
2.63658e-07
1.71056e-07
2.40813e-07
2.38931e-07
2.14811e-07
3.07503e-07
1.86166e-07
3.7577e-07
1.55469e-07
4.42492e-07
1.23384e-07
5.06126e-07
9.05675e-08
5.6458e-07
5.7293e-08
6.1447e-07
2.32789e-08
6.50194e-07
-1.13153e-08
6.65012e-07
-4.54957e-08
6.5517e-07
-7.88188e-08
6.23036e-07
-1.11573e-07
5.75066e-07
-1.4364e-07
5.17386e-07
-1.74409e-07
4.53855e-07
-2.03196e-07
3.86774e-07
-2.2939e-07
3.17774e-07
-2.52453e-07
2.48158e-07
-2.71914e-07
1.78994e-07
-2.87362e-07
1.11138e-07
-2.9845e-07
4.52523e-08
-3.04909e-07
-1.81787e-08
-3.0655e-07
-7.88131e-08
-3.03269e-07
-1.36401e-07
-2.95039e-07
-1.90733e-07
-2.81913e-07
-2.416e-07
-2.64027e-07
-2.88768e-07
-2.41605e-07
-3.31961e-07
-2.14959e-07
-3.70856e-07
-1.84492e-07
-4.05095e-07
-1.50698e-07
-4.34293e-07
-1.14151e-07
-4.58064e-07
-7.54978e-08
-4.76049e-07
-3.54413e-08
-4.87944e-07
5.27682e-09
-4.9353e-07
4.58962e-08
-4.92698e-07
8.56595e-08
-4.85463e-07
1.23833e-07
-4.71967e-07
1.59727e-07
-4.52453e-07
1.92711e-07
-4.2724e-07
2.22233e-07
-3.96699e-07
2.4782e-07
-3.61218e-07
2.69094e-07
-3.21175e-07
2.85764e-07
-2.76922e-07
2.97632e-07
-2.28769e-07
3.04582e-07
-1.76981e-07
3.06583e-07
-1.21783e-07
3.0368e-07
-6.33814e-08
2.96001e-07
-1.99253e-09
2.83754e-07
6.21154e-08
2.6723e-07
1.28567e-07
2.46793e-07
1.96835e-07
2.2287e-07
2.66209e-07
1.9595e-07
3.35777e-07
1.66586e-07
4.04416e-07
1.35412e-07
4.70751e-07
1.03121e-07
5.33029e-07
7.02364e-08
5.88651e-07
3.67111e-08
6.33179e-07
2.33484e-09
6.60063e-07
-3.21877e-08
6.63478e-07
-6.59814e-08
6.4267e-07
-9.91249e-08
6.02614e-07
-1.31801e-07
5.5006e-07
-1.63593e-07
4.90006e-07
-1.93819e-07
4.25398e-07
-2.21831e-07
3.5814e-07
-2.47061e-07
2.89682e-07
-2.69008e-07
2.21201e-07
-2.87236e-07
1.53643e-07
-3.01364e-07
8.77456e-08
-3.11084e-07
2.40523e-08
-3.1616e-07
-3.70605e-08
-3.16441e-07
-9.53427e-08
-3.11846e-07
-1.50616e-07
-3.02372e-07
-2.02723e-07
-2.88088e-07
-2.51495e-07
-2.69142e-07
-2.96727e-07
-2.45763e-07
-3.38164e-07
-2.18266e-07
-3.75501e-07
-1.8705e-07
-4.08388e-07
-1.526e-07
-4.36452e-07
-1.15479e-07
-4.59313e-07
-7.63158e-08
-4.76616e-07
-3.5793e-08
-4.88063e-07
-4.93438e-07
4.03165e-08
-5.28283e-07
7.51842e-08
-5.20529e-07
1.08598e-07
-5.06079e-07
1.3993e-07
-4.85216e-07
1.68613e-07
-4.58317e-07
1.94151e-07
-4.25818e-07
2.16131e-07
-3.8818e-07
2.34225e-07
-3.4586e-07
2.48193e-07
-2.99284e-07
2.57881e-07
-2.48831e-07
2.63217e-07
-1.94823e-07
2.64207e-07
-1.37534e-07
2.60931e-07
-7.72005e-08
2.53542e-07
-1.40531e-08
2.42264e-07
5.16441e-08
2.27393e-07
1.19541e-07
2.09296e-07
1.89154e-07
1.884e-07
2.59827e-07
1.652e-07
3.30704e-07
1.40266e-07
4.00704e-07
1.14265e-07
4.68493e-07
8.79856e-08
5.32405e-07
6.23219e-08
5.90244e-07
3.80282e-08
6.38763e-07
1.52124e-08
6.7301e-07
-6.86771e-09
6.87092e-07
-2.93622e-08
6.77665e-07
-5.31674e-08
6.46841e-07
-7.83917e-08
6.00291e-07
-1.04384e-07
5.43378e-07
-1.30243e-07
4.79714e-07
-1.55141e-07
4.11672e-07
-1.7838e-07
3.41013e-07
-1.99364e-07
2.69143e-07
-2.17579e-07
1.97208e-07
-2.32577e-07
1.26136e-07
-2.43978e-07
5.66526e-08
-2.51468e-07
-1.06883e-08
-2.54811e-07
-7.54697e-08
-2.53847e-07
-1.37366e-07
-2.4849e-07
-1.9609e-07
-2.38737e-07
-2.51353e-07
-2.24667e-07
-3.02838e-07
-2.06448e-07
-3.5018e-07
-1.84338e-07
-3.92967e-07
-1.58686e-07
-4.30747e-07
-1.29934e-07
-4.63045e-07
-9.86075e-08
-4.89391e-07
-6.53035e-08
-5.09353e-07
-3.06794e-08
-5.22568e-07
4.5678e-09
-5.28778e-07
3.97221e-08
-5.27852e-07
7.40701e-08
-5.19811e-07
1.06923e-07
-5.0482e-07
1.37638e-07
-4.83168e-07
1.65634e-07
-4.55236e-07
1.90408e-07
-4.21473e-07
2.11541e-07
-3.82351e-07
2.28707e-07
-3.38341e-07
2.41671e-07
-2.89886e-07
2.50289e-07
-2.37388e-07
2.54505e-07
-1.81196e-07
2.54343e-07
-1.2162e-07
2.49907e-07
-5.89454e-08
2.41378e-07
6.53642e-09
2.29013e-07
7.44805e-08
2.13142e-07
1.44438e-07
1.94164e-07
2.15813e-07
1.72543e-07
2.8783e-07
1.48812e-07
3.59507e-07
1.23593e-07
4.29635e-07
9.7615e-08
4.96729e-07
7.17371e-08
5.58907e-07
4.68415e-08
6.13547e-07
2.3425e-08
6.56595e-07
1.1459e-09
6.82342e-07
-2.10199e-08
6.85644e-07
-4.41777e-08
6.65828e-07
-6.88721e-08
6.27308e-07
-9.47807e-08
5.75969e-07
-1.21071e-07
5.16296e-07
-1.46865e-07
4.51192e-07
-1.71409e-07
3.82683e-07
-1.94062e-07
3.12336e-07
-2.14275e-07
2.41415e-07
-2.31573e-07
1.7094e-07
-2.45541e-07
1.01714e-07
-2.55834e-07
3.43452e-08
-2.62173e-07
-3.07219e-08
-2.64351e-07
-9.31642e-08
-2.62236e-07
-1.52731e-07
-2.55766e-07
-2.09193e-07
-2.44954e-07
-2.62307e-07
-2.29895e-07
-3.11787e-07
-2.10763e-07
-3.57295e-07
-1.87823e-07
-3.98441e-07
-1.61423e-07
-4.34788e-07
-1.32001e-07
-4.65875e-07
-1.0007e-07
-4.91243e-07
-6.62157e-08
-5.1047e-07
-3.10782e-08
-5.23201e-07
-5.2918e-07
3.36889e-08
-5.58072e-07
6.27569e-08
-5.49597e-07
9.04903e-08
-5.33812e-07
1.16319e-07
-5.11045e-07
1.39731e-07
-4.8173e-07
1.6029e-07
-4.46377e-07
1.77638e-07
-4.05528e-07
1.91505e-07
-3.59726e-07
2.01704e-07
-3.09484e-07
2.08138e-07
-2.55264e-07
2.10788e-07
-1.97473e-07
2.09713e-07
-1.3646e-07
2.05048e-07
-7.25347e-08
1.96994e-07
-5.99923e-09
1.85823e-07
6.28145e-08
1.71874e-07
1.3349e-07
1.55545e-07
2.05483e-07
1.37296e-07
2.78075e-07
1.17653e-07
3.50347e-07
9.72161e-08
4.21141e-07
7.66766e-08
4.89032e-07
5.68318e-08
5.5225e-07
3.85537e-08
6.08522e-07
2.25697e-08
6.54747e-07
8.91494e-09
6.86665e-07
-3.55088e-09
6.99558e-07
-1.67204e-08
6.90834e-07
-3.2007e-08
6.62128e-07
-4.96416e-08
6.17925e-07
-6.89997e-08
5.62736e-07
-8.92056e-08
4.9992e-07
-1.09432e-07
4.31898e-07
-1.28957e-07
3.60538e-07
-1.47156e-07
2.87342e-07
-1.63484e-07
2.13536e-07
-1.77461e-07
1.40114e-07
-1.88673e-07
6.78644e-08
-1.96767e-07
-2.59448e-09
-2.01459e-07
-7.07778e-08
-2.02537e-07
-1.36288e-07
-1.99862e-07
-1.98764e-07
-1.93376e-07
-2.57839e-07
-1.83101e-07
-3.13113e-07
-1.69148e-07
-3.64133e-07
-1.51716e-07
-4.10399e-07
-1.31096e-07
-4.51366e-07
-1.0767e-07
-4.86471e-07
-8.19018e-08
-5.15159e-07
-5.43289e-08
-5.36926e-07
-2.55481e-08
-5.51349e-07
3.80374e-09
-5.58129e-07
3.30703e-08
-5.57119e-07
6.15983e-08
-5.48339e-07
8.87593e-08
-5.31981e-07
1.1397e-07
-5.08378e-07
1.36711e-07
-4.77977e-07
1.56539e-07
-4.413e-07
1.73095e-07