/*--------------------------------*- C++ -*----------------------------------*\
| =========                 |                                                 |
| \\      /  F ield         | OpenFOAM: The Open Source CFD Toolbox           |
|  \\    /   O peration     | Version:  2.3.0                                 |
|   \\  /    A nd           | Web:      www.OpenFOAM.org                      |
|    \\/     M anipulation  |                                                 |
\*---------------------------------------------------------------------------*/
FoamFile
{
    version     2.0;
    format      ascii;
    class       volScalarField;
    location    "9000";
    object      T;
}
// * * * * * * * * * * * * * * * * * * * * * * * * * * * * * * * * * * * * * //

dimensions      [0 0 0 1 0 0 0];

internalField   nonuniform List<scalar> 
765
(
31.4902
31.6144
31.8319
32.1309
32.5019
32.9354
33.4105
33.8461
34.2705
34.679
35.0448
35.3211
35.4457
35.3646
35.117
34.7673
34.3659
33.9442
33.5106
33.0405
32.5955
32.2092
31.8927
31.6552
31.5076
31.4644
31.5371
31.7098
31.9692
32.3048
32.7074
33.1633
33.6226
34.0541
34.4729
34.865
35.194
35.4048
35.4326
35.2624
34.9576
34.5771
34.1624
33.7336
33.2857
32.8196
32.4013
32.0479
31.7686
31.5734
31.4749
23.1576
23.4526
23.9667
24.6716
25.5464
26.574
27.732
28.9719
30.205
31.3794
32.415
33.1985
33.562
33.3235
32.6184
31.6304
30.4807
29.2609
28.0282
26.83
25.767
24.855
24.1089
23.5479
23.1978
23.0945
23.2678
23.6769
24.2891
25.0802
26.0323
27.1291
28.3463
29.5819
30.7897
31.9082
32.8362
33.4406
33.5228
33.0308
32.1698
31.0886
29.895
28.6579
27.4275
26.2994
25.3092
24.476
23.8172
23.3554
23.1211
17.2519
17.6495
18.3386
19.277
20.4353
21.7967
23.3506
25.0795
26.9032
28.7025
30.3
31.499
32.0535
31.6889
30.6111
29.0874
27.3171
25.4873
23.7291
22.1317
20.7248
19.5189
18.5275
17.7766
17.3052
17.166
17.3998
17.95
18.7678
19.8176
21.077
22.5346
24.1807
25.9644
27.7924
29.5174
30.9452
31.8677
31.9937
31.2432
29.9221
28.2541
26.4352
24.6283
22.939
21.4326
20.1218
19.0175
18.1389
17.5188
17.2028
13.5325
14.0017
14.8085
15.8907
17.205
18.7329
20.4785
22.458
24.6086
26.7764
28.7348
30.206
30.873
30.436
29.117
27.2429
25.0998
22.9284
20.899
19.1045
17.5294
16.1663
15.0278
14.1515
13.5957
13.4318
13.7078
14.3554
15.3062
16.5066
17.9258
19.5574
21.4121
23.4903
25.6724
27.77
29.5285
30.6519
30.8024
29.8942
28.2688
26.2322
24.0509
21.9332
20.0145
18.3255
16.8517
15.5937
14.5762
13.8481
13.4749
11.3364
11.8799
12.8057
14.0212
15.4573
17.0837
18.9123
20.9876
23.255
25.5597
27.6587
29.2338
29.9321
29.4772
28.0681
26.0567
23.7729
21.4785
19.3463
17.4732
15.8061
14.3268
13.0561
12.0547
11.4115
11.2224
11.5418
12.29
13.3708
14.7011
16.2305
17.9504
19.8905
22.0732
24.3826
26.6223
28.51
29.7045
29.8601
28.9017
27.1584
24.9794
22.6659
20.4377
18.429
16.6546
15.0762
13.6916
12.5415
11.7027
11.2703
10.0277
10.6637
11.7388
13.12
14.7
16.424
18.298
20.3779
22.6192
24.8883
26.951
28.4874
29.1536
28.722
27.3517
25.3765
23.129
20.8655
18.7414
16.8301
15.0773
13.4636
12.0293
10.8709
10.1184
9.8985
10.2715
11.1457
12.3895
13.8787
15.5307
17.3223
19.2885
21.4548
23.7304
25.9336
27.7844
28.9403
29.087
28.166
26.4607
24.318
22.0396
19.8331
17.8096
15.9768
14.2876
12.7505
11.4347
10.4571
9.9513
9.16277
9.90946
11.1656
12.7515
14.514
16.3637
18.2854
20.3212
22.4498
24.5716
26.4809
27.8856
28.4827
28.0977
26.8492
25.0253
22.9293
20.7904
18.7321
16.7908
14.9286
13.1432
11.5056
10.1562
9.27235
9.0158
9.45265
10.4787
11.9217
13.6098
15.419
17.2991
19.2689
21.3518
23.4934
25.5428
27.2468
28.2949
28.4249
27.5946
26.0299
24.0417
21.9046
19.797
17.7941
15.8927
14.0614
12.3322
10.8127
9.66733
9.07399
8.47894
9.34628
10.7982
12.6082
14.5773
16.5789
18.5663
20.537
22.509
24.4207
26.11
27.3382
27.8576
27.523
26.4335
24.825
22.946
20.9795
19.0097
17.0322
15.0354
13.0536
11.1924
9.63594
8.60949
8.31227
8.81939
10.01
11.6695
13.5781
15.5697
17.5628
19.5333
21.5027
23.4568
25.2851
26.7828
27.6959
27.8088
27.0861
25.7146
23.9485
22.0115
20.04
18.0703
16.0774
14.0782
12.1339
10.3925
9.06558
8.37634
7.83259
8.82027
10.4555
12.471
14.6313
16.772
18.8068
20.7135
22.5319
24.2331
25.7024
26.7582
27.2048
26.9169
25.9817
24.5881
22.9268
21.1304
19.2468
17.2475
15.1305
12.9663
10.8997
9.1511
7.98524
7.64393
8.22503
9.5737
11.4328
13.5446
15.7069
17.7965
19.7583
21.6169
23.3844
24.9906
26.2836
27.0669
27.1641
26.5436
25.3624
23.8192
22.0821
20.244
18.3125
16.2465
14.0897
11.9465
10.0011
8.50212
7.7146
7.1245
8.20151
9.96204
12.1145
14.4062
16.6504
18.7275
20.5936
22.2944
23.8224
25.1042
26.011
26.3945
26.1472
25.3456
24.1362
22.6559
20.9927
19.1683
17.1456
14.936
12.6443
10.4403
8.56183
7.29498
6.91795
7.5574
9.01796
11.011
13.2596
15.5437
17.7119
19.6736
21.452
23.0704
24.4898
25.6067
26.2774
26.361
25.829
24.812
23.4575
21.8827
20.1446
18.236
16.1065
13.8351
11.5566
9.47508
7.85659
6.99379
6.28683
7.39152
9.17896
11.3566
13.677
15.9505
18.0392
19.8803
21.505
22.9117
24.0547
24.8478
25.1823
24.9666
24.2678
23.1959
21.8447
20.2697
18.4816
16.4545
14.2167
11.895
9.6651
7.76042
6.46497
6.07367
6.73494
8.22427
10.2429
12.5186
14.8339
17.0274
18.9835
20.7119
22.2294
23.5137
24.4979
25.0816
25.1545
24.6911
23.7986
22.5821
21.119
19.4437
17.5497
15.4009
13.0988
10.7926
8.68594
7.03945
6.15081
5.27566
6.31975
7.99618
10.038
12.2277
14.3965
16.4126
18.2015
19.7616
21.081
22.1262
22.8381
23.1372
22.9445
22.3194
21.3448
20.0854
18.5805
16.8459
14.8839
12.7424
10.546
8.45297
6.66776
5.44642
5.07288
5.70215
7.10314
8.99457
11.1339
13.3303
15.4363
17.3345
19.007
20.4484
21.6373
22.5273
23.0484
23.1135
22.6996
21.8955
20.7762
19.3945
17.7779
15.9349
13.8681
11.6793
9.50812
7.53432
5.98824
5.14549
4.06158
4.93715
6.33362
8.03516
9.87542
11.7304
13.5042
15.1276
16.5564
17.7592
18.7014
19.3362
19.6024
19.4312
18.875
17.9993
16.8541
15.4763
13.8969
12.1555
10.3133
8.46118
6.71462
5.22832
4.20633
3.89045
4.42115
5.59109
7.16538
8.95366
10.8133
12.637
14.3388
15.8669
17.1857
18.2638
19.0611
19.524
19.5819
19.2139
18.4951
17.4829
16.2202
14.7396
13.0733
11.2715
9.41064
7.59208
5.94904
4.65997
3.95126
2.62683
3.22063
4.15981
5.30029
6.53993
7.81309
9.08287
10.3093
11.4166
12.3599
13.1014
13.6009
13.8106
13.6758
13.2384
12.5494
11.6502
10.5787
9.37699
8.11169
6.838
5.58666
4.41563
3.41736
2.72584
2.50997
2.87177
3.66146
4.71736
5.91694
7.17779
8.44964
9.7083
10.8804
11.9099
12.7575
13.3849
13.749
13.7945
13.5048
12.939
12.1425
11.154
10.0111
8.76178
7.49162
6.22396
5.00255
3.90147
3.03318
2.5513
0.960884
1.17699
1.51275
1.91285
2.34253
2.78832
3.26324
3.7697
4.24575
4.66138
4.99327
5.21881
5.31386
5.25279
5.05513
4.74594
4.34802
3.88435
3.3828
2.89559
2.44594
2.01244
1.60321
1.24795
0.997242
0.917912
1.05052
1.33545
1.70916
2.1265
2.56309
3.01658
3.51803
4.01331
4.46199
4.83876
5.12102
5.28575
5.30636
5.17512
4.92008
4.56466
4.13125
3.64346
3.13342
2.67262
2.23245
1.80878
1.42095
1.10911
0.93308
)
;

boundaryField
{
    top
    {
        type            fixedValue;
        value           uniform 0;
    }
    bottom
    {
        type            fixedValue;
        value           uniform 36.5;
    }
    frontAndBack
    {
        type            empty;
    }
    left_cyc
    {
        type            cyclic;
    }
    right_cyc
    {
        type            cyclic;
    }
}


// ************************************************************************* //
