/*--------------------------------*- C++ -*----------------------------------*\
| =========                 |                                                 |
| \\      /  F ield         | OpenFOAM: The Open Source CFD Toolbox           |
|  \\    /   O peration     | Version:  2.3.0                                 |
|   \\  /    A nd           | Web:      www.OpenFOAM.org                      |
|    \\/     M anipulation  |                                                 |
\*---------------------------------------------------------------------------*/
FoamFile
{
    version     2.0;
    format      ascii;
    class       volScalarField;
    location    "9000";
    object      T;
}
// * * * * * * * * * * * * * * * * * * * * * * * * * * * * * * * * * * * * * //

dimensions      [0 0 0 1 0 0 0];

internalField   nonuniform List<scalar> 
765
(
40.0066
40.0627
40.0122
39.9089
39.8329
39.8883
40.1566
40.4411
40.8275
41.3414
41.6145
41.1353
40.6533
40.3041
40.0188
39.837
39.8455
39.9446
40.037
40.0537
39.9481
39.7579
39.5112
39.2078
38.8367
38.3787
37.8073
37.0908
36.1975
35.1035
33.7889
32.1688
30.692
29.5934
28.8272
28.4962
28.5894
29.081
29.9869
31.2153
32.8536
34.3375
35.563
36.5755
37.3952
38.0501
38.573
38.9939
39.3365
39.6168
39.8425
33.0377
33.221
33.2919
33.2984
33.3295
33.5109
33.9311
34.7642
36.1326
37.93
38.8529
37.2409
35.5581
34.4075
33.7618
33.4026
33.2934
33.2855
33.2635
33.1541
32.924
32.5247
32.0046
31.3875
30.6769
29.8637
28.9241
27.8111
26.4445
24.7068
22.6191
20.6645
19.0643
17.7423
16.7235
16.181
16.3346
17.0866
18.2409
19.6628
21.3812
23.4922
25.4526
27.0257
28.279
29.316
30.2021
30.9733
31.6471
32.2281
32.7063
28.1402
28.4598
28.707
28.9109
29.1246
29.4402
30.0147
31.2134
33.218
35.8358
37.155
34.8319
32.356
30.6567
29.7147
29.2821
29.0216
28.8194
28.6028
28.3287
27.9762
27.5417
26.9843
26.3189
25.563
24.7177
23.7867
22.7608
21.617
20.3458
18.883
17.2518
15.5672
13.9844
12.7134
12.0214
12.2143
13.1719
14.6003
16.2496
17.9322
19.5087
20.8848
22.1008
23.1911
24.1754
25.072
25.8811
26.6022
27.2299
27.7387
26.0262
26.4011
26.7436
27.0558
27.3483
27.6757
28.2645
29.4988
31.6816
34.6245
36.0987
33.4936
30.7248
28.9132
27.9601
27.5275
27.227
26.9293
26.6053
26.2499
25.862
25.4418
24.99
24.5043
23.989
23.451
22.8686
22.1969
21.3669
20.2856
18.8539
17.0672
15.0719
13.0992
11.4886
10.6185
10.8548
12.0662
13.8701
15.8951
17.8348
19.4876
20.7677
21.734
22.4886
23.1161
23.6751
24.2036
24.7081
25.1788
25.6187
26.0071
26.3435
26.6736
26.9725
27.2196
27.455
27.9061
28.9594
31.0489
33.9948
35.4553
32.8655
30.1144
28.446
27.6803
27.3509
27.1271
26.8596
26.5454
26.2102
25.8758
25.5539
25.2486
24.9572
24.6696
24.3624
23.9893
23.4767
22.7212
21.5965
19.9837
17.8728
15.4569
13.0336
11.0451
9.98289
10.2645
11.7517
13.9755
16.4477
18.7743
20.6989
22.1044
23.0644
23.7074
24.1524
24.4911
24.7858
25.0725
25.3681
25.6797
26.9245
27.2011
27.4685
27.6857
27.8222
27.9359
28.1939
29.0458
30.9687
33.74
35.078
32.6906
30.0979
28.6102
28.0492
27.8873
27.7801
27.6117
27.3705
27.0955
26.8242
26.5801
26.3711
26.1922
26.0239
25.8276
25.5395
25.0654
24.2823
23.0502
21.2412
18.8159
15.9844
13.1197
10.761
9.50984
9.83605
11.5933
14.2277
17.1399
19.8407
22.0305
23.5986
24.6358
25.2799
25.6666
25.9084
26.0873
26.2561
26.4452
26.6679
28.0622
28.2766
28.4587
28.5688
28.5925
28.5983
28.7795
29.5485
31.2497
33.6429
34.8043
32.7512
30.4943
29.1598
28.6636
28.6044
28.5948
28.5401
28.3989
28.2001
27.9842
27.7827
27.6123
27.473
27.3452
27.1845
26.9149
26.4267
25.5844
24.2435
22.2698
19.5944
16.4114
13.1584
10.4652
9.03552
9.40537
11.4122
14.4133
17.7115
20.7235
23.1227
24.8324
25.9595
26.6451
27.0322
27.2478
27.3885
27.5172
27.6679
27.8517
29.1025
29.2464
29.3422
29.3802
29.3919
29.4065
29.6184
30.2957
31.6763
33.5882
34.5675
32.8858
31.0799
29.971
29.5015
29.3929
29.3901
29.3762
29.3174
29.2016
29.0461
28.8763
28.7127
28.563
28.4152
28.228
27.9216
27.3786
26.4607
25.0271
22.9366
20.0976
16.6517
13.0896
10.1145
8.51577
8.93077
11.161
14.4626
18.0658
21.3057
23.8419
25.6514
26.8623
27.6155
28.0504
28.2988
28.4641
28.6104
28.766
28.9345
29.914
30.0254
30.1065
30.1625
30.2008
30.2809
30.5214
31.0888
32.1373
33.565
34.359
33.0536
31.702
30.8359
30.4098
30.2459
30.1926
30.15
30.086
29.9947
29.8727
29.7249
29.5584
29.3752
29.1638
28.8885
28.4785
27.829
26.8182
25.3187
23.1755
20.2352
16.6008
12.8385
9.66787
7.92411
8.38295
10.7866
14.2868
18.0956
21.4915
24.0976
25.9591
27.247
28.1014
28.6444
28.9924
29.2377
29.4364
29.6137
29.7744
30.4705
30.6194
30.7435
30.849
30.9543
31.0975
31.3472
31.8024
32.5571
33.558
34.1691
33.2178
32.2635
31.619
31.2499
31.0488
30.9257
30.8233
30.7127
30.5797
30.4213
30.2367
30.0233
29.7725
29.4665
29.0674
28.5117
27.7126
26.5764
24.9998
22.8169
19.8212
16.1092
12.2987
9.05609
7.22519
7.71521
10.2061
13.7596
17.6086
21.079
23.7385
25.6534
27.0405
28.0347
28.7295
29.2168
29.5751
29.8575
30.0933
30.2956
30.5083
30.7633
30.9968
31.214
31.4252
31.6502
31.9257
32.3058
32.8433
33.513
33.9547
33.3077
32.6574
32.1749
31.8371
31.5842
31.3667
31.1545
30.9318
30.6906
30.4264
30.1356
29.8137
29.4388
28.9921
28.4347
27.7091
26.7466
25.4834
23.8412
21.6341
18.6527
15.0572
11.3921
8.23162
6.39534
6.89523
9.3581
12.7855
16.4649
19.8718
22.5539
24.5037
25.9812
27.121
27.9849
28.6393
29.1493
29.5653
29.9183
30.228
29.428
29.8675
30.2823
30.678
31.0598
31.4343
31.8136
32.2174
32.6659
33.1412
33.4492
33.0179
32.5352
32.0989
31.7036
31.326
30.9484
30.561
30.1581
29.7343
29.2835
28.8
28.2815
27.7316
27.1116
26.3886
25.5173
24.4425
23.1144
21.4663
19.3155
16.5306
13.3145
10.0235
7.13277
5.40496
5.88261
8.16898
11.2757
14.5756
17.6649
20.2023
22.117
23.6231
24.8478
25.8381
26.6476
27.3277
27.9193
28.4531
28.9576
26.108
26.7603
27.3836
27.9869
28.5764
29.154
29.7176
30.2612
30.7724
31.2144
31.4486
31.1123
30.6343
30.1055
29.5506
28.979
28.395
27.7993
27.1883
26.5545
25.8885
25.1844
24.4474
23.6962
22.9451
22.1244
21.2187
20.1904
18.9777
17.4967
15.6441
13.3622
10.7575
8.07441
5.68172
4.21624
4.6271
6.54512
9.10037
11.7816
14.2794
16.3838
18.072
19.4354
20.5667
21.5408
22.4086
23.1992
23.946
24.6939
25.419
19.216
19.9246
20.6109
21.2807
21.9373
22.5792
23.1996
23.7842
24.3066
24.715
24.8874
24.6213
24.1641
23.6133
23.0112
22.3796
21.73
21.067
20.3902
19.6953
18.9757
18.2284
17.4623
16.6947
15.9362
15.2216
14.4984
13.7209
12.8454
11.8042
10.524
8.98141
7.23961
5.4402
3.81299
2.79335
3.08251
4.40347
6.12939
7.92167
9.5933
11.0281
12.2048
13.1719
14.0027
14.7571
15.4677
16.1941
16.9535
17.7202
18.4798
7.71994
8.11211
8.50042
8.88628
9.26898
9.64438
10.0039
10.3334
10.6126
10.8126
10.885
10.7668
10.537
10.2372
9.89412
9.5265
9.14658
8.76136
8.3737
7.98331
7.58854
7.19
6.79489
6.41076
6.03702
5.67608
5.33807
5.01836
4.68872
4.321
3.88801
3.37276
2.77727
2.13207
1.51707
1.11375
1.22991
1.74347
2.38233
3.01171
3.57555
4.05544
4.45905
4.8077
5.12881
5.44983
5.79896
6.16357
6.53958
6.92673
7.32321
)
;

boundaryField
{
    top
    {
        type            fixedValue;
        value           uniform 0;
    }
    bottom
    {
        type            fixedValue;
        value           uniform 43.8;
    }
    frontAndBack
    {
        type            empty;
    }
    left_cyc
    {
        type            cyclic;
    }
    right_cyc
    {
        type            cyclic;
    }
}


// ************************************************************************* //
