/*--------------------------------*- C++ -*----------------------------------*\
| =========                 |                                                 |
| \\      /  F ield         | OpenFOAM: The Open Source CFD Toolbox           |
|  \\    /   O peration     | Version:  2.3.0                                 |
|   \\  /    A nd           | Web:      www.OpenFOAM.org                      |
|    \\/     M anipulation  |                                                 |
\*---------------------------------------------------------------------------*/
FoamFile
{
    version     2.0;
    format      ascii;
    class       volVectorField;
    location    "9000";
    object      U;
}
// * * * * * * * * * * * * * * * * * * * * * * * * * * * * * * * * * * * * * //

dimensions      [0 1 -1 0 0 0 0];

internalField   nonuniform List<vector> 
3060
(
(6.02514e-06 0 -4.10732e-06)
(1.54982e-05 0 -3.97064e-06)
(2.47398e-05 0 -3.71763e-06)
(3.36174e-05 0 -3.35458e-06)
(4.20098e-05 0 -2.89164e-06)
(4.98095e-05 0 -2.34593e-06)
(5.69247e-05 0 -1.74455e-06)
(6.32804e-05 0 -1.1249e-06)
(6.88159e-05 0 -5.29806e-07)
(7.34773e-05 0 2.34308e-09)
(7.72025e-05 0 4.47221e-07)
(7.99025e-05 0 7.97959e-07)
(8.14457e-05 0 1.06129e-06)
(8.16496e-05 0 1.24984e-06)
(8.03007e-05 0 1.3864e-06)
(7.71995e-05 0 1.52615e-06)
(7.22502e-05 0 1.73484e-06)
(6.555e-05 0 1.99397e-06)
(5.74014e-05 0 2.18324e-06)
(4.83367e-05 0 2.20088e-06)
(3.89841e-05 0 2.0564e-06)
(2.99149e-05 0 1.79957e-06)
(2.15428e-05 0 1.50464e-06)
(1.40073e-05 0 1.24448e-06)
(7.18696e-06 0 1.06816e-06)
(7.88674e-07 0 9.97997e-07)
(-5.55771e-06 0 1.04007e-06)
(-1.22298e-05 0 1.19077e-06)
(-1.95473e-05 0 1.43304e-06)
(-2.76841e-05 0 1.72506e-06)
(-3.657e-05 0 1.99786e-06)
(-4.58493e-05 0 2.17466e-06)
(-5.49758e-05 0 2.19923e-06)
(-6.33173e-05 0 2.04526e-06)
(-7.02962e-05 0 1.79045e-06)
(-7.55461e-05 0 1.56191e-06)
(-7.89151e-05 0 1.40347e-06)
(-8.04568e-05 0 1.25904e-06)
(-8.03627e-05 0 1.06561e-06)
(-7.88505e-05 0 7.96164e-07)
(-7.61163e-05 0 4.38038e-07)
(-7.23057e-05 0 -1.50556e-08)
(-6.75209e-05 0 -5.55623e-07)
(-6.18358e-05 0 -1.1584e-06)
(-5.53148e-05 0 -1.7837e-06)
(-4.80277e-05 0 -2.38723e-06)
(-4.00582e-05 0 -2.93035e-06)
(-3.15059e-05 0 -3.38522e-06)
(-2.24859e-05 0 -3.73432e-06)
(-1.3126e-05 0 -3.96734e-06)
(-3.56495e-06 0 -4.07772e-06)
(6.05129e-06 0 -4.06115e-06)
(1.5574e-05 0 -3.91854e-06)
(2.48589e-05 0 -3.65477e-06)
(3.37697e-05 0 -3.27708e-06)
(4.21816e-05 0 -2.79733e-06)
(4.99835e-05 0 -2.23544e-06)
(5.70798e-05 0 -1.62219e-06)
(6.33908e-05 0 -9.98446e-07)
(6.88491e-05 0 -4.08396e-07)
(7.33896e-05 0 1.11236e-07)
(7.69328e-05 0 5.39824e-07)
(7.93663e-05 0 8.74046e-07)
(8.0532e-05 0 1.12276e-06)
(8.02219e-05 0 1.29977e-06)
(7.8223e-05 0 1.43971e-06)
(7.43631e-05 0 1.61376e-06)
(6.86423e-05 0 1.85854e-06)
(6.12646e-05 0 2.09999e-06)
(5.26585e-05 0 2.21012e-06)
(4.34324e-05 0 2.1419e-06)
(3.42077e-05 0 1.93323e-06)
(2.54935e-05 0 1.64801e-06)
(1.75737e-05 0 1.36322e-06)
(1.0448e-05 0 1.14189e-06)
(3.89442e-06 0 1.0185e-06)
(-2.42881e-06 0 1.00559e-06)
(-8.90312e-06 0 1.1043e-06)
(-1.58861e-05 0 1.30544e-06)
(-2.36365e-05 0 1.58054e-06)
(-3.22147e-05 0 1.87299e-06)
(-4.14058e-05 0 2.10731e-06)
(-5.07437e-05 0 2.21388e-06)
(-5.96307e-05 0 2.14828e-06)
(-6.74462e-05 0 1.92771e-06)
(-7.37121e-05 0 1.6728e-06)
(-7.81829e-05 0 1.48519e-06)
(-8.08123e-05 0 1.35412e-06)
(-8.17381e-05 0 1.20732e-06)
(-8.11655e-05 0 1.00035e-06)
(-7.93061e-05 0 7.15461e-07)
(-7.63286e-05 0 3.40462e-07)
(-7.23525e-05 0 -1.2847e-07)
(-6.74582e-05 0 -6.80044e-07)
(-6.17039e-05 0 -1.28561e-06)
(-5.51441e-05 0 -1.90457e-06)
(-4.78427e-05 0 -2.4947e-06)
(-3.98791e-05 0 -3.02103e-06)
(-3.13493e-05 0 -3.45928e-06)
(-2.23647e-05 0 -3.79445e-06)
(-1.30497e-05 0 -4.0177e-06)
(-3.53901e-06 0 -4.12328e-06)
(9.07581e-06 0 -1.65809e-05)
(2.34166e-05 0 -1.63718e-05)
(3.75934e-05 0 -1.59875e-05)
(5.15133e-05 0 -1.5444e-05)
(6.50929e-05 0 -1.47599e-05)
(7.82555e-05 0 -1.39514e-05)
(9.09218e-05 0 -1.30259e-05)
(0.000102995 0 -1.19769e-05)
(0.000114343 0 -1.07807e-05)
(0.000124787 0 -9.39556e-06)
(0.000134095 0 -7.76017e-06)
(0.000141982 0 -5.79263e-06)
(0.00014811 0 -3.39262e-06)
(0.00015208 0 -4.5984e-07)
(0.000153417 0 3.0261e-06)
(0.000151588 0 6.84056e-06)
(0.000146115 0 1.04844e-05)
(0.000136801 0 1.35007e-05)
(0.000123759 0 1.56349e-05)
(0.000107646 0 1.67921e-05)
(8.95934e-05 0 1.69701e-05)
(7.0811e-05 0 1.62399e-05)
(5.23371e-05 0 1.49671e-05)
(3.47514e-05 0 1.36377e-05)
(1.81086e-05 0 1.26504e-05)
(2.07505e-06 0 1.22357e-05)
(-1.38745e-05 0 1.24735e-05)
(-3.02848e-05 0 1.33158e-05)
(-4.75543e-05 0 1.45731e-05)
(-6.57433e-05 0 1.58859e-05)
(-8.44035e-05 0 1.67714e-05)
(-0.000102582 0 1.68086e-05)
(-0.000119083 0 1.58567e-05)
(-0.00013271 0 1.39109e-05)
(-0.000142663 0 1.10317e-05)
(-0.000148724 0 7.43027e-06)
(-0.000151028 0 3.53136e-06)
(-0.000150009 0 -1.21846e-07)
(-0.000146216 0 -3.2292e-06)
(-0.000140147 0 -5.7764e-06)
(-0.000132225 0 -7.85815e-06)
(-0.00012281 0 -9.57725e-06)
(-0.000112209 0 -1.10199e-05)
(-0.000100668 0 -1.22515e-05)
(-8.83832e-05 0 -1.33178e-05)
(-7.54974e-05 0 -1.42455e-05)
(-6.21174e-05 0 -1.50435e-05)
(-4.83301e-05 0 -1.57063e-05)
(-3.42185e-05 0 -1.62192e-05)
(-1.98708e-05 0 -1.65649e-05)
(-5.38367e-06 0 -1.67293e-05)
(9.14143e-06 0 -1.67048e-05)
(2.36022e-05 0 -1.64924e-05)
(3.78978e-05 0 -1.61019e-05)
(5.19337e-05 0 -1.55486e-05)
(6.56235e-05 0 -1.48496e-05)
(7.88845e-05 0 -1.4018e-05)
(9.16263e-05 0 -1.3056e-05)
(0.000103734 0 -1.19502e-05)
(0.000115053 0 -1.0669e-05)
(0.000125373 0 -9.16178e-06)
(0.000134432 0 -7.35769e-06)
(0.000141912 0 -5.16548e-06)
(0.000147434 0 -2.48088e-06)
(0.00015056 0 7.77724e-07)
(0.000150771 0 4.53827e-06)
(0.000147523 0 8.41444e-06)
(0.000140454 0 1.18602e-05)
(0.000129506 0 1.45105e-05)
(0.000115034 0 1.61996e-05)
(9.79767e-05 0 1.68952e-05)
(7.95622e-05 0 1.66091e-05)
(6.09513e-05 0 1.55659e-05)
(4.298e-05 0 1.42243e-05)
(2.59562e-05 0 1.30472e-05)
(9.71229e-06 0 1.23502e-05)
(-6.20546e-06 0 1.22823e-05)
(-2.23517e-05 0 1.28584e-05)
(-3.92196e-05 0 1.39634e-05)
(-5.70613e-05 0 1.53223e-05)
(-7.56924e-05 0 1.65e-05)
(-9.43968e-05 0 1.70197e-05)
(-0.000112066 0 1.65868e-05)
(-0.000127477 0 1.5174e-05)
(-0.000139589 0 1.27959e-05)
(-0.000147902 0 9.58436e-06)
(-0.000152397 0 5.84307e-06)
(-0.00015335 0 2.07317e-06)
(-0.000151278 0 -1.27762e-06)
(-0.000146706 0 -4.06412e-06)
(-0.000140085 0 -6.3417e-06)
(-0.000131797 0 -8.21403e-06)
(-0.000122169 0 -9.77743e-06)
(-0.000111469 0 -1.11084e-05)
(-9.99172e-05 0 -1.2263e-05)
(-8.76786e-05 0 -1.32783e-05)
(-7.48747e-05 0 -1.41734e-05)
(-6.15962e-05 0 -1.49507e-05)
(-4.79204e-05 0 -1.55999e-05)
(-3.39252e-05 0 -1.61037e-05)
(-1.96963e-05 0 -1.64437e-05)
(-5.32907e-06 0 -1.66053e-05)
(1.01782e-05 0 -3.15348e-05)
(2.62505e-05 0 -3.12022e-05)
(4.21105e-05 0 -3.05869e-05)
(5.76291e-05 0 -2.97074e-05)
(7.26783e-05 0 -2.85838e-05)
(8.71278e-05 0 -2.72301e-05)
(0.000100843 0 -2.5646e-05)
(0.00011368 0 -2.38107e-05)
(0.000125489 0 -2.16813e-05)
(0.000136112 0 -1.91956e-05)
(0.000145391 0 -1.62758e-05)
(0.000153173 0 -1.28328e-05)
(0.000159329 0 -8.7719e-06)
(0.000163756 0 -4.00444e-06)
(0.000166378 0 1.54736e-06)
(0.00016705 0 7.96556e-06)
(0.000165298 0 1.52919e-05)
(0.000160189 0 2.31914e-05)
(0.000150739 0 3.05004e-05)
(0.0001363 0 3.56337e-05)
(0.000117326 0 3.80987e-05)
(9.5277e-05 0 3.82608e-05)
(7.19207e-05 0 3.68149e-05)
(4.85098e-05 0 3.47739e-05)
(2.55639e-05 0 3.30853e-05)
(3.02902e-06 0 3.23388e-05)
(-1.94333e-05 0 3.27482e-05)
(-4.21906e-05 0 3.41849e-05)
(-6.53952e-05 0 3.61577e-05)
(-8.86979e-05 0 3.7793e-05)
(-0.000111026 0 3.80401e-05)
(-0.000130683 0 3.6114e-05)
(-0.000146054 0 3.1549e-05)
(-0.000156392 0 2.45445e-05)
(-0.000162148 0 1.65619e-05)
(-0.000164286 0 8.96584e-06)
(-0.000163804 0 2.25602e-06)
(-0.000161285 0 -3.56204e-06)
(-0.000156912 0 -8.56819e-06)
(-0.000150763 0 -1.28358e-05)
(-0.000142938 0 -1.64487e-05)
(-0.000133571 0 -1.95e-05)
(-0.000122818 0 -2.2081e-05)
(-0.000110845 0 -2.42727e-05)
(-9.78185e-05 0 -2.61416e-05)
(-8.39005e-05 0 -2.77344e-05)
(-6.92428e-05 0 -2.90754e-05)
(-5.39895e-05 0 -3.0168e-05)
(-3.82792e-05 0 -3.10009e-05)
(-2.22476e-05 0 -3.15563e-05)
(-6.02992e-06 0 -3.18185e-05)
(1.02381e-05 0 -3.17794e-05)
(2.64206e-05 0 -3.14402e-05)
(4.23821e-05 0 -3.08113e-05)
(5.79872e-05 0 -2.99097e-05)
(7.30998e-05 0 -2.87521e-05)
(8.75802e-05 0 -2.7347e-05)
(0.000101282 0 -2.5686e-05)
(0.000114052 0 -2.37388e-05)
(0.000125725 0 -2.14532e-05)
(0.000136135 0 -1.87586e-05)
(0.000145117 0 -1.55705e-05)
(0.000152519 0 -1.17965e-05)
(0.000158216 0 -7.34459e-06)
(0.000162116 0 -2.1347e-06)
(0.000164133 0 3.90644e-06)
(0.000164015 0 1.08567e-05)
(0.00016104 0 1.86344e-05)
(0.000154181 0 2.65269e-05)
(0.000142539 0 3.29985e-05)
(0.000125938 0 3.6856e-05)
(0.000105413 0 3.81588e-05)
(8.26889e-05 0 3.74605e-05)
(5.93392e-05 0 3.56375e-05)
(3.62423e-05 0 3.37346e-05)
(1.35893e-05 0 3.25335e-05)
(-8.85445e-06 0 3.24255e-05)
(-3.14705e-05 0 3.34506e-05)
(-5.45503e-05 0 3.53033e-05)
(-7.80263e-05 0 3.72912e-05)
(-0.000101192 0 3.84063e-05)
(-0.000122616 0 3.77028e-05)
(-0.000140524 0 3.45637e-05)
(-0.000153656 0 2.87554e-05)
(-0.000161892 0 2.11336e-05)
(-0.000166028 0 1.33081e-05)
(-0.000167075 0 6.20978e-06)
(-0.000165872 0 2.531e-08)
(-0.000162773 0 -5.31571e-06)
(-0.000157889 0 -9.89213e-06)
(-0.000151299 0 -1.37838e-05)
(-0.000143114 0 -1.7082e-05)
(-0.000133471 0 -1.98809e-05)
(-0.000122524 0 -2.22671e-05)
(-0.000110432 0 -2.43148e-05)
(-9.73521e-05 0 -2.60815e-05)
(-8.34326e-05 0 -2.76045e-05)
(-6.88142e-05 0 -2.8899e-05)
(-5.36304e-05 0 -2.99608e-05)
(-3.80106e-05 0 -3.07735e-05)
(-2.20828e-05 0 -3.13167e-05)
(-5.97649e-06 0 -3.15734e-05)
(1.06601e-05 0 -4.82205e-05)
(2.74746e-05 0 -4.77083e-05)
(4.40173e-05 0 -4.67557e-05)
(6.01229e-05 0 -4.5382e-05)
(7.56278e-05 0 -4.36075e-05)
(9.03696e-05 0 -4.14461e-05)
(0.000104189 0 -3.88988e-05)
(0.00011693 0 -3.59495e-05)
(0.000128444 0 -3.25648e-05)
(0.000138595 0 -2.86974e-05)
(0.000147258 0 -2.42895e-05)
(0.000154325 0 -1.9276e-05)
(0.000159707 0 -1.35849e-05)
(0.000163333 0 -7.13228e-06)
(0.000165134 0 1.99583e-07)
(0.000165036 0 8.58727e-06)
(0.000162952 0 1.81733e-05)
(0.000158779 0 2.87872e-05)
(0.000152209 0 3.98434e-05)
(0.000142208 0 5.0333e-05)
(0.000127167 0 5.82809e-05)
(0.000106764 0 6.18621e-05)
(8.25481e-05 0 6.18648e-05)
(5.65731e-05 0 6.01012e-05)
(3.01338e-05 0 5.82338e-05)
(3.67979e-06 0 5.73344e-05)
(-2.27409e-05 0 5.77953e-05)
(-4.91196e-05 0 5.93821e-05)
(-7.5154e-05 0 6.12006e-05)
(-9.98051e-05 0 6.1703e-05)
(-0.000121131 0 5.90488e-05)
(-0.000137329 0 5.19959e-05)
(-0.000148184 0 4.17916e-05)
(-0.000155212 0 3.06462e-05)
(-0.000159653 0 1.97558e-05)
(-0.000161937 0 9.79543e-06)
(-0.000162183 0 1.03632e-06)
(-0.00016048 0 -6.61984e-06)
(-0.000156906 0 -1.33545e-05)
(-0.000151531 0 -1.9291e-05)
(-0.000144429 0 -2.45126e-05)
(-0.000135691 0 -2.90894e-05)
(-0.000125426 0 -3.30861e-05)
(-0.000113764 0 -3.65615e-05)
(-0.000100852 0 -3.95651e-05)
(-8.68459e-05 0 -4.21327e-05)
(-7.19105e-05 0 -4.42833e-05)
(-5.62157e-05 0 -4.60189e-05)
(-3.99338e-05 0 -4.73286e-05)
(-2.32379e-05 0 -4.8195e-05)
(-6.30202e-06 0 -4.86024e-05)
(1.06989e-05 0 -4.85417e-05)
(2.75894e-05 0 -4.80143e-05)
(4.41948e-05 0 -4.70315e-05)
(6.03414e-05 0 -4.56101e-05)
(7.5856e-05 0 -4.37665e-05)
(9.05671e-05 0 -4.15087e-05)
(0.000104306 0 -3.88307e-05)
(0.000116909 0 -3.57089e-05)
(0.000128222 0 -3.21035e-05)
(0.000138103 0 -2.79622e-05)
(0.000146427 0 -2.32244e-05)
(0.000153089 0 -1.78241e-05)
(0.000158004 0 -1.16893e-05)
(0.000161099 0 -4.7297e-06)
(0.000162305 0 3.19374e-06)
(0.000161539 0 1.22652e-05)
(0.00015871 0 2.25115e-05)
(0.000153667 0 3.35466e-05)
(0.000145801 0 4.45993e-05)
(0.000133671 0 5.42319e-05)
(0.000116031 0 6.01349e-05)
(9.36388e-05 0 6.18006e-05)
(6.8472e-05 0 6.07841e-05)
(4.22861e-05 0 5.89005e-05)
(1.58863e-05 0 5.7549e-05)
(-1.05407e-05 0 5.74438e-05)
(-3.70043e-05 0 5.86571e-05)
(-6.33931e-05 0 6.0629e-05)
(-8.90785e-05 0 6.21085e-05)
(-0.000112506 0 6.13409e-05)
(-0.000131614 0 5.66075e-05)
(-0.000145223 0 4.77528e-05)
(-0.000154183 0 3.69749e-05)
(-0.000160067 0 2.59584e-05)
(-0.000163685 0 1.55696e-05)
(-0.000165244 0 6.29591e-06)
(-0.000164842 0 -1.7985e-06)
(-0.000162559 0 -8.88774e-06)
(-0.000158471 0 -1.51336e-05)
(-0.000152643 0 -2.06418e-05)
(-0.000145152 0 -2.54916e-05)
(-0.000136092 0 -2.97532e-05)
(-0.000125573 0 -3.349e-05)
(-0.000113726 0 -3.67575e-05)
(-0.00010069 0 -3.95998e-05)
(-8.66154e-05 0 -4.20459e-05)
(-7.16594e-05 0 -4.41073e-05)
(-5.59825e-05 0 -4.57792e-05)
(-3.97473e-05 0 -4.70453e-05)
(-2.31179e-05 0 -4.78848e-05)
(-6.25982e-06 0 -4.82798e-05)
(1.07669e-05 0 -6.54336e-05)
(2.77338e-05 0 -6.47194e-05)
(4.43844e-05 0 -6.33873e-05)
(6.05279e-05 0 -6.14587e-05)
(7.59781e-05 0 -5.89564e-05)
(9.05551e-05 0 -5.58983e-05)
(0.000104087 0 -5.22907e-05)
(0.000116415 0 -4.81254e-05)
(0.000127394 0 -4.33791e-05)
(0.000136894 0 -3.80161e-05)
(0.000144804 0 -3.19922e-05)
(0.000151027 0 -2.52575e-05)
(0.000155482 0 -1.77574e-05)
(0.000158099 0 -9.42798e-06)
(0.000158822 0 -1.84308e-07)
(0.000157631 0 1.00841e-05)
(0.000154575 0 2.14608e-05)
(0.00014974 0 3.3902e-05)
(0.000143112 0 4.72187e-05)
(0.000134481 0 6.08918e-05)
(0.0001231 0 7.35625e-05)
(0.000107237 0 8.298e-05)
(8.56302e-05 0 8.71084e-05)
(5.99413e-05 0 8.72186e-05)
(3.2335e-05 0 8.59829e-05)
(4.05653e-06 0 8.52107e-05)
(-2.42567e-05 0 8.55495e-05)
(-5.20266e-05 0 8.6619e-05)
(-7.8236e-05 0 8.6923e-05)
(-0.000100932 0 8.38971e-05)
(-0.000118049 0 7.55731e-05)
(-0.00013016 0 6.33373e-05)
(-0.000139156 0 4.9623e-05)
(-0.000146018 0 3.60175e-05)
(-0.000151024 0 2.32081e-05)
(-0.000154229 0 1.14319e-05)
(-0.000155555 0 7.70548e-07)
(-0.000154936 0 -8.83466e-06)
(-0.000152381 0 -1.74907e-05)
(-0.000147946 0 -2.52817e-05)
(-0.0001417 0 -3.22686e-05)
(-0.000133728 0 -3.85026e-05)
(-0.000124129 0 -4.4031e-05)
(-0.000113021 0 -4.88972e-05)
(-0.000100541 0 -5.31373e-05)
(-8.68411e-05 0 -5.67763e-05)
(-7.20917e-05 0 -5.98247e-05)
(-5.64743e-05 0 -6.22787e-05)
(-4.01796e-05 0 -6.41239e-05)
(-2.34046e-05 0 -6.53406e-05)
(-6.35032e-06 0 -6.59114e-05)
(1.07797e-05 0 -6.58264e-05)
(2.77812e-05 0 -6.50871e-05)
(4.4451e-05 0 -6.37059e-05)
(6.0589e-05 0 -6.17014e-05)
(7.59997e-05 0 -5.90925e-05)
(9.04944e-05 0 -5.58914e-05)
(0.000103894 0 -5.20983e-05)
(0.000116033 0 -4.76988e-05)
(0.000126762 0 -4.26646e-05)
(0.00013595 0 -3.69574e-05)
(0.000143484 0 -3.05326e-05)
(0.000149268 0 -2.33419e-05)
(0.000153222 0 -1.53326e-05)
(0.000155279 0 -6.43934e-06)
(0.000155392 0 3.42939e-06)
(0.00015357 0 1.43788e-05)
(0.000149893 0 2.64369e-05)
(0.000144418 0 3.94839e-05)
(0.000137044 0 5.32176e-05)
(0.000127378 0 6.67371e-05)
(0.000114171 0 7.82191e-05)
(9.55134e-05 0 8.51534e-05)
(7.16767e-05 0 8.7049e-05)
(4.49142e-05 0 8.63337e-05)
(1.69351e-05 0 8.536e-05)
(-1.14196e-05 0 8.53141e-05)
(-3.9597e-05 0 8.63112e-05)
(-6.68655e-05 0 8.74211e-05)
(-9.17273e-05 0 8.65281e-05)
(-0.000111905 0 8.10022e-05)
(-0.000126397 0 7.04793e-05)
(-0.000136935 0 5.73671e-05)
(-0.00014501 0 4.36943e-05)
(-0.00015116 0 3.05765e-05)
(-0.000155538 0 1.83989e-05)
(-0.000158119 0 7.31213e-06)
(-0.000158815 0 -2.67921e-06)
(-0.000157596 0 -1.16761e-05)
(-0.000154495 0 -1.97837e-05)
(-0.000149573 0 -2.70798e-05)
(-0.000142903 0 -3.36252e-05)
(-0.00013457 0 -3.94731e-05)
(-0.000124673 0 -4.4672e-05)
(-0.000113331 0 -4.92643e-05)
(-0.000100675 0 -5.32829e-05)
(-8.68548e-05 0 -5.67474e-05)
(-7.20337e-05 0 -5.96621e-05)
(-5.63854e-05 0 -6.2017e-05)
(-4.00918e-05 0 -6.37926e-05)
(-2.33404e-05 0 -6.49656e-05)
(-6.32278e-06 0 -6.55163e-05)
(1.05781e-05 0 -8.23844e-05)
(2.72333e-05 0 -8.14365e-05)
(4.35413e-05 0 -7.96669e-05)
(5.92946e-05 0 -7.71018e-05)
(7.42932e-05 0 -7.37717e-05)
(8.83476e-05 0 -6.97045e-05)
(0.000101281 0 -6.49202e-05)
(0.000112935 0 -5.94269e-05)
(0.000123167 0 -5.32199e-05)
(0.000131857 0 -4.62827e-05)
(0.000138902 0 -3.85886e-05)
(0.000144217 0 -3.0103e-05)
(0.000147733 0 -2.07838e-05)
(0.000149396 0 -1.05792e-05)
(0.000149172 0 5.72794e-07)
(0.000147065 0 1.27355e-05)
(0.000143138 0 2.59267e-05)
(0.000137495 0 4.00568e-05)
(0.000130239 0 5.49335e-05)
(0.000121441 0 7.02855e-05)
(0.00011098 0 8.55637e-05)
(9.81129e-05 0 9.93561e-05)
(8.10371e-05 0 0.000109172)
(5.84751e-05 0 0.000113448)
(3.21247e-05 0 0.000114169)
(4.13627e-06 0 0.000113973)
(-2.39963e-05 0 0.000113928)
(-5.08541e-05 0 0.000113415)
(-7.45118e-05 0 0.000110128)
(-9.2832e-05 0 0.000101525)
(-0.000106418 0 8.83221e-05)
(-0.000117199 0 7.30738e-05)
(-0.000126194 0 5.75096e-05)
(-0.000133609 0 4.23214e-05)
(-0.000139401 0 2.78209e-05)
(-0.000143469 0 1.42219e-05)
(-0.000145703 0 1.64549e-06)
(-0.000146028 0 -9.90193e-06)
(-0.000144431 0 -2.04729e-05)
(-0.000140942 0 -3.01236e-05)
(-0.000135615 0 -3.89005e-05)
(-0.000128521 0 -4.68408e-05)
(-0.000119749 0 -5.39752e-05)
(-0.000109406 0 -6.03278e-05)
(-9.76211e-05 0 -6.5914e-05)
(-8.45426e-05 0 -7.07388e-05)
(-7.03407e-05 0 -7.47951e-05)
(-5.52021e-05 0 -7.80651e-05)
(-3.93278e-05 0 -8.05236e-05)
(-2.29288e-05 0 -8.21438e-05)
(-6.22393e-06 0 -8.29035e-05)
(1.05641e-05 0 -8.27903e-05)
(2.7211e-05 0 -8.18063e-05)
(4.34949e-05 0 -7.99667e-05)
(5.91987e-05 0 -7.72956e-05)
(7.41135e-05 0 -7.38199e-05)
(8.80419e-05 0 -6.95633e-05)
(0.000100801 0 -6.4541e-05)
(0.000112226 0 -5.8757e-05)
(0.000122174 0 -5.22035e-05)
(0.000130521 0 -4.48625e-05)
(0.000137164 0 -3.67081e-05)
(0.000142022 0 -2.77081e-05)
(0.000145025 0 -1.7823e-05)
(0.000146125 0 -7.00399e-06)
(0.000145301 0 4.80647e-06)
(0.000142582 0 1.76528e-05)
(0.000138056 0 3.1502e-05)
(0.000131834 0 4.62041e-05)
(0.000124011 0 6.15278e-05)
(0.000114589 0 7.71033e-05)
(0.000103231 0 9.20431e-05)
(8.86114e-05 0 0.000104297)
(6.88206e-05 0 0.000111419)
(4.40967e-05 0 0.000113695)
(1.6757e-05 0 0.000113932)
(-1.14678e-05 0 0.000114024)
(-3.91892e-05 0 0.000114154)
(-6.47987e-05 0 0.000112805)
(-8.59871e-05 0 0.000107151)
(-0.000101771 0 9.60489e-05)
(-0.000113874 0 8.16584e-05)
(-0.000123872 0 6.62758e-05)
(-0.000132269 0 5.10118e-05)
(-0.000139115 0 3.63064e-05)
(-0.000144323 0 2.24046e-05)
(-0.000147787 0 9.47669e-06)
(-0.000149409 0 -2.41895e-06)
(-0.00014914 0 -1.33191e-05)
(-0.000146992 0 -2.32889e-05)
(-0.000143002 0 -3.23876e-05)
(-0.00013723 0 -4.06642e-05)
(-0.000129748 0 -4.81589e-05)
(-0.000120647 0 -5.49044e-05)
(-0.000110032 0 -6.09248e-05)
(-9.80315e-05 0 -6.62338e-05)
(-8.47901e-05 0 -7.0833e-05)
(-7.04725e-05 0 -7.47107e-05)
(-5.52587e-05 0 -7.78446e-05)
(-3.93414e-05 0 -8.02055e-05)
(-2.29229e-05 0 -8.17634e-05)
(-6.21202e-06 0 -8.2494e-05)
(1.01461e-05 0 -9.88563e-05)
(2.61084e-05 0 -9.76592e-05)
(4.17054e-05 0 -9.54239e-05)
(5.67202e-05 0 -9.2184e-05)
(7.09464e-05 0 -8.79804e-05)
(8.41912e-05 0 -8.28549e-05)
(9.62787e-05 0 -7.68441e-05)
(0.000107053 0 -6.99756e-05)
(0.000116379 0 -6.2265e-05)
(0.000124144 0 -5.37161e-05)
(0.000130257 0 -4.43215e-05)
(0.000134644 0 -3.40641e-05)
(0.000137252 0 -2.29189e-05)
(0.000138043 0 -1.0855e-05)
(0.000137007 0 2.15917e-06)
(0.000134166 0 1.61426e-05)
(0.000129588 0 3.10694e-05)
(0.000123376 0 4.68354e-05)
(0.000115642 0 6.32532e-05)
(0.000106503 0 8.00496e-05)
(9.60378e-05 0 9.68202e-05)
(8.41579e-05 0 0.000112889)
(7.00266e-05 0 0.000126751)
(5.19172e-05 0 0.000136102)
(2.92074e-05 0 0.000140339)
(3.86927e-06 0 0.000141393)
(-2.17332e-05 0 0.000140577)
(-4.53009e-05 0 0.000137102)
(-6.45633e-05 0 0.000128903)
(-7.9434e-05 0 0.000115778)
(-9.16263e-05 0 9.98845e-05)
(-0.000102268 0 8.30152e-05)
(-0.000111558 0 6.59892e-05)
(-0.000119434 0 4.92513e-05)
(-0.000125783 0 3.31043e-05)
(-0.00013049 0 1.77584e-05)
(-0.000133449 0 3.34294e-06)
(-0.00013458 0 -1.00948e-05)
(-0.000133853 0 -2.25597e-05)
(-0.000131276 0 -3.40734e-05)
(-0.000126885 0 -4.46586e-05)
(-0.000120735 0 -5.43332e-05)
(-0.000112902 0 -6.31087e-05)
(-0.000103483 0 -7.09883e-05)
(-9.25985e-05 0 -7.79656e-05)
(-8.03901e-05 0 -8.40234e-05)
(-6.70241e-05 0 -8.91345e-05)
(-5.2687e-05 0 -9.32633e-05)
(-3.75828e-05 0 -9.63706e-05)
(-2.19295e-05 0 -9.84192e-05)
(-5.95509e-06 0 -9.93798e-05)
(1.01066e-05 0 -9.92367e-05)
(2.60202e-05 0 -9.79924e-05)
(4.15528e-05 0 -9.56666e-05)
(5.64789e-05 0 -9.22911e-05)
(7.05836e-05 0 -8.79043e-05)
(8.3667e-05 0 -8.2545e-05)
(9.55477e-05 0 -7.62467e-05)
(0.000106066 0 -6.90343e-05)
(0.000115084 0 -6.0922e-05)
(0.000122489 0 -5.19138e-05)
(0.00012819 0 -4.2004e-05)
(0.000132116 0 -3.11796e-05)
(0.000134216 0 -1.94208e-05)
(0.000134461 0 -6.70479e-06)
(0.000132851 0 6.98779e-06)
(0.00012943 0 2.16522e-05)
(0.000124286 0 3.72218e-05)
(0.000117529 0 5.35454e-05)
(0.000109277 0 7.03925e-05)
(9.96336e-05 0 8.74273e-05)
(8.8632e-05 0 0.00010415)
(7.59034e-05 0 0.00011955)
(6.00391e-05 0 0.000131557)
(3.95185e-05 0 0.000138375)
(1.51876e-05 0 0.000140975)
(-1.05598e-05 0 0.000141318)
(-3.54548e-05 0 0.000139637)
(-5.70837e-05 0 0.000134202)
(-7.4002e-05 0 0.000123498)
(-8.73998e-05 0 0.000108847)
(-9.88778e-05 0 9.2497e-05)
(-0.000109002 0 7.56722e-05)
(-0.000117787 0 5.89407e-05)
(-0.000125136 0 4.26695e-05)
(-0.000130935 0 2.71061e-05)
(-0.000135071 0 1.24176e-05)
(-0.000137448 0 -1.31451e-06)
(-0.000138009 0 -1.408e-05)
(-0.000136743 0 -2.59028e-05)
(-0.000133669 0 -3.68153e-05)
(-0.000128827 0 -4.68468e-05)
(-0.000122277 0 -5.60207e-05)
(-0.000114096 0 -6.43517e-05)
(-0.000104382 0 -7.18443e-05)
(-9.3252e-05 0 -7.84919e-05)
(-8.08476e-05 0 -8.42756e-05)
(-6.73298e-05 0 -8.91651e-05)
(-5.28792e-05 0 -9.3122e-05)
(-3.76926e-05 0 -9.61041e-05)
(-2.19794e-05 0 -9.8072e-05)
(-5.9584e-06 0 -9.89948e-05)
(9.51649e-06 0 -0.000114458)
(2.44765e-05 0 -0.000113002)
(3.90639e-05 0 -0.000110285)
(5.30594e-05 0 -0.00010635)
(6.62558e-05 0 -0.00010125)
(7.84622e-05 0 -9.5045e-05)
(8.95073e-05 0 -8.77903e-05)
(9.9242e-05 0 -7.95358e-05)
(0.000107541 0 -7.03201e-05)
(0.000114301 0 -6.01691e-05)
(0.000119444 0 -4.90966e-05)
(0.000122911 0 -3.71051e-05)
(0.000124663 0 -2.41891e-05)
(0.000124684 0 -1.03398e-05)
(0.00012298 0 4.44587e-06)
(0.000119587 0 2.01509e-05)
(0.000114578 0 3.67129e-05)
(0.000108054 0 5.40047e-05)
(0.000100129 0 7.18293e-05)
(9.09306e-05 0 8.99214e-05)
(8.05746e-05 0 0.000107931)
(6.91497e-05 0 0.000125366)
(5.6539e-05 0 0.000141349)
(4.18398e-05 0 0.000154222)
(2.39013e-05 0 0.000162155)
(3.27791e-06 0 0.000164912)
(-1.76687e-05 0 0.000163047)
(-3.6417e-05 0 0.000156196)
(-5.18069e-05 0 0.000144195)
(-6.47387e-05 0 0.000128575)
(-7.63147e-05 0 0.000111176)
(-8.6802e-05 0 9.30336e-05)
(-9.61264e-05 0 7.47011e-05)
(-0.000104175 0 5.65526e-05)
(-0.00011082 0 3.88745e-05)
(-0.000115944 0 2.18838e-05)
(-0.00011944 0 5.73053e-06)
(-0.00012123 0 -9.50273e-06)
(-0.000121269 0 -2.37824e-05)
(-0.000119547 0 -3.70988e-05)
(-0.000116081 0 -4.945e-05)
(-0.000110911 0 -6.08323e-05)
(-0.000104096 0 -7.12357e-05)
(-9.57219e-05 0 -8.06405e-05)
(-8.58967e-05 0 -8.90164e-05)
(-7.4754e-05 0 -9.63218e-05)
(-6.24524e-05 0 -0.000102506)
(-4.91736e-05 0 -0.000107514)
(-3.51196e-05 0 -0.000111288)
(-2.05088e-05 0 -0.000113779)
(-5.57152e-06 0 -0.000114947)
(9.45455e-06 0 -0.000114773)
(2.43299e-05 0 -0.00011326)
(3.88183e-05 0 -0.000110433)
(5.2692e-05 0 -0.000106334)
(6.57364e-05 0 -0.000101016)
(7.77545e-05 0 -9.45361e-05)
(8.85702e-05 0 -8.69488e-05)
(9.80315e-05 0 -7.83027e-05)
(0.000106011 0 -6.86363e-05)
(0.000112407 0 -5.79773e-05)
(0.000117141 0 -4.63427e-05)
(0.000120158 0 -3.37405e-05)
(0.000121424 0 -2.01733e-05)
(0.000120929 0 -5.64406e-06)
(0.000118692 0 9.83306e-06)
(0.000114765 0 2.62142e-05)
(0.000109235 0 4.34005e-05)
(0.000102214 0 6.12243e-05)
(9.38227e-05 0 7.94515e-05)
(8.41867e-05 0 9.77747e-05)
(7.34125e-05 0 0.00011579)
(6.15417e-05 0 0.000132858)
(4.81047e-05 0 0.000147743)
(3.18716e-05 0 0.000158489)
(1.2348e-05 0 0.000163978)
(-8.76654e-06 0 0.000164652)
(-2.88823e-05 0 0.000160617)
(-4.59313e-05 0 0.0001513)
(-5.99579e-05 0 0.000137416)
(-7.22129e-05 0 0.000120934)
(-8.33662e-05 0 0.000103286)
(-9.34319e-05 0 8.52161e-05)
(-0.000102312 0 6.71631e-05)
(-0.000109884 0 4.94539e-05)
(-0.000116026 0 3.23349e-05)
(-0.000120624 0 1.59855e-05)
(-0.000123583 0 5.14882e-07)
(-0.000124841 0 -1.40289e-05)
(-0.00012437 0 -2.76357e-05)
(-0.000122169 0 -4.03114e-05)
(-0.000118262 0 -5.20644e-05)
(-0.000112692 0 -6.28985e-05)
(-0.000105523 0 -7.28084e-05)
(-9.68401e-05 0 -8.17775e-05)
(-8.67515e-05 0 -8.97763e-05)
(-7.5389e-05 0 -9.67632e-05)
(-6.29078e-05 0 -0.000102687)
(-4.94844e-05 0 -0.000107489)
(-3.53144e-05 0 -0.000111112)
(-2.06085e-05 0 -0.000113504)
(-5.58863e-06 0 -0.000114626)
(8.72625e-06 0 -0.000128921)
(2.24327e-05 0 -0.000127206)
(3.57695e-05 0 -0.000124006)
(4.852e-05 0 -0.000119375)
(6.04815e-05 0 -0.000113382)
(7.14695e-05 0 -0.000106105)
(8.13211e-05 0 -9.76223e-05)
(8.9897e-05 0 -8.8007e-05)
(9.70832e-05 0 -7.73222e-05)
(0.00010279 0 -6.56176e-05)
(0.000106953 0 -5.29296e-05)
(0.000109529 0 -3.92822e-05)
(0.000110496 0 -2.46912e-05)
(0.000109855 0 -9.17049e-06)
(0.000107631 0 7.25713e-06)
(0.000103873 0 2.4545e-05)
(9.86598e-05 0 4.26025e-05)
(9.20941e-05 0 6.12818e-05)
(8.42945e-05 0 8.03714e-05)
(7.53941e-05 0 9.95973e-05)
(6.55344e-05 0 0.000118616)
(5.48602e-05 0 0.000136995)
(4.35079e-05 0 0.000154073)
(3.13206e-05 0 0.000168634)
(1.76834e-05 0 0.000178781)
(2.51945e-06 0 0.000182827)
(-1.28627e-05 0 0.000180147)
(-2.6913e-05 0 0.000171123)
(-3.93579e-05 0 0.000157205)
(-5.08075e-05 0 0.000140358)
(-6.15594e-05 0 0.000121976)
(-7.15071e-05 0 0.000102821)
(-8.05014e-05 0 8.33559e-05)
(-8.83992e-05 0 6.39425e-05)
(-9.50637e-05 0 4.48733e-05)
(-0.000100371 0 2.6379e-05)
(-0.000104215 0 8.62912e-06)
(-0.000106511 0 -8.26581e-06)
(-0.000107203 0 -2.42413e-05)
(-0.000106264 0 -3.92594e-05)
(-0.000103691 0 -5.32935e-05)
(-9.95077e-05 0 -6.63166e-05)
(-9.3758e-05 0 -7.82954e-05)
(-8.65117e-05 0 -8.91858e-05)
(-7.7864e-05 0 -9.89318e-05)
(-6.79367e-05 0 -0.000107466)
(-5.68779e-05 0 -0.000114714)
(-4.48606e-05 0 -0.000120595)
(-3.20799e-05 0 -0.000125035)
(-1.87493e-05 0 -0.000127967)
(-5.09567e-06 0 -0.000129342)
(8.64593e-06 0 -0.000129137)
(2.22383e-05 0 -0.000127355)
(3.54478e-05 0 -0.000124028)
(4.80507e-05 0 -0.000119208)
(5.98378e-05 0 -0.000112966)
(7.06192e-05 0 -0.000105377)
(8.02283e-05 0 -9.6522e-05)
(8.85237e-05 0 -8.64733e-05)
(9.53905e-05 0 -7.52956e-05)
(0.00010074 0 -6.30419e-05)
(0.00010451 0 -4.97533e-05)
(0.00010666 0 -3.54611e-05)
(0.000107176 0 -2.01911e-05)
(0.000106065 0 -3.9721e-06)
(0.000103361 0 1.31529e-05)
(9.91289e-05 0 3.11091e-05)
(9.34584e-05 0 4.97715e-05)
(8.64616e-05 0 6.89548e-05)
(7.82658e-05 0 8.84127e-05)
(6.90103e-05 0 0.000107835)
(5.88388e-05 0 0.000126841)
(4.7903e-05 0 0.000144918)
(3.62493e-05 0 0.000161172)
(2.34361e-05 0 0.000174011)
(8.95079e-06 0 0.000181484)
(-6.5477e-06 0 0.000182415)
(-2.13891e-05 0 0.000176682)
(-3.45946e-05 0 0.000165195)
(-4.65163e-05 0 0.00014982)
(-5.76984e-05 0 0.000132316)
(-6.8176e-05 0 0.00011372)
(-7.78006e-05 0 9.46104e-05)
(-8.64285e-05 0 7.53892e-05)
(-9.392e-05 0 5.63818e-05)
(-0.000100145 0 3.78457e-05)
(-0.000104989 0 1.99756e-05)
(-0.000108355 0 2.90368e-06)
(-0.000110171 0 -1.32924e-05)
(-0.000110395 0 -2.85739e-05)
(-0.000109009 0 -4.29217e-05)
(-0.000106018 0 -5.63221e-05)
(-0.000101448 0 -6.87578e-05)
(-9.53495e-05 0 -8.02016e-05)
(-8.77923e-05 0 -9.0614e-05)
(-7.88726e-05 0 -9.99414e-05)
(-6.8711e-05 0 -0.000108118)
(-5.74532e-05 0 -0.000115069)
(-4.52679e-05 0 -0.000120715)
(-3.23447e-05 0 -0.000124979)
(-1.88905e-05 0 -0.000127797)
(-5.12449e-06 0 -0.000129119)
(7.80589e-06 0 -0.000142016)
(2.00559e-05 0 -0.000140047)
(3.19478e-05 0 -0.000136374)
(4.3273e-05 0 -0.000131063)
(5.38379e-05 0 -0.000124201)
(6.34684e-05 0 -0.000115886)
(7.20131e-05 0 -0.000106219)
(7.93453e-05 0 -9.5299e-05)
(8.53648e-05 0 -8.32144e-05)
(8.99967e-05 0 -7.004e-05)
(9.31912e-05 0 -5.58359e-05)
(9.49221e-05 0 -4.06489e-05)
(9.51854e-05 0 -2.45167e-05)
(9.39992e-05 0 -7.47561e-06)
(9.14041e-05 0 1.04277e-05)
(8.74643e-05 0 2.91212e-05)
(8.2268e-05 0 4.84908e-05)
(7.59243e-05 0 6.83686e-05)
(6.85604e-05 0 8.85268e-05)
(6.03215e-05 0 0.000108675)
(5.13719e-05 0 0.000128455)
(4.19e-05 0 0.000147423)
(3.21328e-05 0 0.000164962)
(2.22566e-05 0 0.000180023)
(1.21939e-05 0 0.00019084)
(1.81074e-06 0 0.000195331)
(-8.62274e-06 0 0.000192357)
(-1.8745e-05 0 0.000182636)
(-2.86076e-05 0 0.00016815)
(-3.83475e-05 0 0.000150825)
(-4.7827e-05 0 0.00013187)
(-5.68111e-05 0 0.000111968)
(-6.51019e-05 0 9.15901e-05)
(-7.25286e-05 0 7.11132e-05)
(-7.89406e-05 0 5.08456e-05)
(-8.42055e-05 0 3.10348e-05)
(-8.82093e-05 0 1.18693e-05)
(-9.08586e-05 0 -6.51608e-06)
(-9.20846e-05 0 -2.40307e-05)
(-9.18436e-05 0 -4.06113e-05)
(-9.01158e-05 0 -5.62068e-05)
(-8.69053e-05 0 -7.07666e-05)
(-8.22402e-05 0 -8.42328e-05)
(-7.6174e-05 0 -9.65357e-05)
(-6.8787e-05 0 -0.000107592)
(-6.01864e-05 0 -0.000117309)
(-5.05072e-05 0 -0.000125584)
(-3.99101e-05 0 -0.000132313)
(-2.85794e-05 0 -0.000137401)
(-1.67185e-05 0 -0.000140764)
(-4.54584e-06 0 -0.000142343)
(7.71187e-06 0 -0.000142108)
(1.98254e-05 0 -0.000140063)
(3.15694e-05 0 -0.000136247)
(4.27291e-05 0 -0.000130725)
(5.31053e-05 0 -0.000123586)
(6.25197e-05 0 -0.000114928)
(7.08179e-05 0 -0.000104854)
(7.78721e-05 0 -9.3466e-05)
(8.3582e-05 0 -8.08539e-05)
(8.78745e-05 0 -6.70976e-05)
(9.07026e-05 0 -5.22636e-05)
(9.20447e-05 0 -3.64073e-05)
(9.19029e-05 0 -1.95786e-05)
(9.0303e-05 0 -1.83053e-06)
(8.72952e-05 0 1.67682e-05)
(8.29548e-05 0 3.61164e-05)
(7.73808e-05 0 5.60666e-05)
(7.06922e-05 0 7.6415e-05)
(6.30262e-05 0 9.68987e-05)
(5.45383e-05 0 0.000117192)
(4.5405e-05 0 0.0001369)
(3.58348e-05 0 0.000155513)
(2.60607e-05 0 0.000172247)
(1.61517e-05 0 0.000185704)
(5.93638e-06 0 0.000193836)
(-4.52838e-06 0 0.000194865)
(-1.48351e-05 0 0.000188561)
(-2.48284e-05 0 0.000176437)
(-3.46815e-05 0 0.000160594)
(-4.43953e-05 0 0.000142607)
(-5.37518e-05 0 0.000123378)
(-6.25339e-05 0 0.000103464)
(-7.05606e-05 0 8.32805e-05)
(-7.76727e-05 0 6.31692e-05)
(-8.37298e-05 0 4.34032e-05)
(-8.86092e-05 0 2.41945e-05)
(-9.2207e-05 0 5.69628e-06)
(-9.4441e-05 0 -1.19895e-05)
(-9.52532e-05 0 -2.8799e-05)
(-9.46092e-05 0 -4.46897e-05)
(-9.24965e-05 0 -5.96258e-05)
(-8.89247e-05 0 -7.35677e-05)