/*--------------------------------*- C++ -*----------------------------------*\
| =========                 |                                                 |
| \\      /  F ield         | OpenFOAM: The Open Source CFD Toolbox           |
|  \\    /   O peration     | Version:  2.3.0                                 |
|   \\  /    A nd           | Web:      www.OpenFOAM.org                      |
|    \\/     M anipulation  |                                                 |
\*---------------------------------------------------------------------------*/
FoamFile
{
    version     2.0;
    format      ascii;
    class       volVectorField;
    location    "9000";
    object      U;
}
// * * * * * * * * * * * * * * * * * * * * * * * * * * * * * * * * * * * * * //

dimensions      [0 1 -1 0 0 0 0];

internalField   nonuniform List<vector> 
765
(
(2.04537 0 -2.29229)
(5.23243 0 -2.20037)
(8.191 0 -2.01416)
(10.7797 0 -1.71981)
(12.8562 0 -1.29835)
(14.2645 0 -0.708141)
(14.8122 0 0.113728)
(14.2549 0 1.10497)
(12.399 0 1.73088)
(9.52738 0 1.66035)
(6.165 0 1.34579)
(2.98871 0 1.02082)
(0.286717 0 0.845497)
(-2.34647 0 0.958949)
(-5.40719 0 1.27136)
(-8.79706 0 1.59835)
(-11.8305 0 1.7567)
(-13.9605 0 1.31172)
(-14.8092 0 0.335219)
(-14.4929 0 -0.539933)
(-13.266 0 -1.17784)
(-11.3316 0 -1.6327)
(-8.85185 0 -1.95381)
(-5.96995 0 -2.16383)
(-2.82626 0 -2.27668)
(0.438067 0 -2.30578)
(3.68394 0 -2.2553)
(6.77171 0 -2.11785)
(9.56008 0 -1.87966)
(11.9091 0 -1.52624)
(13.6731 0 -1.02968)
(14.6813 0 -0.333574)
(14.7195 0 0.594969)
(13.5287 0 1.50993)
(11.1148 0 1.74944)
(7.9297 0 1.517)
(4.55891 0 1.18512)
(1.63285 0 0.900328)
(-0.951636 0 0.861926)
(-3.75472 0 1.10005)
(-7.04803 0 1.4312)
(-10.3413 0 1.71456)
(-12.9997 0 1.64974)
(-14.5267 0 0.85186)
(-14.7753 0 -0.118688)
(-13.9888 0 -0.876817)
(-12.3951 0 -1.41841)
(-10.1756 0 -1.80493)
(-7.48062 0 -2.07066)
(-4.45114 0 -2.23185)
(-1.2289 0 -2.30233)
(2.27409 0 -4.93632)
(5.80164 0 -4.68507)
(9.04032 0 -4.21776)
(11.8376 0 -3.54281)
(14.0661 0 -2.66349)
(15.6301 0 -1.57129)
(16.4791 0 -0.255204)
(16.6024 0 1.26718)
(15.9776 0 2.98946)
(14.0577 0 4.79956)
(10.3498 0 5.54427)
(5.59009 0 5.06152)
(0.556416 0 4.66321)
(-4.4583 0 4.9267)
(-9.35392 0 5.48428)
(-13.3702 0 5.13823)
(-15.7211 0 3.40985)
(-16.5531 0 1.64205)
(-16.5965 0 0.078246)
(-15.9147 0 -1.28642)
(-14.5147 0 -2.42766)
(-12.4351 0 -3.35339)
(-9.76205 0 -4.07473)
(-6.61576 0 -4.59092)
(-3.14258 0 -4.89395)
(0.488605 0 -4.97621)
(4.09529 0 -4.83455)
(7.49722 0 -4.47391)
(10.5311 0 -3.90265)
(13.0573 0 -3.1279)
(14.9636 0 -2.14745)
(16.1755 0 -0.948677)
(16.6657 0 0.469658)
(16.4303 0 2.08258)
(15.3081 0 3.89303)
(12.4598 0 5.41669)
(8.14304 0 5.36848)
(3.14704 0 4.79126)
(-1.84625 0 4.70067)
(-6.88204 0 5.22029)
(-11.4429 0 5.54251)
(-14.7473 0 4.35909)
(-16.2292 0 2.52734)
(-16.6524 0 0.860561)
(-16.3447 0 -0.611054)
(-15.3122 0 -1.86898)
(-13.5733 0 -2.90517)
(-11.1906 0 -3.73217)
(-8.26896 0 -4.35529)
(-4.94213 0 -4.769)
(-1.36853 0 -4.96469)
(2.15808 0 -8.52475)
(5.49585 0 -8.06171)
(8.53258 0 -7.2151)
(11.116 0 -6.02257)
(13.1276 0 -4.52069)
(14.4853 0 -2.73531)
(15.1431 0 -0.680868)
(15.0658 0 1.64149)
(14.2303 0 4.2756)
(12.6572 0 7.08955)
(10.1859 0 9.50599)
(6.09564 0 10.5702)
(0.624059 0 10.5604)
(-4.92803 0 10.5989)
(-9.47338 0 9.9152)
(-12.2062 0 7.70208)
(-13.9586 0 4.91719)
(-14.9652 0 2.21425)
(-15.2172 0 -0.170474)
(-14.726 0 -2.28243)
(-13.5287 0 -4.12787)
(-11.6645 0 -5.69486)
(-9.2065 0 -6.96093)
(-6.26452 0 -7.89163)
(-2.98269 0 -8.4485)
(0.465018 0 -8.6012)
(3.88698 0 -8.33887)
(7.0945 0 -7.67909)
(9.9208 0 -6.65571)
(12.2307 0 -5.30745)
(13.9241 0 -3.66618)
(14.9376 0 -1.75126)
(15.2363 0 0.427919)
(14.7836 0 2.88946)
(13.584 0 5.65571)
(11.6096 0 8.36443)
(8.50765 0 10.267)
(3.51963 0 10.5903)
(-2.07361 0 10.5694)
(-7.36908 0 10.473)
(-10.9321 0 8.96418)
(-13.1432 0 6.37631)
(-14.5269 0 3.56964)
(-15.171 0 1.0226)
(-15.0579 0 -1.2278)
(-14.2198 0 -3.21342)
(-12.6909 0 -4.9278)
(-10.5255 0 -6.35393)
(-7.81501 0 -7.46267)
(-4.68669 0 -8.2159)
(-1.30057 0 -8.57745)
(1.90071 0 -11.8592)
(4.8314 0 -11.1804)
(7.46962 0 -9.94819)
(9.66906 0 -8.23229)
(11.3187 0 -6.10578)
(12.3428 0 -3.63131)
(12.6972 0 -0.856766)
(12.3587 0 2.18175)
(11.3465 0 5.46193)
(9.73965 0 8.90741)
(7.63203 0 12.2437)
(4.75596 0 14.7688)
(0.534012 0 15.7394)
(-3.96305 0 15.1344)
(-7.08738 0 12.9245)
(-9.32254 0 9.68889)
(-11.0503 0 6.24044)
(-12.2069 0 2.91304)
(-12.7054 0 -0.178743)
(-12.5099 0 -3.01265)
(-11.6389 0 -5.55633)
(-10.1302 0 -7.76559)
(-8.05125 0 -9.58175)
(-5.50435 0 -10.9336)
(-2.62734 0 -11.7491)
(0.410991 0 -11.9734)
(3.4243 0 -11.5883)
(6.22909 0 -10.6239)
(8.66396 0 -9.14189)
(10.6004 0 -7.21569)
(11.9458 0 -4.91409)
(12.641 0 -2.29178)
(12.6542 0 0.61017)
(11.9755 0 3.7632)
(10.6589 0 7.13899)
(8.80005 0 10.5724)
(6.3868 0 13.6364)
(2.92708 0 15.4464)
(-1.76206 0 15.645)
(-5.60494 0 14.2518)
(-8.23237 0 11.4227)
(-10.2134 0 8.02111)
(-11.678 0 4.60228)
(-12.5251 0 1.38421)
(-12.6864 0 -1.58766)
(-12.1594 0 -4.28821)
(-10.9716 0 -6.67847)
(-9.17448 0 -8.70695)
(-6.85232 0 -10.3075)
(-4.12519 0 -11.4061)
(-1.1475 0 -11.9366)
(1.54174 0 -14.5698)
(3.90928 0 -13.6934)
(6.01084 0 -12.1097)
(7.71588 0 -9.92041)
(8.92953 0 -7.23398)
(9.59257 0 -4.14524)
(9.67771 0 -0.728521)
(9.1837 0 2.95377)
(8.1475 0 6.82661)
(6.65054 0 10.7506)
(4.83445 0 14.4808)
(2.78977 0 17.5685)
(0.298435 0 19.0204)
(-2.28997 0 18.0826)
(-4.41068 0 15.26)
(-6.27652 0 11.6265)
(-7.86231 0 7.72585)
(-9.01203 0 3.8285)
(-9.63623 0 0.0991417)
(-9.68594 0 -3.37911)
(-9.156 0 -6.54501)
(-8.06691 0 -9.32911)
(-6.46979 0 -11.6418)
(-4.45059 0 -13.3771)
(-2.1314 0 -14.4294)
(0.334829 0 -14.7195)
(2.77822 0 -14.2217)
(5.03165 0 -12.9788)
(6.94942 0 -11.08)
(8.41891 0 -8.63341)
(9.36377 0 -5.7419)
(9.74154 0 -2.48941)
(9.53861 0 1.05841)
(8.76896 0 4.83815)
(7.49463 0 8.75421)
(5.8176 0 12.6139)
(3.89725 0 16.1081)
(1.66584 0 18.553)
(-0.992493 0 18.8692)
(-3.35347 0 16.8819)
(-5.33002 0 13.561)
(-7.08257 0 9.75329)
(-8.47138 0 5.82486)
(-9.37624 0 1.99441)
(-9.72458 0 -1.62374)
(-9.49195 0 -4.96136)
(-8.68582 0 -7.95462)
(-7.34107 0 -10.5242)
(-5.52554 0 -12.5706)
(-3.34326 0 -13.9846)
(-0.932919 0 -14.6699)
(1.11652 0 -16.6814)
(2.82066 0 -15.6302)
(4.30195 0 -13.7371)
(5.45465 0 -11.1359)
(6.20729 0 -7.97065)
(6.5233 0 -4.37063)
(6.3986 0 -0.441454)
(5.85854 0 3.72329)
(4.96199 0 8.00939)
(3.80152 0 12.2406)
(2.51111 0 16.1488)
(1.27457 0 19.2719)
(0.123536 0 20.7268)
(-1.01955 0 19.7859)
(-2.23196 0 16.9487)
(-3.52637 0 13.1693)
(-4.73107 0 8.98882)
(-5.69722 0 4.70069)
(-6.32631 0 0.501563)
(-6.5506 0 -3.48459)
(-6.33783 0 -7.1643)
(-5.68499 0 -10.4374)
(-4.62061 0 -13.181)
(-3.20762 0 -15.253)
(-1.54374 0 -16.5146)
(0.243926 0 -16.863)
(2.01231 0 -16.2654)
(3.62095 0 -14.7766)
(4.9496 0 -12.5127)
(5.90957 0 -9.61653)
(6.44734 0 -6.22649)
(6.54307 0 -2.45903)
(6.20761 0 1.58986)
(5.48138 0 5.82271)
(4.44159 0 10.1023)
(3.1951 0 14.2089)
(1.90851 0 17.8103)
(0.720521 0 20.2581)
(-0.419173 0 20.5756)
(-1.58598 0 18.5867)
(-2.85089 0 15.1971)
(-4.12567 0 11.1763)
(-5.22934 0 6.91154)
(-6.04326 0 2.64622)
(-6.4821 0 -1.46501)
(-6.49662 0 -5.31745)
(-6.06869 0 -8.81667)
(-5.21032 0 -11.8514)
(-3.96663 0 -14.2871)
(-2.41796 0 -15.9792)
(-0.677829 0 -16.8016)
(0.647092 0 -18.074)
(1.62259 0 -16.8841)
(2.43462 0 -14.7482)
(3.01045 0 -11.8296)
(3.30735 0 -8.30588)
(3.31375 0 -4.3393)
(3.04806 0 -0.0666805)
(2.55735 0 4.38798)
(1.91568 0 8.87968)
(1.22009 0 13.2023)
(0.589265 0 17.0582)
(0.171258 0 19.9967)
(0.00814487 0 21.3052)
(-0.120134 0 20.4642)
(-0.476228 0 17.8262)
(-1.07308 0 14.1337)
(-1.76614 0 9.89147)
(-2.42989 0 5.42167)
(-2.96345 0 0.949462)
(-3.28667 0 -3.3703)
(-3.34631 0 -7.41375)
(-3.11718 0 -11.05)
(-2.60365 0 -14.1236)
(-1.84095 0 -16.459)
(-0.894866 0 -17.8865)
(0.142924 0 -18.2813)
(1.16636 0 -17.6042)
(2.07173 0 -15.921)
(2.77342 0 -13.3728)
(3.21357 0 -10.1347)
(3.36526 0 -6.37839)
(3.23208 0 -2.25236)
(2.84695 0 2.117)
(2.2699 0 6.60211)
(1.5873 0 11.0347)
(0.90479 0 15.1669)
(0.356935 0 18.644)
(0.0715259 0 20.89)
(-0.0350897 0 21.1724)
(-0.25375 0 19.3678)
(-0.740571 0 16.1361)
(-1.40205 0 12.1276)
(-2.0947 0 7.73978)
(-2.70699 0 3.24432)
(-3.14692 0 -1.17314)
(-3.34746 0 -5.37765)
(-3.26851 0 -9.24431)
(-2.89911 0 -12.6303)
(-2.25859 0 -15.3677)
(-1.39747 0 -17.2788)
(-0.39534 0 -18.2101)
(0.148982 0 -18.6996)
(0.355137 0 -17.4178)
(0.472318 0 -15.1249)
(0.467601 0 -12.0085)
(0.330249 0 -8.27389)
(0.0727759 0 -4.11132)
(-0.268816 0 0.315172)
(-0.6357 0 4.85636)
(-0.951167 0 9.34768)
(-1.12843 0 13.5687)
(-1.07916 0 17.2146)
(-0.722466 0 19.8713)
(-0.0807504 0 21.0079)
(0.59773 0 20.2816)
(1.02758 0 17.9226)
(1.13951 0 14.4628)
(1.00532 0 10.3463)
(0.712896 0 5.899)
(0.349842 0 1.35857)
(-0.00397077 0 -3.10166)
(-0.285248 0 -7.33375)
(-0.452539 0 -11.18)
(-0.487865 0 -14.4571)
(-0.396517 0 -16.9618)
(-0.206334 0 -18.4987)
(0.0351594 0 -18.9245)
(0.268525 0 -18.1944)
(0.43629 0 -16.3836)
(0.495679 0 -13.6544)
(0.424698 0 -10.2083)
(0.224195 0 -6.24499)
(-0.0816567 0 -1.94055)
(-0.445206 0 2.55229)
(-0.798455 0 7.08365)
(-1.05871 0 11.4678)
(-1.13792 0 15.4464)
(-0.948823 0 18.6675)
(-0.438488 0 20.6523)
(0.263099 0 20.895)
(0.84602 0 19.3155)
(1.11767 0 16.3573)
(1.0998 0 12.5309)
(0.878087 0 8.21778)
(0.540863 0 3.6988)
(0.173154 0 -0.824302)
(-0.152473 0 -5.19585)
(-0.382523 0 -9.26492)
(-0.486968 0 -12.8612)
(-0.45922 0 -15.7887)
(-0.315791 0 -17.8426)
(-0.0947695 0 -18.8464)
(-0.364996 0 -18.5244)
(-0.948909 0 -17.2076)
(-1.5343 0 -14.8608)
(-2.10942 0 -11.6877)
(-2.65183 0 -7.91131)
(-3.12768 0 -3.74041)
(-3.49037 0 0.642068)
(-3.68048 0 5.0709)
(-3.63138 0 9.37376)
(-3.27884 0 13.3322)
(-2.57469 0 16.6596)
(-1.50579 0 19.0007)
(-0.157647 0 19.9719)
(1.22409 0 19.3541)
(2.36887 0 17.2929)
(3.15591 0 14.1586)
(3.58452 0 10.3194)
(3.697 0 6.07794)
(3.55524 0 1.66662)
(3.22635 0 -2.73528)
(2.77191 0 -6.96544)
(2.24162 0 -10.8476)
(1.67205 0 -14.1798)
(1.08814 0 -16.7408)
(0.504059 0 -18.3186)
(-0.076542 0 -18.7568)
(-0.657868 0 -18.0057)
(-1.24279 0 -16.1483)
(-1.82488 0 -13.3614)
(-2.38718 0 -9.86343)
(-2.90183 0 -5.8723)
(-3.32896 0 -1.58288)
(-3.61534 0 2.83409)
(-3.69728 0 7.21668)
(-3.50802 0 11.3755)
(-2.98931 0 15.061)
(-2.10655 0 17.9528)
(-0.881541 0 19.6713)
(0.52136 0 19.8769)
(1.81532 0 18.5194)
(2.79256 0 15.888)
(3.40303 0 12.3687)
(3.67199 0 8.29997)
(3.65316 0 3.94961)
(3.41242 0 -0.479583)
(3.01522 0 -4.82222)
(2.51818 0 -8.91006)
(1.96447 0 -12.5538)
(1.38487 0 -15.539)
(0.799049 0 -17.6435)
(0.216088 0 -18.6754)
(-0.880668 0 -17.5347)
(-2.25376 0 -16.2483)
(-3.53162 0 -13.9643)
(-4.65555 0 -10.891)
(-5.57034 0 -7.25579)
(-6.22436 0 -3.27279)
(-6.56712 0 0.868374)
(-6.54814 0 4.99803)
(-6.12059 0 8.94721)
(-5.25072 0 12.5132)
(-3.9338 0 15.4446)
(-2.21518 0 17.4543)
(-0.227441 0 18.2706)
(1.79085 0 17.753)
(3.58591 0 15.994)
(5.00003 0 13.2486)
(5.97235 0 9.8064)
(6.4984 0 5.92908)
(6.60697 0 1.82965)
(6.34299 0 -2.31824)
(5.75661 0 -6.34917)
(4.89823 0 -10.0802)
(3.81879 0 -13.3035)
(2.57232 0 -15.7936)
(1.21664 0 -17.334)
(-0.188995 0 -17.7628)
(-1.58705 0 -17.028)
(-2.91961 0 -15.2164)
(-4.1274 0 -12.51)
(-5.15354 0 -9.13144)
(-5.94508 0 -5.30335)
(-6.45159 0 -1.22681)
(-6.62256 0 2.92105)
(-6.40859 0 6.97731)
(-5.76773 0 10.761)
(-4.67801 0 14.0467)
(-3.15573 0 16.5627)
(-1.28232 0 18.0199)
(0.755225 0 18.1917)
(2.69337 0 17.0463)
(4.3172 0 14.7721)
(5.52129 0 11.6527)
(6.27586 0 7.96877)
(6.59496 0 3.95888)
(6.51687 0 -0.186003)
(6.08998 0 -4.30172)
(5.36492 0 -8.21433)
(4.39209 0 -11.7279)
(3.2238 0 -14.6232)
(1.9162 0 -16.6737)
(0.528516 0 -17.6826)
(-1.37935 0 -15.7417)
(-3.51285 0 -14.5562)
(-5.4512 0 -12.4587)
(-7.08933 0 -9.6489)
(-8.34131 0 -6.34251)
(-9.14088 0 -2.74356)
(-9.43852 0 0.966135)
(-9.19865 0 4.62488)
(-8.39995 0 8.07705)
(-7.04292 0 11.1458)
(-5.16522 0 13.6244)
(-2.85959 0 15.2929)
(-0.291305 0 15.9615)
(2.30563 0 15.5384)
(4.68815 0 14.0839)
(6.67353 0 11.7724)
(8.15416 0 8.82173)
(9.08159 0 5.44392)
(9.44845 0 1.82236)
(9.27217 0 -1.88479)
(8.58534 0 -5.52071)
(7.43391 0 -8.90974)
(5.87962 0 -11.8536)
(4.00333 0 -14.1381)
(1.90557 0 -15.5568)
(-0.297993 0 -15.9529)
(-2.48525 0 -15.2745)
(-4.53505 0 -13.6076)
(-6.33499 0 -11.1273)
(-7.78962 0 -8.04572)
(-8.82348 0 -4.57427)
(-9.37945 0 -0.905199)
(-9.41538 0 2.79145)
(-8.9023 0 6.36252)
(-7.82795 0 9.6455)
(-6.20861 0 12.4492)
(-4.10625 0 14.5572)
(-1.64659 0 15.7571)
(0.968372 0 15.8972)
(3.48999 0 14.9569)
(5.6987 0 13.0603)
(7.44943 0 10.4106)
(8.66549 0 7.22703)
(9.32057 0 3.70904)
(9.42111 0 0.025645)
(8.99233 0 -3.67025)
(8.07298 0 -7.21217)
(6.7164 0 -10.4125)
(4.99354 0 -13.0627)
(2.99534 0 -14.9477)
(0.830996 0 -15.8783)
(-1.83641 0 -13.1902)
(-4.66496 0 -12.1759)
(-7.20297 0 -10.3874)
(-9.30291 0 -8.00077)
(-10.8517 0 -5.20419)
(-11.7712 0 -2.17551)
(-12.0151 0 0.926264)
(-11.5644 0 3.95985)
(-10.4247 0 6.79179)
(-8.6302 0 9.27825)
(-6.25666 0 11.2604)
(-3.43351 0 12.5785)
(-0.348671 0 13.1024)
(2.76404 0 12.7713)
(5.66523 0 11.6251)
(8.15468 0 9.78217)
(10.0899 0 7.39856)
(11.384 0 4.63519)
(11.9946 0 1.63926)
(11.9106 0 -1.45507)
(11.1453 0 -4.51087)
(9.73805 0 -7.37437)
(7.75885 0 -9.87265)
(5.31199 0 -11.819)
(2.53682 0 -13.032)
(-0.398012 0 -13.3715)
(-3.30808 0 -12.7903)
(-6.01149 0 -11.3662)
(-8.34641 0 -9.25516)
(-10.1826 0 -6.64286)
(-11.4253 0 -3.71347)
(-12.0132 0 -0.63484)
(-11.9143 0 2.44417)
(-11.1219 0 5.39027)
(-9.65395 0 8.06742)
(-7.56308 0 10.3245)
(-4.94965 0 11.9995)
(-1.97124 0 12.9427)
(1.15897 0 13.0522)
(4.19833 0 12.3144)
(6.92222 0 10.8119)
(9.15779 0 8.68583)
(10.7905 0 6.09799)
(11.7566 0 3.20362)
(12.0306 0 0.142286)
(11.613 0 -2.95352)
(10.529 0 -5.93833)
(8.83239 0 -8.64827)
(6.60987 0 -10.9017)
(3.98343 0 -12.5104)
(1.10837 0 -13.3073)
(-2.22178 0 -9.96698)
(-5.63521 0 -9.18848)
(-8.67583 0 -7.82)
(-11.161 0 -5.99973)
(-12.9558 0 -3.87394)
(-13.9732 0 -1.58002)
(-14.1699 0 0.75936)
(-13.5413 0 3.03468)
(-12.116 0 5.1426)
(-9.95761 0 6.97693)
(-7.17286 0 8.42618)
(-3.91809 0 9.38269)
(-0.397503 0 9.76125)
(3.15105 0 9.52216)
(6.48588 0 8.69162)
(9.39351 0 7.34675)
(11.7064 0 5.59204)
(13.3072 0 3.53929)
(14.1232 0 1.29583)
(14.1187 0 -1.03542)
(13.2902 0 -3.34787)
(11.6713 0 -5.52286)
(9.33816 0 -7.42685)
(6.41362 0 -8.91508)
(3.06892 0 -9.84547)
(-0.482373 0 -10.1065)
(-4.0015 0 -9.65978)
(-7.25384 0 -8.5683)
(-10.0361 0 -6.95554)
(-12.1897 0 -4.9664)
(-13.6046 0 -2.74349)
(-14.2166 0 -0.416299)
(-14.0028 0 1.90029)
(-12.9754 0 4.10216)
(-11.179 0 6.08622)
(-8.69681 0 7.74376)
(-5.65896 0 8.96347)
(-2.24553 0 9.64596)
(1.32054 0 9.72505)
(4.79546 0 9.19164)
(7.94797 0 8.09951)
(10.5857 0 6.54166)
(12.5655 0 4.62812)
(13.7926 0 2.46912)
(14.2135 0 0.169084)
(13.8076 0 -2.16843)
(12.5882 0 -4.4312)
(10.6092 0 -6.49286)
(7.96936 0 -8.21292)
(4.81582 0 -9.44497)
(1.34225 0 -10.057)
(-2.5034 0 -6.21332)
(-6.3435 0 -5.72281)
(-9.74979 0 -4.86269)
(-12.5149 0 -3.72163)
(-14.4894 0 -2.39241)
(-15.5804 0 -0.961413)
(-15.7464 0 0.494758)
(-14.9917 0 1.90715)
(-13.3608 0 3.20959)
(-10.9385 0 4.33669)
(-7.85349 0 5.2224)
(-4.28012 0 5.80455)
(-0.434233 0 6.03449)
(3.44017 0 5.8893)
(7.09598 0 5.38419)
(10.3096 0 4.56321)
(12.8968 0 3.48645)
(14.7187 0 2.2197)
(15.6812 0 0.828421)
(15.7308 0 -0.622014)
(14.8537 0 -2.06387)
(13.0799 0 -3.42312)
(10.4894 0 -4.61597)
(7.21755 0 -5.55078)
(3.45767 0 -6.13671)
(-0.544008 0 -6.30143)
(-4.50794 0 -6.01962)
(-8.16012 0 -5.33268)
(-11.2674 0 -4.32033)
(-13.6519 0 -3.07499)
(-15.1935 0 -1.68671)
(-15.8263 0 -0.236559)
(-15.5326 0 1.20391)
(-14.337 0 2.56783)
(-12.3031 0 3.79039)
(-9.53625 0 4.80601)
(-6.18703 0 5.54971)
(-2.45058 0 5.96448)
(1.44166 0 6.01251)
(5.24096 0 5.68847)
(8.70889 0 5.02321)
(11.6397 0 4.06994)
(13.8708 0 2.89248)
(15.2854 0 1.55668)
(15.8095 0 0.127505)
(15.4083 0 -1.32822)
(14.0885 0 -2.7405)
(11.9038 0 -4.0304)
(8.9608 0 -5.10935)
(5.42357 0 -5.88426)
(1.51312 0 -6.27015)
(-2.65261 0 -2.11197)
(-6.71833 0 -1.94415)
(-10.3174 0 -1.65038)
(-13.2301 0 -1.26142)
(-15.2999 0 -0.80915)
(-16.4318 0 -0.323012)
(-16.5849 0 0.171128)
(-15.7664 0 0.649824)
(-14.0284 0 1.09016)
(-11.4668 0 1.47006)
(-8.22166 0 1.76776)
(-4.47675 0 1.96303)
(-0.454276 0 2.04008)
(3.59719 0 1.99143)
(7.42618 0 1.82207)
(10.8033 0 1.54628)
(13.5356 0 1.18361)
(15.4733 0 0.755633)
(16.5106 0 0.284334)
(16.5855 0 -0.207776)
(15.6803 0 -0.697462)
(13.8239 0 -1.15977)
(11.0978 0 -1.56621)
(7.64285 0 -1.88534)
(3.66358 0 -2.08574)
(-0.576653 0 -2.14216)
(-4.77608 0 -2.04566)
(-8.63934 0 -1.81081)
(-11.9178 0 -1.46539)
(-14.4242 0 -1.04128)
(-16.0339 0 -0.569314)
(-16.6806 0 -0.0769829)
(-16.3479 0 0.411643)
(-15.0656 0 0.873396)
(-12.907 0 1.28611)
(-9.98915 0 1.62792)
(-6.47313 0 1.87759)
(-2.56199 0 2.01662)
(1.50758 0 2.03272)
(5.48268 0 1.92412)
(9.12002 0 1.70089)
(12.2067 0 1.38028)
(14.5702 0 0.983098)
(16.0821 0 0.531145)
(16.6574 0 0.0465002)
(16.2556 0 -0.447578)
(14.8812 0 -0.927509)
(12.5876 0 -1.36658)
(9.48491 0 -1.73455)
(5.74526 0 -1.99935)
(1.60364 0 -2.13144)
)
;

boundaryField
{
    top
    {
        type            directionMixed;
        refValue        uniform (0 0 0);
        refGradient     uniform (0 0 0);
        valueFraction   uniform (0 0 0 0 0 1);
        value           nonuniform List<vector> 
51
(
(-2.65261 0 0)
(-6.71833 0 0)
(-10.3174 0 0)
(-13.2301 0 0)
(-15.2999 0 0)
(-16.4318 0 0)
(-16.5849 0 0)
(-15.7664 0 0)
(-14.0284 0 0)
(-11.4668 0 0)
(-8.22166 0 0)
(-4.47675 0 0)
(-0.454276 0 0)
(3.59719 0 0)
(7.42618 0 0)
(10.8033 0 0)
(13.5356 0 0)
(15.4733 0 0)
(16.5106 0 0)
(16.5855 0 0)
(15.6803 0 0)
(13.8239 0 0)
(11.0978 0 0)
(7.64285 0 0)
(3.66358 0 0)
(-0.576653 0 0)
(-4.77608 0 0)
(-8.63934 0 0)
(-11.9178 0 0)
(-14.4242 0 0)
(-16.0339 0 0)
(-16.6806 0 0)
(-16.3479 0 0)
(-15.0656 0 0)
(-12.907 0 0)
(-9.98915 0 0)
(-6.47313 0 0)
(-2.56199 0 0)
(1.50758 0 0)
(5.48268 0 0)
(9.12002 0 0)
(12.2067 0 0)
(14.5702 0 0)
(16.0821 0 0)
(16.6574 0 0)
(16.2556 0 0)
(14.8812 0 0)
(12.5876 0 0)
(9.48491 0 0)
(5.74526 0 0)
(1.60364 0 0)
)
;
    }
    bottom
    {
        type            fixedValue;
        value           uniform (0 0 0);
    }
    frontAndBack
    {
        type            empty;
    }
    left_cyc
    {
        type            cyclic;
    }
    right_cyc
    {
        type            cyclic;
    }
}


// ************************************************************************* //
