/*--------------------------------*- C++ -*----------------------------------*\
| =========                 |                                                 |
| \\      /  F ield         | OpenFOAM: The Open Source CFD Toolbox           |
|  \\    /   O peration     | Version:  2.3.0                                 |
|   \\  /    A nd           | Web:      www.OpenFOAM.org                      |
|    \\/     M anipulation  |                                                 |
\*---------------------------------------------------------------------------*/
FoamFile
{
    version     2.0;
    format      ascii;
    class       volVectorField;
    location    "9000";
    object      U;
}
// * * * * * * * * * * * * * * * * * * * * * * * * * * * * * * * * * * * * * //

dimensions      [0 1 -1 0 0 0 0];

internalField   nonuniform List<vector> 
3060
(
(1.71104 0 -2.36387)
(4.34243 0 -2.27477)
(6.85094 0 -2.10731)
(9.16278 0 -1.86098)
(11.2062 0 -1.53639)
(12.9144 0 -1.13876)
(14.2319 0 -0.683945)
(15.1241 0 -0.206383)
(15.5915 0 0.237622)
(15.6851 0 0.584166)
(15.4976 0 0.79194)
(15.1338 0 0.868206)
(14.6457 0 0.855448)
(14.0437 0 0.796065)
(13.3023 0 0.717023)
(12.3874 0 0.634053)
(11.281 0 0.573974)
(9.98755 0 0.561928)
(8.52788 0 0.575975)
(6.96608 0 0.564052)
(5.4154 0 0.507901)
(3.98292 0 0.419538)
(2.74299 0 0.319315)
(1.72255 0 0.228913)
(0.893001 0 0.164613)
(0.184369 0 0.134836)
(-0.494109 0 0.142392)
(-1.23745 0 0.18657)
(-2.12997 0 0.2626)
(-3.22692 0 0.358811)
(-4.53389 0 0.455744)
(-6.00001 0 0.531184)
(-7.53535 0 0.568376)
(-9.02307 0 0.563978)
(-10.3652 0 0.556494)
(-11.5202 0 0.589766)
(-12.4716 0 0.659439)
(-13.2246 0 0.732817)
(-13.8055 0 0.786938)
(-14.2427 0 0.797944)
(-14.5366 0 0.730203)
(-14.6532 0 0.545844)
(-14.5097 0 0.232625)
(-14.0227 0 -0.180955)
(-13.1352 0 -0.63821)
(-11.8399 0 -1.08115)
(-10.1669 0 -1.47096)
(-8.17003 0 -1.78809)
(-5.91611 0 -2.02493)
(-3.47875 0 -2.17941)
(-0.934592 0 -2.25115)
(1.63817 0 -2.23972)
(4.16078 0 -2.14529)
(6.5554 0 -1.96819)
(8.74601 0 -1.709)
(10.6604 0 -1.37081)
(12.2344 0 -0.963779)
(13.4196 0 -0.512053)
(14.1945 0 -0.0603727)
(14.5796 0 0.330674)
(14.6426 0 0.609379)
(14.4712 0 0.758834)
(14.1366 0 0.801205)
(13.6609 0 0.775181)
(13.0368 0 0.713642)
(12.2312 0 0.638544)
(11.2233 0 0.575879)
(10.0146 0 0.555704)
(8.6262 0 0.567853)
(7.11368 0 0.562758)
(5.58609 0 0.513871)
(4.15586 0 0.430339)
(2.90383 0 0.331363)
(1.866 0 0.239045)
(1.02162 0 0.170941)
(0.305269 0 0.136585)
(-0.372031 0 0.139402)
(-1.10556 0 0.179134)
(-1.98207 0 0.251753)
(-3.06233 0 0.346798)
(-4.36031 0 0.445941)
(-5.83378 0 0.527112)
(-7.39933 0 0.572018)
(-8.94326 0 0.572658)
(-10.3606 0 0.560685)
(-11.604 0 0.586278)
(-12.657 0 0.6562)
(-13.5216 0 0.739889)
(-14.2206 0 0.815228)
(-14.7901 0 0.86514)
(-15.2462 0 0.85791)
(-15.5686 0 0.748968)
(-15.6903 0 0.501239)
(-15.5005 0 0.121718)
(-14.9183 0 -0.338043)
(-13.9066 0 -0.81405)
(-12.4763 0 -1.25553)
(-10.6691 0 -1.63394)
(-8.54432 0 -1.9371)
(-6.17071 0 -2.16157)
(-3.62072 0 -2.30728)
(-0.968466 0 -2.37474)
(1.40992 0 -3.6896)
(3.59175 0 -3.58456)
(5.70931 0 -3.38963)
(7.72856 0 -3.10979)
(9.62381 0 -2.75426)
(11.3816 0 -2.33913)
(13.0042 0 -1.8903)
(14.5094 0 -1.44399)
(15.9222 0 -1.03993)
(17.2573 0 -0.704115)
(18.498 0 -0.430368)
(19.5884 0 -0.179125)
(20.4555 0 0.101072)
(21.0293 0 0.454534)
(21.241 0 0.904802)
(21.0155 0 1.43375)
(20.2587 0 1.95426)
(18.9299 0 2.36422)
(17.0655 0 2.62461)
(14.7458 0 2.7119)
(12.1377 0 2.6313)
(9.45062 0 2.39939)
(6.87656 0 2.06825)
(4.5387 0 1.72766)
(2.45432 0 1.46487)
(0.547637 0 1.33619)
(-1.31023 0 1.36498)
(-3.25997 0 1.54513)
(-5.41384 0 1.84014)
(-7.81352 0 2.17902)
(-10.3962 0 2.46699)
(-13.0005 0 2.62505)
(-15.4218 0 2.62193)
(-17.4599 0 2.44058)
(-18.9871 0 2.09159)
(-19.9516 0 1.60152)
(-20.3459 0 1.04289)
(-20.2508 0 0.527891)
(-19.7531 0 0.107483)
(-18.9265 0 -0.225704)
(-17.8464 0 -0.508322)
(-16.5893 0 -0.788071)
(-15.2199 0 -1.10725)
(-13.7695 0 -1.48247)
(-12.2359 0 -1.89885)
(-10.5998 0 -2.32201)
(-8.8444 0 -2.71587)
(-6.96632 0 -3.05242)
(-4.97775 0 -3.31329)
(-2.90355 0 -3.48757)
(-0.777261 0 -3.56942)
(1.36321 0 -3.55638)
(3.4789 0 -3.44883)
(5.53267 0 -3.25006)
(7.49296 0 -2.96709)
(9.338 0 -2.6126)
(11.0597 0 -2.20749)
(12.6656 0 -1.78236)
(14.1748 0 -1.3743)
(15.6042 0 -1.01427)
(16.9477 0 -0.709033)
(18.1637 0 -0.433302)
(19.1818 0 -0.141321)
(19.926 0 0.212934)
(20.3206 0 0.660477)
(20.291 0 1.19594)
(19.7453 0 1.74766)
(18.6224 0 2.20281)
(16.9479 0 2.50821)
(14.7879 0 2.64007)
(12.2945 0 2.59774)
(9.67631 0 2.39822)
(7.13146 0 2.08684)
(4.79774 0 1.75108)
(2.70788 0 1.48201)
(0.796525 0 1.34126)
(-1.06065 0 1.35653)
(-3.00503 0 1.5257)
(-5.15494 0 1.81693)
(-7.56416 0 2.16446)
(-10.1856 0 2.47597)
(-12.8708 0 2.66881)
(-15.4199 0 2.70557)
(-17.6274 0 2.56915)
(-19.3489 0 2.26509)
(-20.5223 0 1.81865)
(-21.1239 0 1.28377)
(-21.22 0 0.770853)
(-20.9015 0 0.347695)
(-20.2397 0 0.0179093)
(-19.3039 0 -0.249396)
(-18.1646 0 -0.5018)
(-16.8936 0 -0.789885)
(-15.537 0 -1.14568)
(-14.101 0 -1.56503)
(-12.5657 0 -2.01609)
(-10.9068 0 -2.4588)
(-9.11047 0 -2.85954)
(-7.17893 0 -3.19538)
(-5.12945 0 -3.4524)
(-2.99042 0 -3.62279)
(-0.797523 0 -3.70244)
(1.33765 0 -5.86698)
(3.41348 0 -5.7189)
(5.44386 0 -5.44612)
(7.40545 0 -5.05929)
(9.28066 0 -4.576)
(11.0585 0 -4.0228)
(12.7332 0 -3.43604)
(14.2998 0 -2.85819)
(15.7465 0 -2.32575)
(17.0491 0 -1.85126)
(18.1746 0 -1.41416)
(19.092 0 -0.971958)
(19.7829 0 -0.482075)
(20.2429 0 0.0876543)
(20.4799 0 0.756871)
(20.508 0 1.53423)
(20.3199 0 2.42686)
(19.8407 0 3.44104)
(18.9231 0 4.48134)
(17.4092 0 5.25353)
(15.2087 0 5.56458)
(12.4558 0 5.45662)
(9.44173 0 5.03805)
(6.43563 0 4.4885)
(3.56933 0 4.01623)
(0.834369 0 3.77124)
(-1.85744 0 3.81934)
(-4.61183 0 4.14353)
(-7.49352 0 4.64336)
(-10.4612 0 5.13724)
(-13.3218 0 5.41337)
(-15.7787 0 5.32318)
(-17.5942 0 4.7846)
(-18.7435 0 3.83284)
(-19.3671 0 2.76624)
(-19.6256 0 1.79362)
(-19.6376 0 0.94101)
(-19.4373 0 0.197132)
(-19.0153 0 -0.443823)
(-18.3601 0 -0.994548)
(-17.4721 0 -1.48014)
(-16.3664 0 -1.93687)
(-15.0717 0 -2.4049)
(-13.6224 0 -2.91074)
(-12.0481 0 -3.45309)
(-10.367 0 -4.00399)
(-8.58928 0 -4.52393)
(-6.72321 0 -4.97593)
(-4.78086 0 -5.33165)
(-2.77988 0 -5.57197)
(-0.743063 0 -5.68553)
(1.30355 0 -5.66741)
(3.33304 0 -5.51837)
(5.32003 0 -5.24499)
(7.24299 0 -4.8606)
(9.08585 0 -4.38674)
(10.8379 0 -3.85432)
(12.4909 0 -3.30199)
(14.0334 0 -2.76779)
(15.4437 0 -2.2736)
(16.69 0 -1.81233)
(17.7384 0 -1.35171)
(18.5635 0 -0.851397)
(19.1541 0 -0.27785)
(19.5137 0 0.390666)
(19.6557 0 1.16388)
(19.5827 0 2.04812)
(19.2392 0 3.0542)
(18.4872 0 4.12012)
(17.166 0 4.98035)
(15.1607 0 5.39108)
(12.563 0 5.36935)
(9.64595 0 5.01471)
(6.68909 0 4.49773)
(3.84392 0 4.0311)
(1.11604 0 3.77651)
(-1.57691 0 3.81108)
(-4.34152 0 4.1286)
(-7.25042 0 4.64034)
(-10.2787 0 5.17529)
(-13.2517 0 5.52211)
(-15.8773 0 5.52297)
(-17.8917 0 5.0856)
(-19.2262 0 4.20612)
(-20.0071 0 3.15113)
(-20.3933 0 2.16848)
(-20.5179 0 1.30877)
(-20.4331 0 0.56162)
(-20.1359 0 -0.0790129)
(-19.6125 0 -0.624308)
(-18.858 0 -1.09741)
(-17.8806 0 -1.53371)
(-16.7027 0 -1.97739)
(-15.3571 0 -2.46734)
(-13.8754 0 -3.01499)
(-12.2781 0 -3.59952)
(-10.5744 0 -4.18111)
(-8.76887 0 -4.71817)
(-6.86835 0 -5.17699)
(-4.88567 0 -5.53366)
(-2.84016 0 -5.77271)
(-0.756446 0 -5.88513)
(1.27801 0 -7.96351)
(3.26456 0 -7.78696)
(5.21608 0 -7.46309)
(7.11395 0 -7.00636)
(8.94259 0 -6.43856)
(10.6888 0 -5.78888)
(12.3395 0 -5.09239)
(13.8778 0 -4.3851)
(15.2796 0 -3.69494)
(16.5147 0 -3.03129)
(17.5533 0 -2.38056)
(18.3746 0 -1.71333)
(18.9693 0 -0.997931)
(19.3371 0 -0.209076)
(19.4834 0 0.670163)
(19.4146 0 1.65123)
(19.1345 0 2.74435)
(18.6564 0 3.94799)
(17.9954 0 5.23155)
(17.0777 0 6.54545)
(15.6708 0 7.70926)
(13.5383 0 8.27552)
(10.7316 0 8.16066)
(7.55332 0 7.65431)
(4.28695 0 7.11224)
(1.04012 0 6.80537)
(-2.18605 0 6.85453)
(-5.41193 0 7.22966)
(-8.60873 0 7.74882)
(-11.6053 0 8.09169)
(-14.0801 0 7.90677)
(-15.8238 0 7.01141)
(-16.9219 0 5.7234)
(-17.6539 0 4.3987)
(-18.1743 0 3.13038)
(-18.5019 0 1.95768)
(-18.6162 0 0.896815)
(-18.5113 0 -0.0593915)
(-18.1834 0 -0.92049)
(-17.6272 0 -1.69829)
(-16.8416 0 -2.4119)
(-15.8339 0 -3.08776)
(-14.6221 0 -3.75357)
(-13.2343 0 -4.42657)
(-11.702 0 -5.10454)
(-10.0535 0 -5.76598)
(-8.31013 0 -6.37845)
(-6.48853 0 -6.90796)
(-4.60396 0 -7.32516)
(-2.67289 0 -7.60789)
(-0.713933 0 -7.74186)
(1.2526 0 -7.72046)
(3.20589 0 -7.54475)
(5.12597 0 -7.22341)
(6.99485 0 -6.77289)
(8.79654 0 -6.21745)
(10.5157 0 -5.58809)
(12.1348 0 -4.91916)
(13.6306 0 -4.24115)
(14.9734 0 -3.57086)
(16.1317 0 -2.90472)
(17.0797 0 -2.22136)
(17.8027 0 -1.49247)
(18.296 0 -0.693278)
(18.5621 0 0.193094)
(18.6066 0 1.17712)
(18.4326 0 2.26854)
(18.0498 0 3.47067)
(17.4777 0 4.75878)
(16.6679 0 6.08904)
(15.4189 0 7.32051)
(13.4694 0 8.02668)
(10.8197 0 8.03624)
(7.73994 0 7.60848)
(4.52575 0 7.10169)
(1.30051 0 6.80468)
(-1.92908 0 6.85716)
(-5.18407 0 7.24704)
(-8.44381 0 7.81179)
(-11.5549 0 8.24605)
(-14.1982 0 8.19436)
(-16.1229 0 7.42738)
(-17.3636 0 6.18569)
(-18.1949 0 4.87214)
(-18.8039 0 3.60644)
(-19.2298 0 2.43132)
(-19.4521 0 1.36983)
(-19.4619 0 0.417793)
(-19.2552 0 -0.435372)
(-18.825 0 -1.20205)
(-18.1674 0 -1.9014)
(-17.2846 0 -2.56086)
(-16.1891 0 -3.2127)
(-14.9048 0 -3.88334)
(-13.4624 0 -4.58019)
(-11.8909 0 -5.28785)
(-10.2123 0 -5.97508)
(-8.44203 0 -6.60539)
(-6.59283 0 -7.14505)
(-4.67841 0 -7.56685)
(-2.7152 0 -7.85106)
(-0.722583 0 -7.98518)
(1.21463 0 -9.9006)
(3.10402 0 -9.70287)
(4.96344 0 -9.34046)
(6.77594 0 -8.82959)
(8.52573 0 -8.1935)
(10.1972 0 -7.46129)
(11.7731 0 -6.66531)
(13.2324 0 -5.8362)
(14.5489 0 -4.99599)
(15.6942 0 -4.15165)
(16.6423 0 -3.29373)
(17.3758 0 -2.40215)
(17.8866 0 -1.45522)
(18.1741 0 -0.435623)
(18.2421 0 0.667699)
(18.0969 0 1.86047)
(17.7478 0 3.14601)
(17.2087 0 4.52795)
(16.491 0 6.00568)
(15.595 0 7.55631)
(14.5036 0 9.0865)
(13.0454 0 10.3885)
(10.869 0 11.0332)
(7.95401 0 10.9309)
(4.63266 0 10.5235)
(1.15987 0 10.2377)
(-2.33099 0 10.2652)
(-5.72989 0 10.5613)
(-8.87479 0 10.8391)
(-11.4629 0 10.619)
(-13.2528 0 9.61189)
(-14.4783 0 8.15219)
(-15.4323 0 6.57747)
(-16.2024 0 5.03243)
(-16.7869 0 3.57299)
(-17.182 0 2.20876)
(-17.373 0 0.93762)
(-17.3493 0 -0.243245)
(-17.1046 0 -1.33651)
(-16.6352 0 -2.34831)
(-15.941 0 -3.29048)
(-15.0283 0 -4.18008)
(-13.9124 0 -5.03511)
(-12.6171 0 -5.86682)
(-11.1714 0 -6.67298)
(-9.60368 0 -7.43661)
(-7.93838 0 -8.13071)
(-6.19584 0 -8.72491)
(-4.39392 0 -9.19102)
(-2.54976 0 -9.50645)
(-0.680874 0 -9.65587)
(1.19466 0 -9.632)
(3.05854 0 -9.43602)
(4.89285 0 -9.07745)
(6.68021 0 -8.57371)
(8.40344 0 -7.94915)
(10.0442 0 -7.233)
(11.5811 0 -6.45533)
(12.9886 0 -5.64108)
(14.2375 0 -4.80343)
(15.2997 0 -3.94049)
(16.1536 0 -3.03831)
(16.7864 0 -2.0785)
(17.194 0 -1.04517)
(17.3776 0 0.071868)
(17.3416 0 1.27742)
(17.0932 0 2.57387)
(16.6448 0 3.96435)
(16.0095 0 5.44931)
(15.1889 0 7.01177)
(14.177 0 8.57398)
(12.8358 0 9.95603)
(10.8275 0 10.7556)
(8.05125 0 10.7909)
(4.81261 0 10.465)
(1.37637 0 10.2249)
(-2.12027 0 10.2893)
(-5.56748 0 10.6378)
(-8.80972 0 11.0115)
(-11.5499 0 10.9411)
(-13.5001 0 10.0733)
(-14.8278 0 8.67536)
(-15.8567 0 7.12533)
(-16.7042 0 5.58937)
(-17.3727 0 4.13715)
(-17.861 0 2.78199)
(-18.155 0 1.52227)
(-18.242 0 0.354412)
(-18.114 0 -0.725202)
(-17.765 0 -1.72351)
(-17.1924 0 -2.65331)
(-16.3985 0 -3.53346)
(-15.3937 0 -4.38598)
(-14.1982 0 -5.22896)
(-12.8394 0 -6.06758)
(-11.3455 0 -6.89025)
(-9.7412 0 -7.67185)
(-8.04644 0 -8.38062)
(-6.27776 0 -8.98474)
(-4.45065 0 -9.45653)
(-2.58118 0 -9.77464)
(-0.686647 0 -9.92489)
(1.14447 0 -11.7462)
(2.92477 0 -11.5284)
(4.67695 0 -11.1289)
(6.38431 0 -10.5643)
(8.03028 0 -9.85788)
(9.59759 0 -9.03748)
(11.0671 0 -8.1327)
(12.4168 0 -7.17066)
(13.6219 0 -6.17107)
(14.6572 0 -5.14228)
(15.5009 0 -4.08072)
(16.1381 0 -2.97455)
(16.5615 0 -1.80943)
(16.77 0 -0.572903)
(16.7664 0 0.743615)
(16.5559 0 2.14442)
(16.1464 0 3.6299)
(15.5491 0 5.19617)
(14.779 0 6.83358)
(13.8522 0 8.52735)
(12.7772 0 10.2507)
(11.5226 0 11.9118)
(9.91394 0 13.2534)
(7.5964 0 13.8932)
(4.56759 0 13.9135)
(1.17832 0 13.7768)
(-2.28104 0 13.7524)
(-5.53612 0 13.7795)
(-8.28049 0 13.482)
(-10.2336 0 12.4716)
(-11.6295 0 10.919)
(-12.7648 0 9.18492)
(-13.737 0 7.44195)
(-14.5523 0 5.74235)
(-15.1965 0 4.10428)
(-15.6542 0 2.54104)
(-15.9122 0 1.06004)
(-15.9617 0 -0.336043)
(-15.7975 0 -1.6478)
(-15.4168 0 -2.87937)
(-14.8201 0 -4.03863)
(-14.0135 0 -5.13614)
(-13.0099 0 -6.18192)
(-11.8296 0 -7.18035)
(-10.4976 0 -8.12604)
(-9.04022 0 -9.00284)
(-7.48177 0 -9.7867)
(-5.84393 0 -10.4503)
(-4.1461 0 -10.9672)
(-2.40643 0 -11.3157)
(-0.642644 0 -11.4805)
(1.12757 0 -11.4542)
(2.88651 0 -11.238)
(4.61648 0 -10.8415)
(6.29973 0 -10.282)
(7.91783 0 -9.5827)
(9.45088 0 -8.7707)
(10.8765 0 -7.87289)
(12.1695 0 -6.91157)
(13.3037 0 -5.90009)
(14.255 0 -4.84089)
(15.0051 0 -3.7275)
(15.5428 0 -2.54931)
(15.864 0 -1.29626)
(15.9691 0 0.0385065)
(15.8618 0 1.45811)
(15.548 0 2.96224)
(15.0376 0 4.54715)
(14.3447 0 6.20378)
(13.4853 0 7.91774)
(12.4706 0 9.66644)
(11.2809 0 11.3757)
(9.77124 0 12.822)
(7.59933 0 13.6248)
(4.67819 0 13.7835)
(1.33951 0 13.7455)
(-2.12793 0 13.809)
(-5.44877 0 13.9428)
(-8.31629 0 13.7952)
(-10.4081 0 12.9388)
(-11.8899 0 11.4713)
(-13.0863 0 9.77587)
(-14.12 0 8.05579)
(-15.0052 0 6.37587)
(-15.7291 0 4.75664)
(-16.2759 0 3.21184)
(-16.6315 0 1.7494)
(-16.7854 0 0.371906)
(-16.7309 0 -0.922087)
(-16.4632 0 -2.13802)
(-15.9804 0 -3.28562)
(-15.2852 0 -4.37817)
(-14.3867 0 -5.42984)
(-13.3021 0 -6.45075)
(-12.0544 0 -7.44138)
(-10.6692 0 -8.39)
(-9.17056 0 -9.27436)
(-7.57968 0 -10.0662)
(-5.91505 0 -10.7359)
(-4.19364 0 -11.2569)
(-2.43198 0 -11.6075)
(-0.64689 0 -11.773)
(1.06542 0 -13.4738)
(2.72205 0 -13.2367)
(4.35075 0 -12.8011)
(5.93452 0 -12.1835)
(7.45615 0 -11.4068)
(8.89764 0 -10.4975)
(10.2396 0 -9.48299)
(11.4608 0 -8.38847)
(12.539 0 -7.23281)
(13.4526 0 -6.02622)
(14.1836 0 -4.76992)
(14.7192 0 -3.45857)
(15.0529 0 -2.08402)
(15.1831 0 -0.638557)
(15.1122 0 0.883047)
(14.8448 0 2.48249)
(14.3882 0 4.15769)
(13.7525 0 5.90251)
(12.9506 0 7.70564)
(11.9977 0 9.54935)
(10.9083 0 11.4083)
(9.6911 0 13.245)
(8.29539 0 14.9591)
(6.51867 0 16.2708)
(4.06171 0 16.932)
(1.08174 0 17.0942)
(-2.0122 0 16.9829)
(-4.81305 0 16.5454)
(-6.95869 0 15.5366)
(-8.52193 0 13.9638)
(-9.80591 0 12.1381)
(-10.94 0 10.2507)
(-11.9375 0 8.36066)
(-12.7853 0 6.49686)
(-13.4685 0 4.68061)
(-13.9731 0 2.92726)
(-14.2878 0 1.24648)
(-14.4048 0 -0.356172)
(-14.3189 0 -1.87849)
(-14.0278 0 -3.3215)
(-13.5325 0 -4.68884)
(-12.8383 0 -5.9854)
(-11.9566 0 -7.21476)
(-10.9043 0 -8.37581)
(-9.70277 0 -9.46009)
(-8.37521 0 -10.4512)
(-6.94445 0 -11.3265)
(-5.43193 0 -12.0607)
(-3.8576 0 -12.6291)
(-2.24034 0 -13.0107)
(-0.598445 0 -13.1908)
(1.04999 0 -13.1621)
(2.68694 0 -12.9257)
(4.29428 0 -12.4911)
(5.85359 0 -11.875)
(7.34576 0 -11.0996)
(8.75045 0 -10.1901)
(10.0458 0 -9.17142)
(11.2087 0 -8.06478)
(12.2162 0 -6.88449)
(13.048 0 -5.63682)
(13.6884 0 -4.32126)
(14.1281 0 -2.93355)
(14.3628 0 -1.46894)
(14.3926 0 0.0755637)
(14.2208 0 1.70016)
(13.853 0 3.40172)
(13.2981 0 5.17367)
(12.5682 0 7.00491)
(11.6779 0 8.87848)
(10.6418 0 10.7711)
(9.47089 0 12.6501)
(8.13007 0 14.435)
(6.44273 0 15.8794)
(4.09654 0 16.7125)
(1.1744 0 17.0379)
(-1.92873 0 17.0827)
(-4.80444 0 16.8122)
(-7.06344 0 15.9702)
(-8.70335 0 14.5115)
(-10.0375 0 12.7448)
(-11.2189 0 10.8962)
(-12.2721 0 9.03833)
(-13.1849 0 7.2036)
(-13.9424 0 5.41493)
(-14.5299 0 3.68829)
(-14.9351 0 2.03342)
(-15.1488 0 0.45524)
(-15.1646 0 -1.04518)
(-14.9782 0 -2.47058)
(-14.5884 0 -3.82699)
(-13.998 0 -5.1225)
(-13.215 0 -6.36486)
(-12.2538 0 -7.55795)
(-11.1339 0 -8.69818)
(-9.8771 0 -9.77281)
(-8.50561 0 -10.7609)
(-7.04009 0 -11.6364)
(-5.49951 0 -12.3715)
(-3.90161 0 -12.9408)
(-2.26348 0 -13.3228)
(-0.602121 0 -13.5029)
(0.977269 0 -15.0704)
(2.4957 0 -14.8138)
(3.9858 0 -14.3414)
(5.43026 0 -13.6699)
(6.81157 0 -12.8213)
(8.11174 0 -11.8214)
(9.31201 0 -10.6966)
(10.393 0 -9.47102)
(11.3352 0 -8.16402)
(12.1207 0 -6.78798)
(12.7345 0 -5.34826)
(13.1663 0 -3.84466)
(13.4105 0 -2.27403)
(13.4658 0 -0.632688)
(13.3343 0 1.0815)
(13.0205 0 2.86772)
(12.5315 0 4.72135)
(11.8764 0 6.63356)
(11.067 0 8.5908)
(10.1168 0 10.5746)
(9.0395 0 12.5624)
(7.84893 0 14.5278)
(6.55122 0 16.4248)
(5.0724 0 18.1216)
(3.21038 0 19.3322)
(0.887286 0 19.847)
(-1.56119 0 19.6344)
(-3.71535 0 18.7121)
(-5.38385 0 17.1868)
(-6.75858 0 15.3217)
(-7.99116 0 13.3415)
(-9.11119 0 11.321)
(-10.1047 0 9.29096)
(-10.9588 0 7.27425)
(-11.6596 0 5.29152)
(-12.1947 0 3.35968)
(-12.5541 0 1.4912)
(-12.7301 0 -0.305443)
(-12.7177 0 -2.02535)
(-12.5146 0 -3.66661)
(-12.1215 0 -5.22916)
(-11.5429 0 -6.71319)
(-10.7883 0 -8.11711)
(-9.87162 0 -9.43522)
(-8.81082 0 -10.656)
(-7.62589 0 -11.7618)
(-6.33754 0 -12.7304)
(-4.96616 0 -13.5374)
(-3.53148 0 -14.159)
(-2.05268 0 -14.575)
(-0.548523 0 -14.7709)
(0.962371 0 -14.7397)
(2.46144 0 -14.4824)
(3.93003 0 -14.0083)
(5.3493 0 -13.3338)
(6.69993 0 -12.4801)
(7.962 0 -11.4714)
(9.11496 0 -10.332)
(10.1382 0 -9.08308)
(11.012 0 -7.74054)
(11.7196 0 -6.31425)
(12.248 0 -4.80858)
(12.5893 0 -3.22439)
(12.74 0 -1.56139)
(12.7003 0 0.179994)
(12.4734 0 1.99714)
(12.065 0 3.88418)
(11.4832 0 5.83159)
(10.739 0 7.82566)
(9.84536 0 9.84835)
(8.81576 0 11.8781)
(7.66355 0 13.8915)
(6.39919 0 15.8515)
(4.96512 0 17.6532)
(3.17339 0 19.0335)
(0.901004 0 19.7645)
(-1.55568 0 19.7785)
(-3.77232 0 19.0628)
(-5.50472 0 17.6896)
(-6.91908 0 15.9136)
(-8.18497 0 13.9906)
(-9.34591 0 12.0156)
(-10.3895 0 10.0264)
(-11.3023 0 8.04766)
(-12.0705 0 6.10105)
(-12.6808 0 4.2037)
(-13.1223 0 2.3678)
(-13.3863 0 0.600991)
(-13.4666 0 -1.0932)
(-13.3592 0 -2.71488)
(-13.0629 0 -4.26678)
(-12.5801 0 -5.75263)
(-11.9176 0 -7.17506)
(-11.0871 0 -8.53293)
(-10.1046 0 -9.81902)
(-8.98872 0 -11.0189)
(-7.7589 0 -12.1118)
(-6.43446 0 -13.0725)
(-5.0339 0 -13.8746)
(-3.57508 0 -14.493)
(-2.07541 0 -14.907)
(-0.5522 0 -15.1018)
(0.880486 0 -16.5217)
(2.2472 0 -16.2453)
(3.5853 0 -15.7356)
(4.87737 0 -15.0093)
(6.10606 0 -14.0883)
(7.25393 0 -12.9979)
(8.3035 0 -11.7643)
(9.23745 0 -10.4117)
(10.0392 0 -8.96056)
(10.694 0 -7.42551)
(11.19 0 -5.81548)
(11.5191 0 -4.1345)
(11.677 0 -2.38349)
(11.6633 0 -0.562313)
(11.4804 0 1.32835)
(11.133 0 3.28533)
(10.6284 0 5.3018)
(9.9754 0 7.36676)
(9.18522 0 9.46463)
(8.2708 0 11.5754)
(7.2463 0 13.6761)
(6.12694 0 15.7427)
(4.93413 0 17.7452)
(3.67111 0 19.6066)
(2.26873 0 21.0983)
(0.649609 0 21.8429)
(-1.04636 0 21.5621)
(-2.57995 0 20.3529)
(-3.90966 0 18.5834)
(-5.1321 0 16.5832)
(-6.28319 0 14.4954)
(-7.34427 0 12.3627)
(-8.29714 0 10.2072)
(-9.12757 0 8.0512)
(-9.8221 0 5.91647)
(-10.3689 0 3.82174)
(-10.7582 0 1.7818)
(-10.9823 0 -0.192528)
(-11.036 0 -2.0939)
(-10.9163 0 -3.91769)
(-10.6232 0 -5.66049)
(-10.16 0 -7.31857)
(-9.53403 0 -8.88605)
(-8.75656 0 -10.3533)
(-7.84224 0 -11.7059)
(-6.80809 0 -12.9245)
(-5.67246 0 -13.9862)
(-4.45421 0 -14.8667)
(-3.17233 0 -15.5425)
(-1.84577 0 -15.9937)
(-0.493451 0 -16.2059)
(0.865728 0 -16.1721)
(2.21287 0 -15.8934)
(3.52907 0 -15.379)
(4.79541 0 -14.6449)
(5.99291 0 -13.7123)
(7.1026 0 -12.6051)
(8.1057 0 -11.3477)
(8.98413 0 -9.9619)
(9.7214 0 -8.46591)
(10.3037 0 -6.87276)
(10.7208 0 -5.19091)
(10.9665 0 -3.42546)
(11.0385 0 -1.57991)
(10.9376 0 0.342155)
(10.6675 0 2.33552)
(10.2342 0 4.39191)
(9.64576 0 6.49943)
(8.91266 0 8.64218)
(8.04723 0 10.8004)
(7.06322 0 12.9519)
(5.97517 0 15.0746)
(4.80362 0 17.1447)
(3.55885 0 19.1036)
(2.1828 0 20.758)
(0.588439 0 21.7434)
(-1.11187 0 21.7334)
(-2.67354 0 20.745)
(-4.0265 0 19.1171)
(-5.2667 0 17.2029)
(-6.44156 0 15.1782)
(-7.53654 0 13.0996)
(-8.53216 0 10.9936)
(-9.41372 0 8.88403)
(-10.1673 0 6.79325)
(-10.7803 0 4.74012)
(-11.2424 0 2.73897)
(-11.5449 0 0.799591)
(-11.6816 0 -1.07226)
(-11.648 0 -2.87425)
(-11.4426 0 -4.60608)
(-11.0668 0 -6.26781)
(-10.526 0 -7.85782)
(-9.82918 0 -9.37092)
(-8.98929 0 -10.7966)
(-8.02167 0 -12.1186)
(-6.94317 0 -13.3152)
(-5.7712 0 -14.3614)
(-4.52324 0 -15.2309)
(-3.2167 0 -15.8993)
(-1.86895 0 -16.3457)
(-0.497394 0 -16.5556)
(0.775871 0 -17.815)
(1.97879 0 -17.5186)
(3.15328 0 -16.9716)
(4.28225 0 -16.1907)
(5.34889 0 -15.1979)
(6.33682 0 -14.0189)
(7.23014 0 -12.6802)
(8.01376 0 -11.2068)
(8.67391 0 -9.62071)
(9.19878 0 -7.93887)
(9.57929 0 -6.17334)
(9.80958 0 -4.33167)
(9.88716 0 -2.41827)
(9.81261 0 -0.436051)
(9.58924 0 1.61172)
(9.22262 0 3.71964)
(8.72036 0 5.8789)
(8.09194 0 8.07657)
(7.34878 0 10.2952)
(6.50435 0 12.5128)
(5.5744 0 14.7041)
(4.5778 0 16.8418)
(3.5417 0 18.894)
(2.50238 0 20.7929)
(1.47348 0 22.3402)
(0.436252 0 23.1399)
(-0.609445 0 22.8434)
(-1.64393 0 21.5699)
(-2.67676 0 19.7512)
(-3.71454 0 17.7047)
(-4.72844 0 15.5521)
(-5.68361 0 13.3333)
(-6.55765 0 11.0738)
(-7.33352 0 8.79902)
(-7.99672 0 6.53275)
(-8.53501 0 4.29567)
(-8.93813 0 2.10457)
(-9.19786 0 -0.0276404)
(-9.30801 0 -2.09137)
(-9.26471 0 -4.07945)
(-9.0667 0 -5.98553)
(-8.71576 0 -7.80243)
(-8.21706 0 -9.52065)
(-7.57924 0 -11.1271)
(-6.81398 0 -12.6046)
(-5.93548 0 -13.9317)
(-4.95964 0 -15.0844)
(-3.90354 0 -16.0376)
(-2.78498 0 -16.7675)
(-1.62224 0 -17.2539)
(-0.433905 0 -17.4825)
(0.761261 0 -17.446)
(1.94445 0 -17.1458)
(3.09693 0 -16.5909)
(4.20017 0 -15.7977)
(5.23603 0 -14.7873)
(6.18685 0 -13.5843)
(7.03585 0 -12.2137)
(7.76749 0 -10.6989)
(8.36822 0 -9.06019)
(8.82712 0 -7.31372)
(9.13649 0 -5.47145)
(9.2921 0 -3.54212)
(9.29306 0 -1.53252)
(9.14137 0 0.550921)
(8.84158 0 2.70054)
(8.40045 0 4.90588)
(7.82678 0 7.15298)
(7.13134 0 9.42395)
(6.32699 0 11.6971)
(5.42884 0 13.9481)
(4.45489 0 16.1514)
(3.43048 0 18.2803)
(2.39254 0 20.2828)
(1.36142 0 21.9928)
(0.323363 0 23.0369)
(-0.722012 0 23.0196)
(-1.75495 0 21.9689)
(-2.78567 0 20.2927)
(-3.82708 0 18.3398)
(-4.85576 0 16.2598)
(-5.83615 0 14.1044)
(-6.74424 0 11.903)
(-7.56222 0 9.68257)
(-8.27497 0 7.46756)
(-8.86964 0 5.27875)
(-9.33532 0 3.13235)
(-9.66306 0 1.0401)
(-9.8458 0 -0.99019)
(-9.87854 0 -2.95388)
(-9.7587 0 -4.84797)
(-9.4865 0 -6.66931)
(-9.06537 0 -8.41277)
(-8.50207 0 -10.0697)
(-7.8065 0 -11.6266)
(-6.9911 0 -13.0652)
(-6.07007 0 -14.3624)
(-5.05876 0 -15.4925)
(-3.97321 0 -16.4291)
(-2.82996 0 -17.1473)
(-1.64588 0 -17.6263)
(-0.438154 0 -17.8513)
(0.664292 0 -18.9387)
(1.69278 0 -18.6227)
(2.69375 0 -18.0391)
(3.65084 0 -17.205)
(4.54827 0 -16.1429)
(5.37101 0 -14.8792)
(6.10501 0 -13.4413)
(6.73747 0 -11.8556)
(7.25722 0 -10.1456)
(7.6552 0 -8.33094)
(7.92491 0 -6.42632)
(8.06271 0 -4.44239)
(8.06787 0 -2.38654)
(7.94243 0 -0.26443)
(7.69085 0 1.9183)
(7.31979 0 4.15415)
(6.83781 0 6.43239)
(6.25534 0 8.73819)
(5.58477 0 11.052)
(4.84084 0 13.3494)
(4.04135 0 15.6016)
(3.20874 0 17.7751)
(2.37425 0 19.8283)
(1.58346 0 21.686)
(0.881749 0 23.1641)
(0.276005 0 23.9147)
(-0.301371 0 23.6345)
(-0.946649 0 22.4258)
(-1.69197 0 20.6661)
(-2.5062 0 18.6383)
(-3.3385 0 16.4631)
(-4.14882 0 14.1912)
(-4.91054 0 11.8568)
(-5.60365 0 9.49007)
(-6.21198 0 7.11784)
(-6.72208 0 4.76307)
(-7.12266 0 2.44459)
(-7.40441 0 0.177312)
(-7.55997 0 -2.02707)
(-7.58418 0 -4.15902)
(-7.4743 0 -6.20948)
(-7.23035 0 -8.16825)
(-6.85537 0 -10.0226)
(-6.35545 0 -11.7564)
(-5.73958 0 -13.3497)
(-5.01923 0 -14.7789)
(-4.20792 0 -16.0182)
(-3.32072 0 -17.0414)
(-2.37389 0 -17.8239)
(-1.38457 0 -18.3448)
(-0.370534 0 -18.5894)
(0.650114 0 -18.5504)
(1.65917 0 -18.2291)
(2.63859 0 -17.6347)
(3.57076 0 -16.784)
(4.43875 0 -15.699)
(5.22657 0 -14.405)
(5.91955 0 -12.9284)
(6.50469 0 -11.2943)
(6.97114 0 -9.52559)
(7.31067 0 -7.64107)
(7.51803 0 -5.65593)
(7.59102 0 -3.58206)
(7.5304 0 -1.42921)
(7.3396 0 0.793595)
(7.02442 0 3.07637)
(6.59277 0 5.40663)
(6.0545 0 7.76841)
(5.42146 0 10.1417)
(4.70779 0 12.5025)
(3.93054 0 14.823)
(3.11113 0 17.0721)
(2.27911 0 19.2133)
(1.4789 0 21.1847)
(0.759942 0 22.8291)
(0.140238 0 23.8165)
(-0.434405 0 23.8026)
(-1.06314 0 22.8122)
(-1.79246 0 21.2012)
(-2.60032 0 19.2779)
(-3.43815 0 17.1863)
(-4.2642 0 14.9873)
(-5.05035 0 12.7194)
(-5.77566 0 10.4146)
(-6.42327 0 8.10054)
(-6.97915 0 5.80039)
(-7.43147 0 3.53234)
(-7.77031 0 1.31003)
(-7.98761 0 -0.85682)
(-8.07731 0 -2.96137)
(-8.03558 0 -4.99815)
(-7.86113 0 -6.96118)
(-7.55548 0 -8.84232)
(-7.12306 0 -10.6298)
(-6.57114 0 -12.3077)
(-5.90941 0 -13.8551)
(-5.14952 0 -15.2476)
(-4.30468 0 -16.4583)
(-3.38921 0 -17.4598)
(-2.41837 0 -18.2266)
(-1.40813 0 -18.7375)
(-0.374973 0 -18.9774)
(0.546572 0 -19.8828)
(1.39134 0 -19.5481)
(2.21031 0 -18.9297)
(2.98833 0 -18.0452)
(3.71103 0 -16.9181)
(4.3651 0 -15.5757)
(4.93848 0 -14.0467)
(5.42065 0 -12.3591)
(5.80293 0 -10.5385)
(6.07876 0 -8.60659)
(6.24401 0 -6.58087)
(6.29714 0 -4.47466)
(6.23922 0 -2.29801)
(6.07379 0 -0.0590583)
(5.80665 0 2.23433)
(5.44568 0 4.57264)
(5.00056 0 6.9433)
(4.48284 0 9.32952)
(3.90606 0 11.7095)
(3.28621 0 14.056)
(2.64266 0 16.3359)
(1.99966 0 18.5091)
(1.38937 0 20.5233)
(0.855414 0 22.2938)
(0.443132 0 23.652)
(0.156871 0 24.3184)
(-0.0920234 0 24.0648)
(-0.429466 0 22.9679)
(-0.900697 0 21.318)
(-1.47401 0 19.353)
(-2.10003 0 17.1944)
(-2.7395 0 14.905)
(-3.36402 0 12.5284)
(-3.95178 0 10.1003)
(-4.48509 0 7.6511)
(-4.94922 0 5.2063)
(-5.33164 0 2.78686)
(-5.62181 0 0.409644)
(-5.81104 0 -1.91162)
(-5.89275 0 -4.16515)
(-5.86263 0 -6.33938)
(-5.71891 0 -8.42139)
(-5.46252 0 -10.3956)
(-5.09722 0 -12.2429)
(-4.62945 0 -13.9408)
(-4.06814 0 -15.4634)
(-3.4244 0 -16.7829)
(-2.71114 0 -17.8716)
(-1.94277 0 -18.7036)
(-1.13489 0 -19.2573)
(-0.303899 0 -19.5172)
(0.533277 0 -19.4758)
(1.3596 0 -19.1343)
(2.15827 0 -18.5026)
(2.91305 0 -17.5979)
(3.60864 0 -16.4432)
(4.23101 0 -15.0652)
(4.7677 0 -13.4918)
(5.20817 0 -11.7505)
(5.54415 0 -9.86621)
(5.76991 0 -7.86063)
(5.88247 0 -5.75181)
(5.88163 0 -3.55451)
(5.7699 0 -1.28113)
(5.55223 0 1.05687)
(5.23582 0 3.44732)
(4.82984 0 5.87574)
(4.3454 0 8.3242)
(3.79557 0 10.7705)
(3.19584 0 13.1878)
(2.56484 0 15.5444)
(1.92591 0 17.8027)
(1.30993 0 19.9158)
(0.759731 0 21.8103)
(0.324232 0 23.3371)
(0.0203039 0 24.2276)
(-0.22529 0 24.2204)
(-0.541676 0 23.3333)
(-0.990712 0 21.8377)
(-1.55052 0 19.988)
(-2.17359 0 17.9235)
(-2.81948 0 15.7163)
(-3.45862 0 13.4143)
(-4.06833 0 11.0554)
(-4.63028 0 8.67098)
(-5.1292 0 6.28689)
(-5.55214 0 3.92346)
(-5.88808 0 1.59622)
(-6.12781 0 -0.683211)
(-6.26401 0 -2.90593)
(-6.29148 0 -5.06417)
(-6.20735 0 -7.14944)
(-6.01126 0 -9.15087)
(-5.70548 0 -11.0541)
(-5.29482 0 -12.8403)
(-4.78647 0 -14.4868)
(-4.18965 0 -15.9671)
(-3.51533 0 -17.2529)
(-2.77594 0 -18.3154)
(-1.98512 0 -19.1284)
(-1.15747 0 -19.6697)
(-0.308318 0 -19.9237)
(0.423443 0 -20.6384)
(1.07635 0 -20.2865)
(1.70604 0 -19.6361)
(2.29903 0 -18.7057)
(2.84277 0 -17.5197)
(3.32592 0 -16.1067)
(3.73858 0 -14.4969)
(4.07251 0 -12.72)
(4.32136 0 -10.8038)
(4.48087 0 -8.77204)
(4.54906 0 -6.64472)
(4.5263 0 -4.43762)
(4.41533 0 -2.16321)
(4.22114 0 0.16812)
(3.95084 0 2.54639)
(3.61345 0 4.96021)
(3.21971 0 7.39519)
(2.78212 0 9.83266)
(2.31506 0 12.2486)
(1.83524 0 14.6128)
(1.36237 0 16.8882)
(0.920289 0 19.0289)
(0.53851 0 20.975)
(0.252921 0 22.6369)
(0.0961079 0 23.8652)
(0.0608221 0 24.4463)
(0.0598733 0 24.2196)
(-0.0243642 0 23.2388)
(-0.242595 0 21.7147)
(-0.576656 0 19.8389)
(-0.988358 0 17.7288)
(-1.44362 0 15.4552)
(-1.91536 0 13.069)
(-2.38161 0 10.6111)
(-2.82409 0 8.11524)
(-3.22719 0 5.60959)
(-3.57739 0 3.11715)
(-3.86302 0 0.656695)
(-4.0742 0 -1.75614)
(-4.20296 0 -4.10745)
(-4.24349 0 -6.38335)
(-4.19231 0 -8.56839)
(-4.04844 0 -10.6443)
(-3.81345 0 -12.5895)
(-3.49145 0 -14.3788)
(-3.08894 0 -15.9839)
(-2.61462 0 -17.3752)
(-2.07911 0 -18.5231)
(-1.49468 0 -19.4001)
(-0.874936 0 -19.9837)
(-0.234466 0 -20.2576)
(0.411569 0 -20.214)
(1.04785 0 -19.8541)
(1.65934 0 -19.1882)
(2.23167 0 -18.2344)
(2.75157 0 -17.017)
(3.2072 0 -15.5641)
(3.58842 0 -13.9056)
(3.88713 0 -12.0708)
(4.09745 0 -10.0874)
(4.21597 0 -7.9794)
(4.2418 0 -5.76766)
(4.17663 0 -3.46951)
(4.0246 0 -1.09983)
(3.79213 0 1.32767)
(3.48774 0 3.79874)
(3.12179 0 6.29701)
(2.70647 0 8.80263)
(2.25583 0 11.2912)
(1.78614 0 13.7332)
(1.31659 0 16.0929)
(0.870371 0 18.3273)
(0.476334 0 20.3814)
(0.170488 0 22.175)
(-0.0107052 0 23.5719)
(-0.0630738 0 24.363)
(-0.0609419 0 24.3623)
(-0.124529 0 23.5814)
(-0.318679 0 22.2143)
(-0.634471 0 20.4624)
(-1.03613 0 18.4555)
(-1.4893 0 16.2723)
(-1.96622 0 13.9682)
(-2.44429 0 11.5862)
(-2.90474 0 9.16137)
(-3.33156 0 6.72223)
(-3.71088 0 4.29119)
(-4.03072 0 1.88567)
(-4.2808 0 -0.480912)
(-4.4526 0 -2.79771)
(-4.53958 0 -5.05482)
(-4.53736 0 -7.24142)
(-4.44385 0 -9.34422)
(-4.25933 0 -11.3463)
(-3.98643 0 -13.2267)
(-3.62999 0 -14.9603)
(-3.19693 0 -16.5188)
(-2.69596 0 -17.872)
(-2.13741 0 -18.99)
(-1.53296 0 -19.8451)
(-0.895466 0 -20.4144)
(-0.238603 0 -20.6814)
(0.29555 0 -21.1977)
(0.749482 0 -20.8307)
(1.18361 0 -20.1524)
(1.58659 0 -19.182)
(1.94807 0 -17.945)
(2.25895 0 -16.4715)
(2.51161 0 -14.7933)
(2.70009 0 -12.9419)
(2.82023 0 -10.9469)
(2.86987 0 -8.83431)
(2.84891 0 -6.62631)
(2.75941 0 -4.34093)
(2.60557 0 -1.99286)
(2.39364 0 0.405423)
(2.13181 0 2.84201)
(1.83004 0 5.30375)
(1.49981 0 7.77462)
(1.15417 0 10.2342)
(0.8078 0 12.6564)
(0.477235 0 15.0088)
(0.181237 0 17.251)
(-0.0587121 0 19.3334)
(-0.21817 0 21.1921)
(-0.271266 0 22.7386)
(-0.200371 0 23.8449)
(-0.0233851 0 24.3515)
(0.181858 0 24.1484)
(0.316183 0 23.2724)
(0.328581 0 21.8725)
(0.222471 0 20.0997)
(0.0225709 0 18.0617)
(-0.244668 0 15.8321)
(-0.555739 0 13.4665)
(-0.890249 0 11.0091)
(-1.23038 0 8.49668)
(-1.56039 0 5.95959)
(-1.86625 0 3.42268)
(-2.13555 0 0.906446)
(-2.35748 0 -1.57169)
(-2.52293 0 -3.99586)
(-2.6248 0 -6.35004)
(-2.65813 0 -8.61645)
(-2.6202 0 -10.7745)
(-2.51065 0 -12.8)
(-2.33144 0 -14.6653)
(-2.08676 0 -16.3402)
(-1.7829 0 -17.7928)
(-1.42804 0 -18.9916)
(-1.03205 0 -19.9078)
(-0.606148 0 -20.5175)
(-0.162616 0 -20.8037)
(0.28566 0 -20.7581)
(0.725626 0 -20.3821)
(1.14452 0 -19.6864)
(1.5303 0 -18.6901)
(1.8721 0 -17.4187)
(2.16049 0 -15.902)
(2.38777 0 -14.1718)
(2.54822 0 -12.2596)
(2.63824 0 -10.1951)
(2.65652 0 -8.005)