/*--------------------------------*- C++ -*----------------------------------*\
| =========                 |                                                 |
| \\      /  F ield         | OpenFOAM: The Open Source CFD Toolbox           |
|  \\    /   O peration     | Version:  2.3.0                                 |
|   \\  /    A nd           | Web:      www.OpenFOAM.org                      |
|    \\/     M anipulation  |                                                 |
\*---------------------------------------------------------------------------*/
FoamFile
{
    version     2.0;
    format      ascii;
    class       volScalarField;
    location    "16000";
    object      p;
}
// * * * * * * * * * * * * * * * * * * * * * * * * * * * * * * * * * * * * * //

dimensions      [0 2 -2 0 0 0 0];

internalField   nonuniform List<scalar> 
191
(
-1368.04
-1432.14
-1482.21
-1519.3
-1547.62
-1570.12
-1588.72
-1604.66
-1618.69
-1631.23
-1642.57
-1652.89
-1312.5
-1343.98
-1370.06
-1391.2
-1408.95
-1424.22
-1437.55
-1449.48
-1460.35
-1470.39
-1479.76
-1488.63
-1257.45
-1273.31
-1290.85
-1300.13
-1306.58
-1313.3
-1320
-1326.66
-1333.25
-1339.76
-1346.24
-1352.77
-1143.23
-1172.05
-1194.84
-1203.35
-1206.97
-1210.36
-1213.62
-1216.92
-1220.39
-1224.07
-1228.03
-1232.32
-1024.54
-1038.33
-1072.54
-1089.37
-1095.4
-1099.42
-1102.6
-1105.04
-1107.06
-1108.94
-1110.88
-1113.01
-1115.4
-933.066
-943.977
-967.135
-978.1
-982.611
-986.297
-989.038
-990.929
-992.238
-993.211
-994.06
-994.919
-995.843
-847.806
-850.124
-858.476
-863.508
-866.168
-868.414
-870.06
-871.097
-871.651
-871.866
-871.874
-871.76
-871.557
-766.776
-754.138
-746.32
-745.703
-746.03
-746.223
-746.367
-746.273
-745.914
-745.305
-744.486
-743.499
-742.367
-686.297
-658.225
-633.388
-626.343
-623.811
-621.401
-619.563
-617.92
-616.311
-614.634
-612.854
-610.981
-609.024
-599.131
-562.767
-523.147
-507.474
-501.438
-495.922
-491.583
-487.876
-484.551
-481.432
-478.424
-475.514
-472.675
-504.411
-471.042
-415.631
-393.746
-383.06
-373.407
-365.618
-359.055
-353.361
-348.254
-343.563
-339.248
-335.235
-399.263
-362.689
-301.555
-275.993
-265.498
-256.062
-246.163
-236.626
-227.997
-220.227
-213.143
-206.73
-200.901
-300.127
-253.932
-185.422
-147.161
-144.132
-138.917
-133.368
-124.639
-114.413
-103.819
-93.4208
-84.1311
-75.9333
-191.779
-152.964
-96.4502
-53.072
-29.2575
-17.4923
-15.88
-16.1604
-14.5712
-10.1316
-3.33196
4.96099
14.0709
-329.931
-251.518
-159.57
-75.7045
-9.16937
34.7624
60.7454
75.8206
83.8734
86.6889
85.0317
81.2026
77.8049
)
;

boundaryField
{
    top
    {
        type            calculated;
        value           nonuniform List<scalar> 
13
(
-9.81
-9.81
-9.81
-9.81
-9.81
-9.81
-9.81
-9.81
-9.81
-9.81
-9.81
-9.81
-9.81
)
;
    }
    bottom
    {
        type            calculated;
        value           nonuniform List<scalar> 
12
(
-1438.94
-1506.78
-1560.24
-1600.14
-1630.77
-1655.15
-1675.25
-1692.39
-1707.38
-1720.71
-1732.69
-1743.53
)
;
    }
    frontAndBack
    {
        type            empty;
    }
    left_cyc
    {
        type            cyclic;
    }
    right_cyc
    {
        type            cyclic;
    }
    procBoundary3to0throughright_cyc
    {
        type            processorCyclic;
        value           nonuniform List<scalar> 
15
(
-1662.35
-1497.18
-1359.51
-1236.96
-1118.02
-996.823
-871.263
-741.097
-606.974
-469.837
-331.347
-195.382
-68.0849
23.5544
73.9971
)
;
    }
    procBoundary3to2
    {
        type            processor;
        value           nonuniform List<scalar> 
16
(
-1295.95
-1280.39
-1224.34
-1133.08
-1133.08
-1022.97
-932.377
-846.528
-764.763
-683.301
-596.931
-503.111
-407.344
-326.227
-216.936
-388.721
)
;
    }
}


// ************************************************************************* //
