/*--------------------------------*- C++ -*----------------------------------*\
| =========                 |                                                 |
| \\      /  F ield         | OpenFOAM: The Open Source CFD Toolbox           |
|  \\    /   O peration     | Version:  2.3.0                                 |
|   \\  /    A nd           | Web:      www.OpenFOAM.org                      |
|    \\/     M anipulation  |                                                 |
\*---------------------------------------------------------------------------*/
FoamFile
{
    version     2.0;
    format      ascii;
    class       surfaceScalarField;
    location    "16000";
    object      phi;
}
// * * * * * * * * * * * * * * * * * * * * * * * * * * * * * * * * * * * * * //

dimensions      [0 3 -1 0 0 0 0];

internalField   nonuniform List<scalar> 
354
(
0.509839
-0.0756598
0.527096
-0.0172563
0.502317
0.0247783
0.465223
0.0370947
0.430832
0.0343908
0.402375
0.0284566
0.37915
0.0232251
0.359786
0.019364
0.343317
0.0164691
0.329355
0.0139616
0.3181
0.011256
0.00767197
0.292183
-0.161099
0.373654
-0.0987275
0.437308
-0.0388751
0.481704
-0.00730205
0.510366
0.00572951
0.527089
0.011733
0.535335
0.0149794
0.538024
0.0166746
0.537608
0.0168859
0.536236
0.0153331
0.53596
0.0115321
0.00474127
0.183614
-0.200829
0.236478
-0.151592
0.304596
-0.106992
0.372351
-0.0750572
0.428071
-0.0499902
0.469278
-0.0294747
0.497849
-0.0135916
0.517179
-0.00265524
0.530713
0.00335194
0.541438
0.00460804
0.551808
0.00116234
-0.00714934
0.131739
-0.229755
0.173428
-0.19328
0.233247
-0.166811
0.29743
-0.13924
0.352761
-0.105322
0.395221
-0.0719339
0.425927
-0.0442977
0.447962
-0.0246909
0.464557
-0.0132426
0.478349
-0.00918392
0.491191
-0.0116802
-0.0200446
0.0702021
-0.281641
0.0934093
-0.252962
0.130569
-0.23044
0.183424
-0.219666
0.237064
-0.19288
0.282368
-0.150625
0.316729
-0.106296
0.341489
-0.0690571
0.359379
-0.0425809
0.372997
-0.0268606
0.384196
-0.0203836
0.393959
-0.0214434
-0.0285542
0.0414946
-0.294558
0.0592651
-0.270733
0.0897477
-0.260923
0.130169
-0.260087
0.168127
-0.230838
0.198722
-0.181221
0.22105
-0.128623
0.236643
-0.0846505
0.247644
-0.0535819
0.255747
-0.0349641
0.261856
-0.0264927
0.266107
-0.0256942
-0.0304994
0.0146198
-0.299001
0.0231193
-0.279232
0.039552
-0.277356
0.0605181
-0.281053
0.0791479
-0.249467
0.0933728
-0.195446
0.103007
-0.138257
0.109082
-0.0907258
0.112784
-0.0572838
0.114824
-0.0370039
0.115265
-0.026934
0.113624
-0.0240532
-0.0259913
-0.0121955
-0.293989
-0.0187115
-0.272716
-0.023399
-0.272668
-0.026536
-0.277916
-0.029078
-0.246925
-0.0310862
-0.193438
-0.0329935
-0.13635
-0.0350422
-0.088677
-0.0373714
-0.0549547
-0.040268
-0.0341073
-0.0443155
-0.0228865
-0.0503751
-0.0179936
-0.0169997
-0.0396371
-0.279384
-0.0628463
-0.249507
-0.0915463
-0.243968
-0.120637
-0.248825
-0.144665
-0.222898
-0.162107
-0.175995
-0.174145
-0.124311
-0.182594
-0.0802283
-0.18904
-0.0485093
-0.194754
-0.0283925
-0.200894
-0.0167469
-0.20868
-0.0102072
-0.00643261
-0.0684419
-0.256175
-0.10071
-0.217239
-0.148621
-0.196057
-0.202128
-0.195319
-0.246258
-0.178768
-0.277995
-0.144258
-0.299343
-0.102964
-0.313246
-0.0663252
-0.322464
-0.0392909
-0.329202
-0.0216545
-0.335248
-0.0107003
-0.342359
-0.00309694
0.00329571
-0.0998227
-0.225622
-0.131854
-0.185208
-0.18278
-0.145131
-0.250431
-0.127668
-0.308951
-0.120247
-0.351914
-0.101296
-0.381365
-0.0735133
-0.400302
-0.0473881
-0.41203
-0.0275629
-0.419459
-0.014225
-0.424912
-0.00524815
-0.430625
0.00261597
0.0111848
-0.13637
-0.186039
-0.171278
-0.1503
-0.20958
-0.106829
-0.260671
-0.0765771
-0.314556
-0.0663626
-0.36048
-0.0553717
-0.394727
-0.0392658
-0.417484
-0.0246308
-0.431675
-0.0133727
-0.440636
-0.00526315
-0.44689
0.00100567
-0.452446
0.00817153
0.0175435
-0.174562
-0.135697
-0.21652
-0.108342
-0.247748
-0.0756001
-0.27406
-0.0502657
-0.305729
-0.0346938
-0.336912
-0.0241884
-0.359819
-0.0163593
-0.374634
-0.0098155
-0.384182
-0.00382498
-0.391219
0.00177394
-0.397557
0.00734438
-0.403347
0.0139615
0.0220229
-0.202439
-0.0783178
-0.249362
-0.0614193
-0.283205
-0.041757
-0.308148
-0.0253226
-0.328641
-0.0142003
-0.34521
-0.00761979
-0.357977
-0.00359188
-0.367288
-0.000505128
-0.373486
0.00237328
-0.376901
0.00518885
-0.377518
0.00796091
-0.374581
0.0110251
0.0147326
-0.223777
-0.273089
-0.307528
-0.329909
-0.344651
-0.355133
-0.362983
-0.368587
-0.371807
-0.372464
-0.370421
-0.365278
)
;

boundaryField
{
    top
    {
        type            calculated;
        value           nonuniform List<scalar> 
13
(
-0.0162005
-0.0121079
-0.0073176
-0.00294199
0.000542261
0.00286211
0.00425843
0.00509901
0.00559276
0.00584555
0.0059178
0.00588253
0.00581878
)
;
    }
    bottom
    {
        type            calculated;
        value           uniform 0;
    }
    frontAndBack
    {
        type            empty;
        value           nonuniform 0();
    }
    left_cyc
    {
        type            cyclic;
        value           nonuniform 0();
    }
    right_cyc
    {
        type            cyclic;
        value           nonuniform 0();
    }
    procBoundary3to0throughright_cyc
    {
        type            processorCyclic;
        value           nonuniform List<scalar> 
15
(
0.310428
0.538891
0.563699
0.504087
0.402469
0.268052
0.109116
-0.0593668
-0.219247
-0.352087
-0.438514
-0.458804
-0.407827
-0.367291
-0.356364
)
;
    }
    procBoundary3to2
    {
        type            processor;
        value           nonuniform List<scalar> 
16
(
-0.43418
-0.206744
-0.143884
-0.102813
0.260844
-0.0494046
-0.028578
-0.0101766
0.00718371
0.0250325
0.0452323
0.0692694
0.0967875
0.124221
0.14506
0.16166
)
;
    }
}


// ************************************************************************* //
