/*--------------------------------*- C++ -*----------------------------------*\
| =========                 |                                                 |
| \\      /  F ield         | OpenFOAM: The Open Source CFD Toolbox           |
|  \\    /   O peration     | Version:  2.3.0                                 |
|   \\  /    A nd           | Web:      www.OpenFOAM.org                      |
|    \\/     M anipulation  |                                                 |
\*---------------------------------------------------------------------------*/
FoamFile
{
    version     2.0;
    format      ascii;
    class       volScalarField;
    location    "3000";
    object      NUEff;
}
// * * * * * * * * * * * * * * * * * * * * * * * * * * * * * * * * * * * * * //

dimensions      [0 2 -1 0 0 0 0];

internalField   nonuniform List<scalar> 
3060
(
0.157972
0.157921
0.157825
0.157687
0.157509
0.157294
0.157044
0.156765
0.15646
0.156134
0.155792
0.155442
0.155093
0.154751
0.15442
0.154101
0.153797
0.153511
0.153247
0.153006
0.152793
0.15261
0.152459
0.152342
0.152263
0.152222
0.15222
0.152257
0.152333
0.152444
0.152589
0.152764
0.152967
0.153195
0.153445
0.153713
0.153996
0.154292
0.154598
0.154911
0.155228
0.15554
0.155838
0.156118
0.156373
0.156601
0.156796
0.156956
0.157077
0.157157
0.157195
0.15719
0.15714
0.157049
0.156918
0.156748
0.156544
0.156309
0.156047
0.155761
0.155459
0.155145
0.154828
0.154517
0.154214
0.153921
0.153641
0.153378
0.153134
0.152912
0.152716
0.152548
0.152412
0.15231
0.152244
0.152217
0.152229
0.15228
0.152369
0.152495
0.152654
0.152846
0.153066
0.153313
0.153584
0.153874
0.154182
0.154505
0.154839
0.155183
0.155533
0.155882
0.15622
0.156541
0.15684
0.157112
0.157353
0.157559
0.157727
0.157854
0.157939
0.157979
0.190939
0.190572
0.1899
0.188944
0.187733
0.186299
0.184681
0.182919
0.181054
0.179126
0.177175
0.17524
0.17336
0.171584
0.169918
0.168368
0.166937
0.16563
0.164453
0.163409
0.162503
0.161738
0.161117
0.160645
0.160325
0.16016
0.160153
0.160304
0.160608
0.16106
0.161654
0.162385
0.163247
0.164234
0.16534
0.166558
0.167882
0.169304
0.170819
0.172422
0.174082
0.175759
0.177414
0.179011
0.180512
0.181881
0.183083
0.184084
0.184856
0.185375
0.185622
0.185584
0.185265
0.184678
0.183843
0.182787
0.181538
0.180131
0.178601
0.176985
0.175321
0.173644
0.171994
0.170414
0.168923
0.167525
0.166229
0.165039
0.163964
0.163009
0.162181
0.161486
0.160928
0.160514
0.16025
0.16014
0.160188
0.160394
0.160754
0.161265
0.161923
0.162725
0.163668
0.164747
0.165958
0.167297
0.168759
0.17034
0.172035
0.173841
0.175738
0.177681
0.179629
0.181545
0.183387
0.185116
0.18669
0.18807
0.18922
0.190105
0.190701
0.190985
0.294148
0.291739
0.287412
0.281435
0.274158
0.265961
0.257219
0.248272
0.239409
0.230853
0.222772
0.215279
0.208443
0.202321
0.196921
0.192166
0.187993
0.184354
0.181206
0.178515
0.17625
0.174388
0.172911
0.171807
0.171068
0.17069
0.170675
0.171024
0.171729
0.172789
0.174205
0.175983
0.178133
0.180669
0.183609
0.186974
0.190789
0.195083
0.199887
0.205238
0.211053
0.217258
0.223744
0.230366
0.236944
0.24326
0.249068
0.254108
0.258123
0.260886
0.262219
0.262016
0.260296
0.257186
0.252879
0.247613
0.241647
0.235239
0.22863
0.222027
0.215602
0.20949
0.20379
0.198577
0.193909
0.189745
0.186051
0.182799
0.179967
0.177534
0.175483
0.1738
0.172478
0.171511
0.170898
0.170644
0.170753
0.171225
0.172059
0.17326
0.174835
0.1768
0.179173
0.18198
0.185252
0.189026
0.193345
0.198261
0.203837
0.210154
0.217164
0.224817
0.233034
0.241687
0.250596
0.259521
0.268157
0.276155
0.283134
0.288719
0.292574
0.294445
0.691042
0.684067
0.670721
0.650456
0.622691
0.587164
0.544522
0.496887
0.447769
0.401002
0.359392
0.324143
0.29518
0.271764
0.253136
0.238208
0.226174
0.21643
0.20853
0.202139
0.197006
0.192946
0.189825
0.187547
0.186048
0.185292
0.185268
0.185975
0.187414
0.189609
0.192607
0.196485
0.201349
0.207347
0.214672
0.223575
0.234385
0.247527
0.263556
0.28301
0.306249
0.333532
0.364713
0.398997
0.434809
0.469949
0.502064
0.529185
0.550004
0.563825
0.570329
0.569344
0.560906
0.545213
0.522657
0.494074
0.460953
0.425405
0.389799
0.356204
0.325996
0.299776
0.277559
0.259016
0.243824
0.231346
0.221074
0.212614
0.205659
0.199975
0.195381
0.191742
0.18896
0.186967
0.18572
0.185203
0.185419
0.186366
0.188064
0.190554
0.193909
0.198232
0.203673
0.21043
0.218774
0.229066
0.24179
0.257595
0.277347
0.302136
0.332677
0.369608
0.412733
0.460438
0.509553
0.556188
0.597126
0.630659
0.656438
0.674859
0.68651
0.69187
0.887496
0.885622
0.882005
0.87641
0.868448
0.857514
0.84268
0.822546
0.795019
0.757132
0.705288
0.637144
0.556111
0.473891
0.403627
0.3496
0.309837
0.280772
0.259357
0.243414
0.23147
0.222543
0.21598
0.211349
0.208377
0.206905
0.20687
0.208271
0.211149
0.215634
0.221961
0.2305
0.241805
0.256696
0.276368
0.302536
0.337554
0.384226
0.444676
0.516621
0.591813
0.659798
0.714682
0.756265
0.786957
0.809409
0.825719
0.837366
0.845339
0.850264
0.852494
0.852159
0.849246
0.843567
0.834706
0.821951
0.804199
0.779819
0.746545
0.701661
0.643136
0.57242
0.49701
0.427493
0.370722
0.327373
0.294937
0.270672
0.252396
0.238541
0.228027
0.220112
0.214297
0.21025
0.207766
0.206741
0.20715
0.209003
0.212388
0.21749
0.22462
0.234258
0.247132
0.264333
0.287497
0.319021
0.362173
0.420433
0.494731
0.577921
0.656394
0.720287
0.768165
0.803026
0.828385
0.846976
0.860686
0.870776
0.878076
0.88313
0.886278
0.887716
0.936825
0.935995
0.934406
0.931985
0.928613
0.924111
0.918215
0.910537
0.900507
0.887268
0.86951
0.8452
0.811199
0.763005
0.695854
0.609633
0.516084
0.433686
0.371444
0.327515
0.296979
0.27573
0.261011
0.251097
0.244945
0.241971
0.241931
0.244823
0.250848
0.260523
0.274788
0.295183
0.324128
0.36517
0.422587
0.498528
0.586779
0.671796
0.740932
0.791826
0.828201
0.854323
0.873382
0.887515
0.89812
0.906113
0.912107
0.916508
0.919588
0.92152
0.922402
0.922269
0.921118
0.918898
0.915492
0.910705
0.904234
0.895626
0.884202
0.868938
0.848272
0.81982
0.78008
0.724662
0.650748
0.563275
0.476995
0.405767
0.353023
0.315555
0.289143
0.270544
0.2576
0.24895
0.24378
0.241661
0.24246
0.246226
0.253287
0.26433
0.280548
0.303899
0.337469
0.385706
0.453315
0.54006
0.633516
0.715339
0.777228
0.82121
0.852302
0.874656
0.891078
0.903379
0.91273
0.919899
0.925403
0.92959
0.932701
0.934898
0.936284
0.936922
0.957487
0.956989
0.956041
0.954607
0.952634
0.95004
0.94671
0.942484
0.937136
0.930346
0.921657
0.910399
0.895575
0.875674
0.848412
0.810361
0.756991
0.684754
0.5973
0.509672
0.437491
0.385237
0.34975
0.326684
0.312839
0.306324
0.306315
0.312816
0.326567
0.349321
0.384047
0.434722
0.504245
0.588772
0.674292
0.746335
0.800457
0.83946
0.867567
0.888109
0.903404
0.914991
0.923896
0.930805
0.936189
0.940375
0.943591
0.945997
0.947704
0.948785
0.949281
0.949206
0.94856
0.94732
0.945438
0.942833
0.939381
0.934907
0.929159
0.92178
0.912249
0.899806
0.883312
0.86105
0.830461
0.787917
0.729209
0.652766
0.565855
0.484267
0.41971
0.373603
0.342365
0.322199
0.310468
0.305701
0.30738
0.315689
0.331707
0.357643
0.397057
0.454359
0.531479
0.620855
0.705381
0.772619
0.821547
0.856386
0.881453
0.899846
0.913621
0.92413
0.932271
0.938649
0.943679
0.947654
0.950779
0.953203
0.95503
0.956333
0.957162
0.957545
0.968673
0.968327
0.967667
0.966675
0.965319
0.963553
0.961314
0.958514
0.955038
0.950726
0.945364
0.938654
0.930184
0.919374
0.905401
0.88705
0.862582
0.829616
0.785343
0.72785
0.659269
0.588325
0.526443
0.480401
0.451118
0.437137
0.437315
0.451674
0.481217
0.527181
0.588412
0.658176
0.725517
0.782141
0.825966
0.858763
0.883206
0.901592
0.915618
0.926467
0.934956
0.941662
0.946996
0.951254
0.954649
0.957336
0.959432
0.961017
0.96215
0.962872
0.963204
0.963154
0.962721
0.961895
0.960647
0.958935
0.956694
0.953833
0.95023
0.945713
0.940052
0.932924
0.92388
0.912288
0.897254
0.87747
0.851089
0.815665
0.768574
0.708712
0.639712
0.571199
0.513576
0.471956
0.446523
0.435923
0.439397
0.457219
0.490763
0.541206
0.606374
0.677831
0.744091
0.798107
0.839172
0.86966
0.892333
0.909402
0.922452
0.932584
0.940547
0.946872
0.951937
0.956014
0.959301
0.961945
0.964055
0.965709
0.966967
0.967871
0.968447
0.968714
0.97564
0.975376
0.974877
0.974127
0.973106
0.971786
0.970125
0.96807
0.96555
0.962474
0.958719
0.954126
0.948487
0.941525
0.932879
0.922042
0.908361
0.890997
0.868946
0.841206
0.807236
0.767845
0.72617
0.687667
0.658394
0.642886
0.643345
0.659712
0.689505
0.728007
0.769202
0.807867
0.841107
0.868243
0.889838
0.906873
0.920318
0.930984
0.939502
0.946356
0.951898
0.956398
0.960058
0.963034
0.965443
0.967373
0.968892
0.970049
0.970882
0.971413
0.971658
0.971621
0.971302
0.970694
0.969779
0.968531
0.966909
0.964861
0.962313
0.959171
0.955307
0.950556
0.944698
0.937445
0.928418
0.917094
0.902796
0.884667
0.861713
0.833005
0.798209
0.758503
0.717442
0.68066
0.654009
0.641651
0.645449
0.664855
0.697058
0.736986
0.778511
0.816679
0.849026
0.875198
0.895925
0.912238
0.925104
0.935316
0.943481
0.950067
0.95541
0.959767
0.963332
0.966254
0.968645
0.970592
0.97216
0.973399
0.974347
0.97503
0.975468
0.97567
0.980376
0.980165
0.979765
0.979166
0.978354
0.977308
0.976
0.974395
0.972444
0.97009
0.967255
0.963846
0.959741
0.954792
0.948814
0.941566
0.93277
0.922108
0.909256
0.893963
0.876208
0.856452
0.835924
0.816771
0.801792
0.793679
0.794072
0.802888
0.818288
0.837511
0.857816
0.877184
0.894499
0.909374
0.921863
0.932223
0.940772
0.947818
0.953629
0.958436
0.962413
0.965705
0.968426
0.970667
0.972502
0.973984
0.97516
0.97606
0.97671
0.977126
0.977317
0.977288
0.977039
0.976563
0.975849
0.97488
0.973627
0.972057
0.970122
0.967763
0.964902
0.961443
0.957263
0.95221
0.946099
0.938689
0.929698
0.918812
0.90572
0.8902
0.872288
0.852535
0.832283
0.813781
0.799857
0.793123
0.795021
0.805141
0.821488
0.84125
0.861744
0.881059
0.898189
0.91283
0.925081
0.935224
0.943587
0.950479
0.956168
0.960881
0.964792
0.968042
0.970744
0.972987
0.974843
0.976367
0.977604
0.978587
0.979342
0.979888
0.980238
0.9804
0.983797
0.983622
0.983291
0.982795
0.982124
0.981263
0.980193
0.978886
0.977311
0.975426
0.973183
0.970519
0.967361
0.963623
0.959198
0.953968
0.947806
0.940588
0.932222
0.922693
0.912136
0.900933
0.889796
0.879786
0.87218
0.868163
0.868439
0.872957
0.880897
0.891031
0.902103
0.913109
0.923401
0.932647
0.94074
0.94771
0.953654
0.958694
0.962951
0.966546
0.969572
0.972114
0.974242
0.976013
0.977474
0.978664
0.979612
0.980341
0.980869
0.981208
0.981364
0.981341
0.981137
0.98075
0.98017
0.979386
0.978377
0.977119
0.97558
0.973721
0.971491
0.968829
0.965662
0.961903
0.957453
0.952189
0.945989
0.938733
0.930338
0.920802
0.91028
0.899181
0.888246
0.87856
0.871406
0.867944
0.868818
0.873865
0.882222
0.892643
0.903885
0.914972
0.925284
0.934514
0.942574
0.949505
0.955411
0.960419
0.964652
0.968232
0.971255
0.973803
0.975948
0.977748
0.97925
0.980492
0.981506
0.982316
0.98294
0.983393
0.983683
0.983817
0.986382
0.986233
0.985951
0.98553
0.984962
0.984236
0.983335
0.982243
0.980934
0.979381
0.977548
0.975396
0.972876
0.969938
0.96652
0.962559
0.958001
0.952803
0.946959
0.940521
0.933642
0.926608
0.919866
0.914006
0.90968
0.907457
0.90766
0.910255
0.914853
0.920851
0.927601
0.93454
0.941259
0.947503
0.953145
0.958146
0.96252
0.966311
0.969576
0.972377
0.97477
0.976804
0.978524
0.979968
0.981168
0.982151
0.982938
0.983546
0.983986
0.984269
0.9844
0.98438
0.98421
0.983887
0.983403
0.98275
0.981914
0.980876
0.979615
0.978102
0.976304
0.97418
0.971685
0.968767
0.96537
0.961432
0.956898
0.95173
0.945925
0.93954
0.932734
0.925798
0.919187
0.913492
0.909365
0.90737
0.907813
0.910629
0.915416
0.921567
0.928436
0.935465
0.942249
0.948541
0.954219
0.959246
0.963643
0.967456
0.970742
0.973568
0.975987
0.978053
0.97981
0.981296
0.982547
0.983587
0.984441
0.985125
0.985654
0.986038
0.986285
0.986399
0.988403
0.988275
0.988031
0.987667
0.987178
0.986553
0.985783
0.984852
0.983744
0.982437
0.980908
0.97913
0.977071
0.974701
0.971983
0.968888
0.965395
0.961498
0.957223
0.952637
0.947873
0.943141
0.938733
0.935
0.932307
0.930957
0.931114
0.932754
0.935672
0.939541
0.943991
0.948685
0.953353
0.957806
0.961932
0.965673
0.969013
0.971962
0.974542
0.976787
0.978728
0.980395
0.981817
0.98302
0.984026
0.984854
0.98552
0.986036
0.986411
0.986652
0.986763
0.986746
0.986601
0.986326
0.985914
0.98536
0.984653
0.98378
0.982724
0.981466
0.979983
0.978247
0.97623
0.9739
0.971226
0.968177
0.964732
0.960888
0.95667
0.952147
0.947451
0.942792
0.938459
0.934805
0.932193
0.930927
0.93117
0.932892
0.935889
0.939834
0.944358
0.949123
0.953856
0.95837
0.962551
0.966343
0.96973
0.972723
0.975346
0.977634
0.979617
0.981328
0.982797
0.98405
0.98511
0.985998
0.986729
0.987318
0.987774
0.988106
0.988319
0.988418
0.99003
0.989917
0.989703
0.989386
0.988959
0.988416
0.987748
0.986945
0.985994
0.98488
0.983587
0.982095
0.980386
0.978441
0.97624
0.97377
0.97103
0.968029
0.964804
0.961419
0.957983
0.954648
0.951609
0.949089
0.947304
0.94643
0.946555
0.947665
0.949638
0.952284
0.95538
0.95871
0.962091
0.965386
0.9685
0.97138
0.973995
0.97634
0.97842
0.980253
0.981853
0.983241
0.984435
0.985452
0.986307
0.987014
0.987585
0.988029
0.988352
0.988561
0.988657
0.988642
0.988517
0.988279
0.987925
0.987448
0.986843
0.986098
0.985202
0.98414
0.982898
0.981456
0.979796
0.9779
0.975752
0.973336
0.970651
0.967707
0.964538
0.961211
0.957828
0.954541
0.951541
0.94905
0.947286
0.946426
0.946565
0.94769
0.949685
0.952363
0.955499
0.958877
0.962312
0.965663
0.968834
0.971769
0.974438
0.976836
0.978969
0.980852
0.982503
0.983941
0.985187
0.986256
0.987168
0.987934
0.988568
0.989081
0.989479
0.989769
0.989956
0.990042
0.991368
0.991269
0.99108
0.9908
0.990425
0.989949
0.989366
0.988667
0.987845
0.986888
0.985784
0.984521
0.983088
0.981474
0.979669
0.977672
0.975489
0.973137
0.970653
0.968095
0.965547
0.96312
0.960947
0.959175
0.957939
0.957345
0.957447
0.958233
0.959629
0.961516
0.963751
0.966192
0.968714
0.971213
0.973616
0.975873
0.977954
0.979846
0.981546
0.98306
0.984395
0.985563
0.986574
0.987442
0.988176
0.988785
0.989279
0.989665
0.989946
0.990127
0.990211
0.990198
0.990089
0.989882
0.989574
0.989161
0.988637
0.987996
0.987228
0.986324
0.985273
0.984062
0.982682
0.98112
0.97937
0.977428
0.975298
0.973
0.970566
0.968053
0.965542
0.963142
0.960984
0.959212
0.957966
0.957354
0.957435
0.958204
0.959592
0.961483
0.963735
0.966205
0.968765
0.971311
0.973765
0.976075
0.97821
0.980157
0.981911
0.983477
0.984865
0.986086
0.98715
0.988071
0.988861
0.989528
0.990083
0.990532
0.990882
0.991138
0.991303
0.99138
0.992493
0.992404
0.992237
0.991989
0.991657
0.991238
0.990727
0.990117
0.989402
0.988576
0.987629
0.986555
0.985346
0.983999
0.982509
0.98088
0.979123
0.977258
0.975318
0.973352
0.971425
0.969618
0.968025
0.966742
0.965859
0.965443
0.965526
0.966102
0.967121
0.968505
0.970162
0.971994
0.973912
0.975841
0.977723
0.979515
0.98119
0.982732
0.984132
0.985391
0.986513
0.987501
0.988363
0.989107
0.98974
0.990268
0.990698
0.991034
0.99128
0.991439
0.991513
0.991502
0.991406
0.991224
0.990955
0.990595
0.99014
0.989585
0.988923
0.988149
0.987255
0.986232
0.985076
0.98378
0.982342
0.980765
0.979057
0.977238
0.97534
0.973407
0.971504
0.969709
0.968114
0.966816
0.965907
0.965457
0.965505
0.966048
0.967043
0.968415
0.970074
0.97192
0.973865
0.975829
0.977753
0.979592
0.981317
0.98291
0.984363
0.985674
0.986847
0.987887
0.988802
0.989599
0.990285
0.990869
0.991356
0.991752
0.992062
0.992288
0.992435
0.992503
0.993453
0.993375
0.993226
0.993006
0.992713
0.992343
0.991893
0.99136
0.990739
0.990024
0.989211
0.988295
0.987274
0.986145
0.98491
0.983576
0.982153
0.980663
0.979134
0.977606
0.976129
0.974762
0.973573
0.972626
0.971981
0.971682
0.971751
0.972182
0.972942
0.973979
0.97523
0.976627
0.978107
0.979614
0.981102
0.982537
0.983894
0.985157
0.986316
0.987368
0.988312
0.989151
0.989888
0.990528
0.991075
0.991533
0.991908
0.992202
0.992418
0.992557
0.992622
0.992612
0.992528
0.992368
0.992132
0.991818
0.991422
0.99094
0.990369
0.989705
0.988941
0.988075
0.987103
0.986023
0.984836
0.983548
0.982168
0.980717
0.97922
0.977715
0.976251
0.974886
0.973685
0.972715
0.972036
0.971698
0.971726
0.972118
0.972847
0.973863
0.975105
0.976507
0.978003
0.979535
0.981057
0.982532
0.983932
0.985242
0.986449
0.98755
0.988544
0.989432
0.990219
0.990909
0.991507
0.992018
0.992447
0.992796
0.99307
0.993271
0.993402
0.993462
0.994287
0.994217
0.994085
0.99389
0.99363
0.993305
0.99291
0.992445
0.991905
0.991287
0.990589
0.989809
0.988946
0.988001
0.986976
0.985881
0.984726
0.983531
0.982319
0.981123
0.979981
0.978937
0.978037
0.977328
0.97685
0.976632
0.976689
0.977017
0.977592
0.97838
0.979336
0.980413
0.981566
0.982751
0.983935
0.98509
0.986193
0.98723
0.988191
0.989071
0.989867
0.990579
0.991209
0.991759
0.992231
0.99263
0.992956
0.993213
0.993402
0.993524
0.993581
0.993573
0.993498
0.993359
0.993152
0.992877
0.992532
0.992115
0.991622
0.991052
0.990401
0.989667
0.988849
0.987948
0.986966
0.985911
0.984792
0.983628
0.98244
0.98126
0.980123
0.979073
0.978156
0.97742
0.976907
0.976648
0.976664
0.976951
0.977493
0.978256
0.979198
0.980272
0.981432
0.982636
0.983846
0.985032
0.986173
0.987251
0.988255
0.989179
0.990021
0.990779
0.991456
0.992053
0.992573
0.99302
0.993396
0.993704
0.993947
0.994125
0.994241
0.994295
0.995019
0.994957
0.99484
0.994668
0.99444
0.994154
0.993809
0.993404
0.992936
0.992405
0.991808
0.991145
0.990418
0.989628
0.988779
0.987881
0.986944
0.985984
0.985021
0.984082
0.983194
0.98239
0.981705
0.981169
0.980811
0.980651
0.980698
0.980949
0.981389
0.981993
0.98273
0.983565
0.984467
0.985404
0.986349
0.987279
0.988177
0.989029
0.989825
0.990559
0.991229
0.991832
0.992369
0.99284
0.993247
0.993592
0.993875
0.994099
0.994264
0.994372
0.994422
0.994414
0.994349
0.994227
0.994046
0.993807
0.993508
0.993147
0.992723
0.992235
0.991681
0.99106
0.990373
0.989623
0.988811
0.987946
0.987039
0.986103
0.985158
0.984227
0.983339
0.982526
0.981821
0.981258
0.980865
0.980666
0.980673
0.980887
0.981293
0.981871
0.982591
0.983419
0.984323
0.985272
0.986236
0.987191
0.98812
0.989006
0.98984
0.990614
0.991324
0.99197
0.992549
0.993064
0.993516
0.993905
0.994234
0.994505
0.994718
0.994876
0.994979
0.995026
0.995671
0.995616
0.995513
0.995362
0.995162
0.994913
0.994613
0.994262
0.99386
0.993405
0.992897
0.992337
0.991727
0.99107
0.99037
0.989636
0.988877
0.988107
0.987343
0.986604
0.985913
0.985293
0.984768
0.984362
0.984092
0.983973
0.984012
0.984206
0.984544
0.985009
0.985579
0.986229
0.986937
0.987678
0.988431
0.98918
0.989909
0.990606
0.991263
0.991874
0.992435
0.992944
0.993399
0.993801
0.99415
0.994447
0.994692
0.994886
0.995029
0.995123
0.995167
0.99516
0.995103
0.994997
0.99484
0.994633
0.994374
0.994064
0.993701
0.993285
0.992816
0.992293
0.991719
0.991096
0.990428
0.989721
0.988986
0.988234
0.987482
0.986748
0.986053
0.985421
0.984877
0.984443
0.984141
0.983987
0.98399
0.984149
0.984456
0.984895
0.985447
0.986088
0.986794
0.987541
0.988308
0.989077
0.98983
0.990557
0.991246
0.991891
0.992489
0.993035
0.993529
0.99397
0.994359
0.994696
0.994983
0.995219
0.995406
0.995545
0.995635
0.995677
0.996256
0.996209
0.996119
0.995987
0.995814
0.995598
0.99534
0.995039
0.994695
0.994308
0.99388
0.993411
0.992903
0.99236
0.991786
0.991189
0.990578
0.989963
0.989359
0.988779
0.988242
0.987763
0.987362
0.987052
0.986849
0.98676
0.986792
0.986942
0.987202
0.987561
0.988001
0.988508
0.989062
0.989646
0.990246
0.990846
0.991435
0.992003
0.992543
0.993047
0.993514
0.99394
0.994323
0.994664
0.994961
0.995214
0.995424
0.995591
0.995715
0.995796
0.995833
0.995828
0.995779
0.995686
0.995551
0.995373
0.995152
0.994887
0.994579
0.994227
0.993832
0.993396
0.992919
0.992405
0.991857
0.991283
0.99069
0.990088
0.989491
0.988913
0.98837
0.987879
0.987458
0.987124
0.986892
0.986772
0.986772
0.986892
0.987124
0.987459
0.987882
0.988377
0.988928
0.989515
0.990124
0.990739
0.991347
0.991939
0.992505
0.99304
0.993537
0.993996
0.994413
0.994789
0.995121
0.995411
0.995658
0.995863
0.996026
0.996146
0.996225
0.996262
0.996788
0.996746
0.996669
0.996556
0.996406
0.996222
0.996002
0.995746
0.995456
0.995131
0.994774
0.994385
0.993966
0.993522
0.993056
0.992575
0.992086
0.991599
0.991123
0.990671
0.990255
0.989887
0.989581
0.989346
0.989192
0.989126
0.989152
0.989268
0.989468
0.989743
0.990083
0.990475
0.990907
0.991366
0.99184
0.992318
0.99279
0.99325
0.993688
0.994102
0.994486
0.994839
0.995159
0.995444
0.995694
0.995908
0.996086
0.996228
0.996334
0.996403
0.996435
0.99643
0.996388
0.99631
0.996195
0.996043
0.995855
0.995632
0.995372
0.995078
0.99475
0.994388
0.993996
0.993576
0.993131
0.992668
0.992193
0.991715
0.991244
0.990791
0.990368
0.989988
0.989664
0.989408
0.989229
0.989137
0.989135
0.989224
0.9894
0.989655
0.989978
0.99036
0.990786
0.991246
0.991725
0.992214
0.992702
0.99318
0.993641
0.994079
0.994489
0.99487
0.995219
0.995535
0.995816
0.996062
0.996273
0.996449
0.996589
0.996692
0.99676
0.996792
0.997273
0.997238
0.997172
0.997076
0.99695
0.996794
0.996609
0.996395
0.996154
0.995885
0.995591
0.995273
0.994933
0.994574
0.9942
0.993817
0.99343
0.993048
0.992677
0.992328
0.992008
0.991728
0.991495
0.991318
0.991203
0.991154
0.991175
0.991263
0.991416
0.991626
0.991886
0.992188
0.992522
0.992879
0.993249
0.993626
0.994001
0.994368
0.994721
0.995055
0.995367
0.995656
0.995919
0.996154
0.996362
0.996541
0.99669
0.996809
0.996898
0.996956
0.996983
0.996979
0.996944
0.996877
0.996781
0.996653
0.996496
0.99631
0.996095
0.995852
0.995583
0.995288
0.994969
0.99463
0.994273
0.993904
0.993527
0.993152
0.992783
0.992432
0.992105
0.991814
0.991566
0.99137
0.991234
0.991163
0.991161
0.991227
0.991359
0.991551
0.991797
0.992089
0.992417
0.992773
0.993147
0.993531
0.993918
0.994299
0.99467
0.995024
0.995358
0.99567
0.995958
0.99622
0.996454
0.99666
0.996838
0.996986
0.997104
0.997192
0.99725
0.997277
0.99772
0.997691
0.997636
0.997556
0.997451
0.997322
0.99717
0.996995
0.996797
0.996579
0.996342
0.996086
0.995815
0.99553
0.995235
0.994934
0.994634
0.994338
0.994054
0.993787
0.993545
0.993333
0.993159
0.993027
0.992941
0.992905
0.992921
0.992988
0.993103
0.993262
0.993459
0.993688
0.993942
0.994216
0.994502
0.994795
0.995088
0.995376
0.995655
0.99592
0.99617
0.996402
0.996614
0.996805
0.996974
0.997121
0.997243
0.997341
0.997415
0.997463
0.997486
0.997482
0.997453
0.997398
0.997318
0.997213
0.997085
0.996932
0.996757
0.99656
0.996343
0.996106
0.995852
0.995583
0.995301
0.995011
0.994718
0.994427
0.994143
0.993874
0.993625
0.993404
0.993216
0.993069
0.992966
0.992912
0.99291
0.992959
0.993057
0.993201
0.993385
0.993606
0.993855
0.994127
0.994415
0.994712
0.995013
0.995313
0.995606
0.995887
0.996155
0.996406
0.996638
0.996851
0.997043
0.997212
0.997358
0.997481
0.997579
0.997653
0.997701
0.997724
0.998135
0.998111
0.998066
0.998001
0.997917
0.997813
0.99769
0.99755
0.997393
0.99722
0.997033
0.996833
0.996621
0.996401
0.996173
0.995943
0.995714
0.99549
0.995276
0.995077
0.994897
0.99474
0.994612
0.994515
0.994453
0.994427
0.994439
0.994489
0.994574
0.994691
0.994837
0.995008
0.995198
0.995404
0.99562
0.995843
0.996067
0.996288
0.996504
0.99671
0.996904
0.997086
0.997253
0.997404
0.997539
0.997655
0.997754
0.997832
0.997892
0.997931
0.997949
0.997946
0.997922
0.997878
0.997814
0.99773
0.997627
0.997505
0.997366
0.997211
0.99704
0.996854
0.996657
0.996448
0.996231
0.996008
0.995784
0.995563
0.995349
0.995147
0.994961
0.994796
0.994657
0.994548
0.994472
0.994432
0.99443
0.994466
0.994537
0.994643
0.994779
0.994942
0.995128
0.995331
0.995548
0.995774
0.996004
0.996233
0.996459
0.996678
0.996886
0.997083
0.997267
0.997436
0.997588
0.997724
0.997842
0.997941
0.99802
0.99808
0.998119
0.998137
0.998521
0.998502
0.998467
0.998416
0.99835
0.998269
0.998175
0.998066
0.997946
0.997814
0.997671
0.99752
0.997361
0.997195
0.997026
0.996855
0.996686
0.996522
0.996366
0.996221
0.996091
0.995979
0.995887
0.995817
0.995773
0.995755
0.995764
0.9958
0.995861
0.995945
0.99605
0.996174
0.996312
0.996462
0.996621
0.996785
0.99695
0.997115
0.997276
0.997431
0.997577
0.997715
0.997842
0.997958
0.998061
0.998151
0.998227
0.998288
0.998334
0.998364
0.998378
0.998376
0.998358
0.998323
0.998273
0.998208
0.998129
0.998035
0.997929
0.99781
0.99768
0.99754
0.997391
0.997235
0.997072
0.996907
0.996741
0.996579
0.996422
0.996275
0.99614
0.996021
0.995921
0.995842
0.995788
0.995759
0.995757
0.995782
0.995833
0.995909
0.996006
0.996124
0.996258
0.996406
0.996564
0.99673
0.9969
0.997071
0.997239
0.997403
0.99756
0.99771
0.997849
0.997978
0.998096
0.998201
0.998292
0.998369
0.998431
0.998478
0.998509
0.998523
0.998883
0.998869
0.998843
0.998805
0.998756
0.998697
0.998627
0.998548
0.99846
0.998364
0.998261
0.998153
0.998039
0.997921
0.997801
0.99768
0.997562
0.997447
0.997338
0.997238
0.997148
0.997071
0.997008
0.996961
0.996931
0.996919
0.996925
0.99695
0.996991
0.997049
0.997122
0.997207
0.997303
0.997407
0.997518
0.997633
0.99775
0.997866
0.997981
0.998091
0.998196
0.998295
0.998387
0.998471
0.998546
0.998611
0.998667
0.998712
0.998746
0.998768
0.998779
0.998777
0.998764
0.998738
0.998701
0.998653
0.998595
0.998527
0.998449
0.998363
0.99827
0.998169
0.998063
0.997951
0.997836
0.997719
0.997602
0.997488
0.997379
0.997277
0.997184
0.997102
0.997033
0.996979
0.996941
0.996922
0.99692
0.996937
0.996972
0.997023
0.99709
0.997171
0.997263
0.997366
0.997476
0.997592
0.997712
0.997833
0.997952
0.998069
0.998182
0.998289
0.99839
0.998484
0.998569
0.998646
0.998713
0.99877
0.998816
0.998851
0.998874
0.998885
0.999224
0.999214
0.999197
0.999171
0.999138
0.999097
0.999051
0.998997
0.998939
0.998875
0.998807
0.998736
0.998661
0.998584
0.998506
0.998427
0.998351
0.998277
0.998207
0.998143
0.998086
0.998037
0.997998
0.997968
0.997949
0.997942
0.997946
0.997961
0.997988
0.998024
0.99807
0.998124
0.998185
0.998252
0.998324
0.998398
0.998474
0.99855
0.998624
0.998696
0.998765
0.99883
0.998891
0.998947
0.998997
0.999041
0.999078
0.999109
0.999132
0.999147
0.999154
0.999153
0.999143
0.999126
0.999101
0.999069
0.99903
0.998984
0.998933
0.998876
0.998814
0.998748
0.998678
0.998605
0.99853
0.998454
0.998378
0.998305
0.998234
0.998169
0.998109
0.998057
0.998014
0.99798
0.997956
0.997943
0.997942
0.997953
0.997975
0.998007
0.998049
0.998101
0.998159
0.998225
0.998296
0.998371
0.998448
0.998526
0.998605
0.998681
0.998755
0.998825
0.998892
0.998955
0.999012
0.999063
0.999109
0.999147
0.999178
0.999202
0.999218
0.999225
0.999546
0.999541
0.999531
0.999516
0.999497
0.999474
0.999448
0.999418
0.999385
0.99935
0.999312
0.999273
0.999232
0.99919
0.999147
0.999104
0.999062
0.999022
0.998984
0.99895
0.99892
0.998893
0.998872
0.998856
0.998846
0.998842
0.998845
0.998853
0.998867
0.998887
0.998911
0.99894
0.998973
0.999009
0.999048
0.999088
0.999129
0.999171
0.999212
0.999252
0.99929
0.999325
0.999359
0.99939
0.999418
0.999443
0.999464
0.999481
0.999494
0.999503
0.999507
0.999506
0.999501
0.999491
0.999477
0.999459
0.999437
0.999411
0.999382
0.999351
0.999316
0.99928
0.999241
0.999201
0.99916
0.999119
0.999077
0.999037
0.998999
0.998964
0.998932
0.998904
0.998881
0.998863
0.99885
0.998843
0.998843
0.998849
0.99886
0.998877
0.9989
0.998927
0.998959
0.998994
0.999032
0.999073
0.999115
0.999158
0.999201
0.999243
0.999283
0.999322
0.999359
0.999394
0.999426
0.999455
0.999481
0.999502
0.99952
0.999534
0.999543
0.999547
0.999852
0.99985
0.999847
0.999843
0.999837
0.99983
0.999821
0.999812
0.999802
0.999791
0.99978
0.999768
0.999755
0.999742
0.999729
0.999716
0.999703
0.999691
0.99968
0.99967
0.99966
0.999653
0.999646
0.999642
0.999639
0.999637
0.999638
0.999641
0.999645
0.999651
0.999658
0.999667
0.999677
0.999687
0.999699
0.999711
0.999724
0.999737
0.999749
0.999761
0.999773
0.999784
0.999794
0.999803
0.999812
0.99982
0.999826
0.999832
0.999836
0.999838
0.99984
0.99984
0.999838
0.999835
0.99983
0.999825
0.999818
0.99981
0.999801
0.999791
0.999781
0.99977
0.999758
0.999746
0.999733
0.999721
0.999708
0.999696
0.999684
0.999674
0.999664
0.999656
0.999649
0.999643
0.99964
0.999638
0.999638
0.999639
0.999643
0.999648
0.999655
0.999663
0.999672
0.999683
0.999694
0.999707
0.99972
0.999733
0.999746
0.999758
0.999771
0.999783
0.999794
0.999805
0.999815
0.999824
0.999832
0.999838
0.999844
0.999848
0.999851
0.999852
)
;

boundaryField
{
    top
    {
        type            calculated;
        value           uniform 1;
    }
    bottom
    {
        type            calculated;
        value           uniform 0.148957;
    }
    frontAndBack
    {
        type            empty;
    }
    left_cyc
    {
        type            cyclic;
    }
    right_cyc
    {
        type            cyclic;
    }
}


// ************************************************************************* //
