/*--------------------------------*- C++ -*----------------------------------*\
| =========                 |                                                 |
| \\      /  F ield         | OpenFOAM: The Open Source CFD Toolbox           |
|  \\    /   O peration     | Version:  2.3.0                                 |
|   \\  /    A nd           | Web:      www.OpenFOAM.org                      |
|    \\/     M anipulation  |                                                 |
\*---------------------------------------------------------------------------*/
FoamFile
{
    version     2.0;
    format      ascii;
    class       volScalarField;
    location    "3000";
    object      NUEff;
}
// * * * * * * * * * * * * * * * * * * * * * * * * * * * * * * * * * * * * * //

dimensions      [0 2 -1 0 0 0 0];

internalField   nonuniform List<scalar> 
3060
(
0.158906
0.158849
0.158743
0.158592
0.158395
0.158157
0.15788
0.157568
0.157224
0.156853
0.156461
0.156054
0.155641
0.155234
0.154836
0.154451
0.154083
0.153734
0.153408
0.153108
0.152839
0.152603
0.152405
0.152246
0.152129
0.152058
0.152034
0.152057
0.152126
0.152239
0.152392
0.152583
0.152807
0.15306
0.153339
0.15364
0.153959
0.154293
0.154638
0.154991
0.155348
0.155698
0.156032
0.156344
0.156627
0.156877
0.157091
0.157266
0.157397
0.157485
0.157526
0.157519
0.157465
0.157365
0.157221
0.157035
0.156811
0.156551
0.156259
0.155941
0.155602
0.155249
0.154892
0.154541
0.154198
0.153869
0.153554
0.153259
0.152987
0.152741
0.152526
0.152346
0.152203
0.152102
0.152046
0.152036
0.152073
0.152157
0.152286
0.152456
0.152666
0.152911
0.153189
0.153496
0.153829
0.154183
0.154557
0.154945
0.155346
0.155756
0.156168
0.156572
0.156958
0.157322
0.157658
0.157961
0.158228
0.158454
0.158639
0.158778
0.15887
0.158914
0.19788
0.197427
0.196604
0.195436
0.193958
0.192212
0.190242
0.188093
0.185815
0.183453
0.181056
0.178665
0.176326
0.174086
0.171993
0.170051
0.168262
0.166627
0.165151
0.163836
0.162686
0.161702
0.160889
0.160249
0.159787
0.159506
0.15941
0.159501
0.159776
0.160226
0.160845
0.161624
0.162558
0.163638
0.164859
0.166214
0.167695
0.169295
0.171007
0.172828
0.174714
0.176617
0.178492
0.180298
0.181992
0.183534
0.184884
0.186008
0.186872
0.187452
0.187726
0.187681
0.18732
0.186658
0.185719
0.184528
0.183121
0.181533
0.179803
0.177974
0.176086
0.174183
0.172308
0.170518
0.168837
0.167269
0.165823
0.164505
0.163322
0.162282
0.161391
0.160656
0.160084
0.159682
0.159458
0.159418
0.159566
0.159898
0.16041
0.161099
0.16196
0.16299
0.164186
0.165546
0.167066
0.168744
0.170576
0.172559
0.174692
0.176968
0.179326
0.181723
0.184115
0.186458
0.188706
0.190809
0.192722
0.194399
0.195795
0.196872
0.197596
0.19794
0.344687
0.340947
0.334279
0.325126
0.314064
0.301716
0.28869
0.275525
0.26266
0.25042
0.239024
0.228596
0.219188
0.210802
0.203497
0.197179
0.191718
0.187009
0.18297
0.179533
0.176642
0.174253
0.172333
0.170857
0.169808
0.169178
0.168965
0.169173
0.169794
0.170822
0.172255
0.174101
0.17637
0.179083
0.182264
0.185944
0.190159
0.194955
0.200382
0.20649
0.213161
0.220322
0.227852
0.235588
0.243315
0.250773
0.257663
0.263663
0.268454
0.271753
0.273337
0.273076
0.270995
0.267254
0.262094
0.255813
0.248732
0.24117
0.233416
0.225719
0.218277
0.211244
0.204727
0.198801
0.193554
0.188925
0.184864
0.181327
0.17828
0.175693
0.173544
0.171815
0.170495
0.169581
0.169074
0.168984
0.169313
0.17006
0.171226
0.172824
0.174872
0.177397
0.180434
0.184033
0.18825
0.193158
0.198845
0.205421
0.213036
0.221701
0.231394
0.2421
0.253747
0.266186
0.279173
0.29235
0.305247
0.317304
0.327903
0.336427
0.342325
0.345179
0.783532
0.778819
0.769724
0.755584
0.735381
0.707717
0.670982
0.623974
0.567224
0.504451
0.442137
0.386389
0.340208
0.303597
0.275127
0.253304
0.236374
0.223102
0.212619
0.204302
0.197709
0.192522
0.188514
0.185528
0.183456
0.182233
0.181827
0.182239
0.183462
0.18551
0.188429
0.1923
0.197244
0.203433
0.211102
0.220565
0.232245
0.24671
0.264745
0.286943
0.313944
0.346162
0.383407
0.42447
0.466972
0.507805
0.544043
0.573689
0.595801
0.61015
0.616781
0.615701
0.606918
0.590398
0.566135
0.53451
0.496737
0.455118
0.412721
0.372534
0.336622
0.305875
0.280267
0.25927
0.242344
0.228728
0.217719
0.208795
0.201568
0.195747
0.191118
0.187524
0.184855
0.183041
0.182045
0.181862
0.182494
0.183949
0.186268
0.189527
0.193845
0.199397
0.206433
0.215302
0.226489
0.240676
0.258819
0.282265
0.312874
0.35205
0.401001
0.459033
0.522175
0.583845
0.638106
0.682206
0.716264
0.741697
0.760094
0.772751
0.780579
0.784124
0.911784
0.910456
0.907914
0.90401
0.898506
0.891025
0.880992
0.867527
0.849263
0.824056
0.788581
0.738062
0.667537
0.577726
0.482597
0.401589
0.341528
0.299199
0.269406
0.24811
0.232644
0.221313
0.213039
0.207135
0.20317
0.200884
0.200147
0.200935
0.203263
0.207231
0.213059
0.221116
0.231982
0.246539
0.266126
0.292756
0.329336
0.379572
0.446458
0.52689
0.609518
0.681217
0.736505
0.77688
0.805933
0.826838
0.841863
0.852519
0.859779
0.864245
0.866254
0.865929
0.863253
0.85805
0.849915
0.838155
0.821665
0.798748
0.766886
0.722683
0.662752
0.587032
0.50354
0.426111
0.363949
0.317907
0.284457
0.260048
0.242036
0.228623
0.218616
0.21123
0.205951
0.202458
0.200566
0.200206
0.201369
0.204105
0.208579
0.215091
0.224136
0.23649
0.253377
0.276721
0.309535
0.356266
0.422098
0.508424
0.604114
0.689341
0.753956
0.79974
0.831937
0.854935
0.871688
0.884086
0.893336
0.90022
0.905249
0.908756
0.91095
0.911951
0.947823
0.947171
0.945931
0.944051
0.941446
0.93799
0.933494
0.927688
0.92017
0.910341
0.897281
0.879536
0.854744
0.819026
0.766355
0.68966
0.588908
0.483486
0.398068
0.33855
0.298799
0.272128
0.254061
0.241906
0.23409
0.229723
0.228365
0.229912
0.234464
0.242418
0.254594
0.272421
0.298287
0.336034
0.39119
0.468877
0.565556
0.662292
0.740219
0.795732
0.834061
0.860828
0.879955
0.893924
0.904289
0.912037
0.91781
0.92203
0.924973
0.926812
0.927647
0.927511
0.926402
0.924267
0.920988
0.916367
0.910091
0.901688
0.890434
0.875211
0.854248
0.824715
0.782203
0.720795
0.63659
0.537487
0.444817
0.373671
0.324005
0.290069
0.266764
0.250708
0.239824
0.232882
0.229195
0.228465
0.230639
0.235909
0.244824
0.258434
0.27857
0.308347
0.352862
0.419205
0.511697
0.618692
0.713743
0.783157
0.830379
0.862548
0.885066
0.901315
0.913356
0.922466
0.929457
0.934865
0.939048
0.942252
0.944644
0.94634
0.947413
0.947905
0.964065
0.963651
0.962868
0.961687
0.960066
0.957942
0.955225
0.951788
0.947453
0.941967
0.934966
0.925915
0.914003
0.897971
0.875813
0.844183
0.797756
0.729403
0.635695
0.530146
0.439089
0.374375
0.331931
0.304858
0.288266
0.279333
0.276673
0.279937
0.289517
0.306777
0.334444
0.377111
0.440922
0.528899
0.62987
0.720387
0.787748
0.834312
0.8664
0.889029
0.905405
0.917542
0.926712
0.933733
0.939149
0.943326
0.946515
0.94889
0.950568
0.951627
0.95211
0.952032
0.95139
0.950164
0.9483
0.945711
0.942266
0.937772
0.93195
0.924392
0.91449
0.90132
0.883437
0.858545
0.823002
0.771261
0.697234
0.601707
0.502178
0.420653
0.363357
0.325462
0.301075
0.286168
0.27844
0.276847
0.281184
0.292066
0.311228
0.342002
0.389934
0.461997
0.559263
0.664083
0.751088
0.812601
0.854218
0.882754
0.902953
0.917675
0.928685
0.937097
0.94363
0.948764
0.952827
0.956048
0.958589
0.960565
0.962058
0.963125
0.963804
0.964116
0.973198
0.972899
0.972334
0.971486
0.970328
0.968823
0.966915
0.964533
0.961575
0.957905
0.953333
0.947597
0.940324
0.930973
0.918751
0.902397
0.87998
0.848495
0.80354
0.740096
0.657292
0.566564
0.487512
0.430574
0.394641
0.375425
0.369916
0.377262
0.39852
0.436672
0.495527
0.574886
0.663285
0.742488
0.80302
0.84619
0.876677
0.898541
0.914573
0.92661
0.935807
0.942935
0.948519
0.952922
0.956399
0.95913
0.961246
0.96284
0.963975
0.964695
0.965023
0.96497
0.964533
0.963701
0.962442
0.960711
0.958433
0.955508
0.951793
0.94709
0.941116
0.93347
0.923569
0.910546
0.893105
0.869167
0.835603
0.788032
0.722099
0.638804
0.551108
0.476904
0.424128
0.39109
0.373937
0.370222
0.379382
0.402882
0.444263
0.507613
0.591603
0.682038
0.759922
0.817772
0.858437
0.887003
0.907474
0.922511
0.933833
0.942537
0.949334
0.954712
0.959009
0.962465
0.96525
0.967491
0.96928
0.970684
0.971753
0.97252
0.973009
0.973235
0.979013
0.97878
0.97834
0.977681
0.976786
0.975627
0.974168
0.972362
0.970144
0.967428
0.9641
0.960006
0.95494
0.94862
0.940657
0.93047
0.917249
0.899833
0.876586
0.845356
0.803836
0.751025
0.690141
0.630241
0.582197
0.552783
0.544167
0.556682
0.589688
0.640081
0.700109
0.75906
0.809162
0.848261
0.877682
0.899668
0.916216
0.928831
0.938578
0.946225
0.952281
0.957114
0.960991
0.964106
0.966605
0.968592
0.970147
0.971326
0.97217
0.972707
0.972953
0.972913
0.972587
0.971966
0.971031
0.969752
0.968083
0.965961
0.963303
0.95999
0.955869
0.950724
0.944265
0.936086
0.925627
0.91204
0.894147
0.870308
0.838408
0.796287
0.743285
0.683039
0.624673
0.578593
0.551154
0.544551
0.559044
0.594028
0.646296
0.707601
0.766888
0.816609
0.855042
0.883795
0.905213
0.921312
0.933585
0.943081
0.950535
0.956469
0.961237
0.965098
0.968242
0.970809
0.972904
0.974608
0.975978
0.977061
0.977888
0.978485
0.978866
0.979041
0.983021
0.982831
0.982472
0.981934
0.981205
0.980265
0.979089
0.977642
0.975879
0.973741
0.971152
0.968015
0.964201
0.959544
0.953827
0.946743
0.9379
0.926789
0.912768
0.895086
0.873024
0.846255
0.81554
0.783563
0.755126
0.735882
0.730148
0.739265
0.761045
0.790549
0.822181
0.851697
0.877006
0.897709
0.914264
0.927398
0.937823
0.946133
0.952797
0.958187
0.962563
0.966128
0.969037
0.971408
0.97333
0.974872
0.976088
0.977014
0.97768
0.978105
0.9783
0.978268
0.97801
0.977519
0.976782
0.975778
0.974476
0.972833
0.970793
0.968283
0.965204
0.961429
0.956792
0.951074
0.943992
0.935145
0.92403
0.910017
0.892375
0.870414
0.84384
0.813441
0.781903
0.753996
0.735349
0.730323
0.740112
0.762448
0.792432
0.824446
0.854221
0.87968
0.900452
0.91703
0.930163
0.94058
0.948885
0.955553
0.960945
0.965345
0.968954
0.971926
0.974379
0.976405
0.978075
0.979443
0.98055
0.981429
0.982103
0.98259
0.982901
0.983045
0.985943
0.985783
0.985479
0.985026
0.984412
0.983624
0.982641
0.981438
0.979981
0.97823
0.976129
0.973613
0.970597
0.966974
0.962616
0.957346
0.95096
0.943214
0.933842
0.922592
0.909311
0.894111
0.877611
0.861184
0.846989
0.837554
0.83489
0.839607
0.850604
0.865559
0.881986
0.897973
0.91242
0.924904
0.935416
0.944148
0.951355
0.957294
0.962189
0.966239
0.96959
0.972365
0.974658
0.976546
0.978092
0.979341
0.98033
0.981087
0.981634
0.981983
0.982143
0.982117
0.981904
0.981501
0.980898
0.980077
0.979019
0.977691
0.976055
0.97406
0.971642
0.968717
0.965184
0.960913
0.955748
0.94948
0.941874
0.932671
0.921623
0.908579
0.893639
0.87739
0.861154
0.847052
0.837615
0.834924
0.839614
0.850619
0.865684
0.882312
0.898545
0.91324
0.925946
0.936647
0.945536
0.952875
0.958926
0.963923
0.968058
0.971497
0.974363
0.976755
0.978751
0.980415
0.981797
0.982936
0.983862
0.9846
0.985168
0.985579
0.985842
0.985963
0.988164
0.988025
0.987763
0.987372
0.986843
0.986165
0.985324
0.984299
0.983064
0.98159
0.979837
0.977757
0.975292
0.972374
0.968921
0.964828
0.959984
0.954272
0.947586
0.939859
0.93112
0.921575
0.911702
0.902314
0.894527
0.889531
0.888223
0.890847
0.896889
0.905285
0.91483
0.924514
0.933659
0.941908
0.949133
0.955347
0.960634
0.965103
0.968869
0.972041
0.974708
0.976943
0.978811
0.980363
0.981643
0.982683
0.983511
0.984147
0.984607
0.984901
0.985036
0.985014
0.984835
0.984495
0.983987
0.983299
0.982414
0.98131
0.979959
0.978323
0.976358
0.97401
0.971211
0.967884
0.963932
0.959245
0.95371
0.947221
0.939708
0.931189
0.921847
0.912122
0.902787
0.894929
0.889755
0.888212
0.890608
0.896492
0.904847
0.914468
0.924314
0.933666
0.942131
0.949563
0.955967
0.961424
0.966046
0.96995
0.973243
0.976025
0.978374
0.980357
0.982028
0.983432
0.984605
0.985576
0.98637
0.987005
0.987494
0.987849
0.988077
0.988181
0.989908
0.989786
0.989556
0.989213
0.98875
0.988158
0.987425
0.986536
0.985472
0.984208
0.982716
0.980961
0.978904
0.976498
0.973691
0.970421
0.966628
0.962259
0.957281
0.951701
0.945602
0.93918
0.932783
0.92692
0.922218
0.919297
0.918595
0.920217
0.923897
0.929095
0.935166
0.941525
0.947737
0.953528
0.958759
0.963384
0.967415
0.970896
0.973883
0.976438
0.978614
0.980458
0.982014
0.983317
0.984398
0.985281
0.985987
0.986532
0.986926
0.987178
0.987294
0.987275
0.987122
0.98683
0.986395
0.985807
0.985053
0.984116
0.982976
0.981606
0.979974
0.978042
0.975767
0.973099
0.969979
0.966348
0.962154
0.95736
0.951966
0.946039
0.939753
0.933425
0.927536
0.922701
0.919552
0.918569
0.919918
0.923391
0.928482
0.934552
0.940999
0.947357
0.953324
0.958738
0.963544
0.967747
0.971388
0.974523
0.977211
0.979513
0.981481
0.983157
0.984582
0.985788
0.986801
0.987645
0.988337
0.988891
0.98932
0.989632
0.989831
0.989923
0.991315
0.991207
0.991002
0.990698
0.990288
0.989765
0.98912
0.98834
0.987411
0.986314
0.985028
0.983528
0.981786
0.979771
0.977451
0.974789
0.971756
0.968333
0.96452
0.960355
0.955927
0.9514
0.947022
0.943125
0.940083
0.938245
0.937844
0.938929
0.941351
0.944803
0.948914
0.953327
0.957753
0.961988
0.965909
0.969456
0.972611
0.975386
0.977804
0.9799
0.981706
0.983252
0.984567
0.985677
0.986602
0.987363
0.987973
0.988445
0.988787
0.989007
0.989108
0.989091
0.988957
0.988704
0.988326
0.987817
0.987166
0.986361
0.985386
0.984221
0.982845
0.981229
0.979347
0.977165
0.97465
0.971771
0.968506
0.964852
0.960834
0.956531
0.952086
0.947726
0.943762
0.940563
0.938491
0.937814
0.938631
0.940836
0.944154
0.948221
0.952669
0.957189
0.961555
0.965627
0.969332
0.972645
0.975572
0.978135
0.980366
0.9823
0.983971
0.985408
0.986638
0.987686
0.988572
0.989313
0.989923
0.990413
0.990793
0.991069
0.991247
0.991328
0.992476
0.992379
0.992196
0.991924
0.991558
0.991093
0.99052
0.989831
0.989014
0.988055
0.986938
0.985645
0.984157
0.982453
0.980515
0.978322
0.975864
0.973139
0.970164
0.966984
0.963682
0.960387
0.957277
0.954572
0.952505
0.951286
0.951048
0.951815
0.953495
0.955906
0.958817
0.962
0.965259
0.968443
0.971453
0.974227
0.97674
0.978985
0.980969
0.98271
0.984226
0.985536
0.986659
0.987612
0.988413
0.989073
0.989605
0.990017
0.990317
0.99051
0.990598
0.990584
0.990466
0.990244
0.989913
0.989468
0.988902
0.988203
0.987362
0.986363
0.98519
0.983825
0.982249
0.980443
0.978387
0.976067
0.973479
0.970635
0.967569
0.964352
0.961098
0.95797
0.955176
0.952949
0.951509
0.951019
0.951539
0.953013
0.95528
0.958121
0.961303
0.964615
0.967893
0.971021
0.973929
0.97658
0.978963
0.981083
0.982954
0.984594
0.986025
0.987267
0.988338
0.989256
0.990036
0.990691
0.991233
0.99167
0.992009
0.992256
0.992414
0.992488
0.993452
0.993364
0.9932
0.992955
0.992628
0.992212
0.991702
0.991091
0.990369
0.989527
0.988552
0.987433
0.986156
0.984709
0.98308
0.981263
0.979254
0.977062
0.974712
0.972248
0.969739
0.967286
0.965017
0.96308
0.961627
0.960788
0.960643
0.961206
0.962417
0.964159
0.966286
0.968646
0.971102
0.973545
0.975893
0.978094
0.980118
0.981953
0.983594
0.985051
0.986331
0.987447
0.988411
0.989235
0.989931
0.990507
0.990973
0.991335
0.9916
0.99177
0.991848
0.991835
0.991732
0.991535
0.991244
0.990853
0.990357
0.989748
0.989018
0.988156
0.987151
0.985991
0.984663
0.983156
0.981461
0.979573
0.977497
0.975251
0.97287
0.970415
0.967974
0.965665
0.963631
0.962024
0.960985
0.960617
0.96096
0.961982
0.963584
0.965629
0.967963
0.970443
0.972948
0.975386
0.977694
0.979836
0.981792
0.983556
0.985132
0.98653
0.987761
0.988839
0.989775
0.990582
0.991272
0.991854
0.992337
0.992728
0.993032
0.993254
0.993396
0.993462
0.994287
0.994208
0.994059
0.99384
0.993545
0.993173
0.992719
0.992176
0.991538
0.990798
0.989947
0.988977
0.987879
0.986647
0.985276
0.983764
0.982115
0.980343
0.978471
0.976542
0.974611
0.972756
0.971068
0.969652
0.968605
0.968012
0.967924
0.968347
0.969243
0.970534
0.972123
0.973906
0.975788
0.977687
0.979539
0.981302
0.982945
0.984452
0.985817
0.98704
0.988125
0.989079
0.989909
0.990622
0.991228
0.991732
0.992141
0.992461
0.992694
0.992845
0.992914
0.992903
0.992811
0.992637
0.99238
0.992036
0.991601
0.991069
0.990434
0.989689
0.988825
0.987836
0.986713
0.985451
0.984045
0.982499
0.980821
0.97903
0.97716
0.975259
0.973396
0.971657
0.970142
0.968952
0.968183
0.9679
0.968133
0.968859
0.970018
0.971521
0.973265
0.97515
0.977087
0.979004
0.980851
0.982591
0.984202
0.985675
0.987006
0.9882
0.98926
0.990196
0.991015
0.991726
0.992336
0.992854
0.993285
0.993635
0.993908
0.994108
0.994237
0.994296
0.995012
0.994941
0.994807
0.994609
0.994346
0.994013
0.993608
0.993127
0.992564
0.991914
0.991173
0.990333
0.989391
0.988343
0.987189
0.98593
0.984574
0.983137
0.98164
0.98012
0.978622
0.977204
0.975933
0.97488
0.974113
0.973686
0.973633
0.973958
0.974632
0.975605
0.97681
0.978176
0.979634
0.981123
0.982595
0.984014
0.985352
0.986595
0.987732
0.98876
0.98968
0.990495
0.991209
0.991827
0.992354
0.992795
0.993155
0.993436
0.993642
0.993775
0.993837
0.993827
0.993745
0.993592
0.993365
0.993062
0.99268
0.992216
0.991664
0.991019
0.990278
0.989434
0.988483
0.987425
0.986258
0.984988
0.983625
0.982189
0.980708
0.979222
0.977784
0.976456
0.975309
0.974414
0.973833
0.973613
0.973772
0.974298
0.975151
0.976272
0.977591
0.979038
0.980547
0.982064
0.983547
0.984964
0.986293
0.987523
0.988648
0.989665
0.990578
0.99139
0.992105
0.99273
0.993269
0.993729
0.994113
0.994426
0.994671
0.994851
0.994967
0.99502
0.99565
0.995586
0.995466
0.995289
0.995053
0.994757
0.994398
0.993973
0.993478
0.992911
0.992266
0.991543
0.990737
0.989849
0.988879
0.987833
0.986719
0.985553
0.984355
0.983153
0.981985
0.980894
0.979928
0.979138
0.97857
0.978259
0.978227
0.978479
0.978993
0.979735
0.980658
0.981713
0.98285
0.984024
0.985198
0.986342
0.987434
0.988458
0.989405
0.990268
0.991047
0.991742
0.992355
0.992889
0.993346
0.993731
0.994045
0.994292
0.994474
0.994591
0.994645
0.994637
0.994565
0.994429
0.99423
0.993964
0.99363
0.993225
0.992747
0.992191
0.991556
0.990837
0.990035
0.989148
0.988179
0.987135
0.986027
0.984872
0.983695
0.982527
0.981409
0.980386
0.979509
0.978827
0.978383
0.97821
0.978321
0.978706
0.979341
0.980185
0.981191
0.982308
0.983489
0.984693
0.985884
0.987038
0.988133
0.989159
0.990105
0.990971
0.991753
0.992454
0.993077
0.993624
0.994099
0.994505
0.994846
0.995125
0.995344
0.995505
0.995609
0.995657
0.996218
0.996161
0.996054
0.995896
0.995687
0.995425
0.995109
0.994736
0.994303
0.99381
0.993254
0.992634
0.991949
0.9912
0.990389
0.989523
0.988612
0.987668
0.986709
0.98576
0.984847
0.984005
0.983268
0.982672
0.982247
0.982018
0.982001
0.982197
0.982592
0.983161
0.983872
0.98469
0.98558
0.986508
0.987445
0.988367
0.989256
0.990098
0.990883
0.991605
0.992262
0.992852
0.993376
0.993834
0.994229
0.994563
0.994837
0.995053
0.995212
0.995315
0.995363
0.995355
0.995292
0.995173
0.994998
0.994766
0.994476
0.994125
0.993712
0.993236
0.992693
0.992085
0.991409
0.990669
0.989868
0.989011
0.988112
0.987183
0.986247
0.985327
0.984454
0.983662
0.982987
0.982464
0.982123
0.981986
0.982063
0.982349
0.982824
0.983464
0.984233
0.985098
0.986024
0.986978
0.987935
0.988871
0.989771
0.990622
0.991415
0.992147
0.992814
0.993416
0.993954
0.99443
0.994846
0.995203
0.995504
0.995751
0.995946
0.996089
0.996182
0.996225
0.996729
0.996679
0.996584
0.996445
0.996261
0.996031
0.995755
0.99543
0.995056
0.994631
0.994155
0.993628
0.99305
0.992423
0.99175
0.991039
0.990296
0.989536
0.988772
0.988024
0.987312
0.986662
0.986099
0.985647
0.985329
0.98516
0.985151
0.985304
0.985608
0.986046
0.986595
0.98723
0.987926
0.988658
0.989404
0.990145
0.990866
0.991554
0.992202
0.992803
0.993352
0.99385
0.994294
0.994685
0.995024
0.995311
0.995548
0.995735
0.995873
0.995963
0.996005
0.995998
0.995943
0.995839
0.995688
0.995487
0.995236
0.994934
0.994581
0.994175
0.993716
0.993204
0.992639
0.992025
0.991365
0.990667
0.989939
0.989195
0.988451
0.987728
0.987046
0.986433
0.985912
0.98551
0.985247
0.985139
0.985193
0.985405
0.985763
0.986248
0.986838
0.987507
0.988231
0.988986
0.98975
0.990507
0.991241
0.991943
0.992603
0.993217
0.993781
0.994293
0.994755
0.995165
0.995525
0.995837
0.9961
0.996317
0.996488
0.996615
0.996697
0.996735
0.997193
0.997149
0.997067
0.996945
0.996785
0.996586
0.996347
0.996067
0.995747
0.995386
0.994983
0.99454
0.994057
0.993538
0.992985
0.992405
0.991806
0.991198
0.990594
0.990007
0.989455
0.988955
0.988525
0.988183
0.987944
0.98782
0.987816
0.987935
0.988169
0.988505
0.988928
0.98942
0.989962
0.990537
0.991127
0.991719
0.992299
0.992858
0.993388
0.993883
0.994339
0.994754
0.995127
0.995457
0.995745
0.995989
0.996192
0.996352
0.996471
0.996549
0.996585
0.996579
0.996531
0.996442
0.996312
0.996139
0.995925
0.995668
0.995369
0.995027
0.994642
0.994215
0.993748
0.993243
0.992704
0.992138
0.991554
0.990962
0.990374
0.989807
0.989277
0.988803
0.988402
0.988094
0.987891
0.987806
0.987844
0.988001
0.98827
0.988638
0.989089
0.989606
0.990169
0.990762
0.991369
0.991976
0.99257
0.993143
0.993687
0.994196
0.994668
0.9951
0.995491
0.995841
0.99615
0.996418
0.996646
0.996834
0.996983
0.997094
0.997165
0.997199
0.997618
0.99758
0.997509
0.997405
0.997268
0.997097
0.996894
0.996657
0.996387
0.996084
0.995748
0.995381
0.994984
0.994559
0.994111
0.993644
0.993166
0.992685
0.992211
0.991756
0.99133
0.990948
0.990623
0.990365
0.990187
0.990095
0.990095
0.990186
0.990365
0.990621
0.990945
0.991323
0.991743
0.99219
0.992653
0.993121
0.993583
0.994032
0.99446
0.994863
0.995236
0.995578
0.995887
0.996162
0.996403
0.996608
0.996779
0.996915
0.997016
0.997082
0.997112
0.997107
0.997067
0.996991
0.996881
0.996735
0.996554
0.996339
0.996089
0.995804
0.995486
0.995135
0.994753
0.994343
0.993908
0.993455
0.99299
0.992523
0.992063
0.991622
0.991213
0.990849
0.990543
0.990307
0.990152
0.990086
0.990113
0.990229
0.990431
0.990708
0.991051
0.991446
0.991881
0.992343
0.99282
0.993301
0.993777
0.994238
0.99468
0.995098
0.995487
0.995845
0.996172
0.996466
0.996727
0.996954
0.997148
0.997309
0.997437
0.997532
0.997594
0.997623
0.99801
0.997978
0.997918
0.99783
0.997714
0.997572
0.997402
0.997205
0.996982
0.996732
0.996457
0.996159
0.995838
0.995497
0.99514
0.994771
0.994395
0.994021
0.993654
0.993305
0.992981
0.992693
0.992449
0.992257
0.992125
0.992058
0.992059
0.992128
0.992263
0.992457
0.992702
0.992989
0.99331
0.993654
0.994012
0.994377
0.994739
0.995094
0.995434
0.995756
0.996057
0.996333
0.996585
0.99681
0.997007
0.997177
0.997318
0.997431
0.997515
0.99757
0.997596
0.997592
0.997558
0.997495
0.997403
0.997282
0.997132
0.996955
0.996749
0.996517
0.996258
0.995975
0.995668
0.99534
0.994996
0.994638
0.994274
0.993911
0.993556
0.993218
0.992906
0.992629
0.992398
0.99222
0.992103
0.992052
0.99207
0.992156
0.992306
0.992513
0.99277
0.993069
0.993401
0.993756
0.994125
0.994501
0.994875
0.995241
0.995595
0.99593
0.996245
0.996537
0.996804
0.997047
0.997263
0.997452
0.997614
0.997749
0.997857
0.997937
0.99799
0.998014
0.998373
0.998347
0.998297
0.998225
0.99813
0.998014
0.997876
0.997716
0.997536
0.997336
0.997117
0.99688
0.996628
0.996361
0.996082
0.995797
0.995508
0.995223
0.994945
0.994683
0.994441
0.994227
0.994047
0.993906
0.99381
0.993761
0.993763
0.993815
0.993915
0.994059
0.994241
0.994455
0.994696
0.994955
0.995226
0.995504
0.995783
0.996057
0.996322
0.996573
0.996809
0.997028
0.997227
0.997407
0.997565
0.997702
0.997816
0.997908
0.997976
0.99802
0.998041
0.998038
0.99801
0.997959
0.997884
0.997786
0.997666
0.997523
0.997359
0.997173
0.996968
0.996745
0.996504
0.996249
0.995981
0.995705
0.995426
0.99515
0.994881
0.994626
0.994393
0.994187
0.994015
0.993883
0.993796
0.993758
0.993771
0.993833
0.993942
0.994094
0.994284
0.994507
0.994755
0.995022
0.995302
0.995589
0.995877
0.996161
0.996437
0.9967
0.996948
0.99718
0.997394
0.997589
0.997763
0.997916
0.998049
0.998159
0.998247
0.998313
0.998356
0.998376
0.998712
0.99869
0.998651
0.998594
0.998519
0.998427
0.998319
0.998194
0.998054
0.9979
0.997731
0.99755
0.997357
0.997155
0.996946
0.996732
0.996517
0.996306
0.996102
0.99591
0.995735
0.995581
0.995451
0.995351
0.995282
0.995248
0.99525
0.995288
0.99536
0.995463
0.995595
0.99575
0.995925
0.996115
0.996315
0.99652
0.996728
0.996933
0.997132
0.997322
0.997501
0.997668
0.997821
0.99796
0.998082
0.998188
0.998277
0.998349
0.998402
0.998437
0.998454
0.998451
0.998429
0.998389
0.998331
0.998254
0.99816
0.998049
0.997922
0.99778
0.997623
0.997452
0.99727
0.997077
0.996876
0.99667
0.996463
0.996258
0.996061
0.995875
0.995705
0.995556
0.995432
0.995337
0.995274
0.995246
0.995255
0.995299
0.995376
0.995485
0.995622
0.995783
0.995963
0.996158
0.996365
0.996577
0.996792
0.997005
0.997213
0.997412
0.997602
0.99778
0.997944
0.998095
0.998231
0.998351
0.998455
0.998542
0.998612
0.998664
0.998698
0.998714
0.999028
0.999012
0.998983
0.99894
0.998884
0.998815
0.998735
0.998642
0.998539
0.998426
0.998302
0.998171
0.998032
0.997886
0.997736
0.997584
0.997431
0.997283
0.99714
0.997006
0.996885
0.996778
0.996689
0.996621
0.996574
0.996551
0.996552
0.996578
0.996628
0.996699
0.99679
0.996898
0.997019
0.997152
0.997292
0.997437
0.997584
0.99773
0.997873
0.99801
0.998139
0.99826
0.998371
0.998472
0.998562
0.99864
0.998706
0.998759
0.998799
0.998825
0.998838
0.998836
0.998819
0.998789
0.998746
0.998689
0.99862
0.998538
0.998445
0.998341
0.998227
0.998103
0.997972
0.997833
0.99769
0.997543
0.997396
0.997252
0.997114
0.996984
0.996866
0.996763
0.996677
0.996612
0.996569
0.99655
0.996555
0.996585
0.996638
0.996713
0.996807
0.996917
0.997043
0.997179
0.997324
0.997474
0.997627
0.997779
0.997928
0.998071
0.998209
0.998338
0.998458
0.998569
0.998669
0.998758
0.998836
0.998901
0.998953
0.998992
0.999018
0.99903
0.999326
0.999315
0.999295
0.999265
0.999227
0.99918
0.999125
0.999062
0.998993
0.998916
0.998834
0.998746
0.998654
0.998558
0.998459
0.998359
0.99826
0.998163
0.998071
0.997985
0.997907
0.997839
0.997783
0.997739
0.99771
0.997695
0.997696
0.997713
0.997744
0.99779
0.997847
0.997916
0.997994
0.998079
0.99817
0.998265
0.998361
0.998457
0.998551
0.998641
0.998726
0.998806
0.998881
0.998949
0.999009
0.999062
0.999107
0.999143
0.99917
0.999188
0.999196
0.999195
0.999184
0.999163
0.999133
0.999095
0.999048
0.998993
0.99893
0.998861
0.998784
0.998703
0.998616
0.998524
0.99843
0.998334
0.998238
0.998144
0.998055
0.997972
0.997896
0.99783
0.997776
0.997734
0.997707
0.997694
0.997698
0.997717
0.99775
0.997797
0.997857
0.997928
0.998008
0.998096
0.99819
0.998288
0.998387
0.998487
0.998585
0.99868
0.998771
0.998857
0.998938
0.999013
0.999081
0.999141
0.999194
0.999238
0.999274
0.999301
0.999319
0.999327
0.999606
0.9996
0.999588
0.999571
0.999549
0.999523
0.999491
0.999456
0.999416
0.999373
0.999327
0.999278
0.999227
0.999174
0.999119
0.999064
0.999009
0.998956
0.998906
0.998859
0.998817
0.99878
0.99875
0.998726
0.998711
0.998703
0.998703
0.998712
0.998729
0.998753
0.998785
0.998822
0.998864
0.99891
0.99896
0.999012
0.999065
0.999118
0.99917
0.99922
0.999267
0.999312
0.999354
0.999392
0.999426
0.999456
0.999481
0.999502
0.999517
0.999527
0.999532
0.999531
0.999525
0.999513
0.999496
0.999474
0.999448
0.999417
0.999381
0.999342
0.9993
0.999254
0.999206
0.999156
0.999103
0.99905
0.998997
0.998946
0.998897
0.998852
0.998811
0.998775
0.998746
0.998724
0.998709
0.998702
0.998704
0.998714
0.998732
0.998758
0.99879
0.998828
0.998872
0.99892
0.998971
0.999025
0.99908
0.999135
0.999189
0.999242
0.999292
0.99934
0.999386
0.999428
0.999466
0.9995
0.999531
0.999556
0.999577
0.999592
0.999602
0.999607
0.999872
0.99987
0.999866
0.999861
0.999854
0.999845
0.999835
0.999824
0.999812
0.999798
0.999784
0.999769
0.999754
0.999737
0.99972
0.999703
0.999686
0.99967
0.999654
0.999639
0.999626
0.999615
0.999606
0.999599
0.999594
0.999591
0.999591
0.999594
0.999599
0.999607
0.999616
0.999628
0.999641
0.999655
0.99967
0.999687
0.999703
0.99972
0.999736
0.999751
0.999766
0.99978
0.999792
0.999804
0.999815
0.999824
0.999832
0.999838
0.999843
0.999847
0.999848
0.999848
0.999846
0.999842
0.999837
0.99983
0.999822
0.999812
0.999801
0.999789
0.999776
0.999762
0.999747
0.999731
0.999715
0.999698
0.999682
0.999666
0.999651
0.999637
0.999624
0.999613
0.999604
0.999598
0.999593
0.999591
0.999592
0.999595
0.9996
0.999608
0.999618
0.99963
0.999643
0.999658
0.999674
0.999691
0.999708
0.999725
0.999742
0.999758
0.999774
0.999788
0.999802
0.999815
0.999827
0.999838
0.999848
0.999856
0.999862
0.999867
0.99987
0.999872
)
;

boundaryField
{
    top
    {
        type            calculated;
        value           uniform 1;
    }
    bottom
    {
        type            calculated;
        value           uniform 0.148957;
    }
    frontAndBack
    {
        type            empty;
    }
    left_cyc
    {
        type            cyclic;
    }
    right_cyc
    {
        type            cyclic;
    }
}


// ************************************************************************* //
