/*--------------------------------*- C++ -*----------------------------------*\
| =========                 |                                                 |
| \\      /  F ield         | OpenFOAM: The Open Source CFD Toolbox           |
|  \\    /   O peration     | Version:  2.3.0                                 |
|   \\  /    A nd           | Web:      www.OpenFOAM.org                      |
|    \\/     M anipulation  |                                                 |
\*---------------------------------------------------------------------------*/
FoamFile
{
    version     2.0;
    format      ascii;
    class       volScalarField;
    location    "3000";
    object      p;
}
// * * * * * * * * * * * * * * * * * * * * * * * * * * * * * * * * * * * * * //

dimensions      [0 2 -2 0 0 0 0];

internalField   nonuniform List<scalar> 
765
(
0
-13.3798
-38.0413
-72.8398
-116.187
-165.745
-217.89
-267.746
-311.386
-346.559
-369.333
-378.515
-380.893
-379.937
-374.236
-358.047
-326.956
-286.707
-238.967
-187.233
-136.323
-90.5546
-52.771
-24.8419
-8.07738
-3.35926
-10.9926
-30.5062
-60.9076
-100.776
-148.062
-199.612
-250.798
-297.088
-335.331
-363.45
-376.502
-380.681
-380.912
-377.472
-365.875
-339.492
-302.349
-256.979
-206.174
-154.207
-105.789
-64.1993
-31.563
-9.35162
1.37346
43.5212
34.8772
19.1971
-2.55018
-29.2836
-59.7545
-92.7323
-127.88
-161.595
-185.525
-200.134
-207.294
-208.429
-208.045
-204.221
-192.535
-173.06
-143.013
-107.646
-74.071
-42.8512
-14.9244
8.39115
25.9223
36.6289
39.6699
34.7503
22.333
3.32852
-21.1956
-50.0283
-81.8538
-115.995
-151.077
-178.721
-196.053
-206.034
-208.488
-208.586
-206.686
-197.605
-181.225
-154.759
-119.858
-85.1538
-52.6552
-22.9047
2.81094
23.2847
37.4637
44.4124
133.52
126.613
114.109
96.8843
75.9138
52.1667
26.5585
-0.347685
-25.6693
-41.9397
-49.4459
-49.356
-46.5696
-47.7668
-50.3272
-46.0177
-34.0582
-11.9289
14.8287
40.7357
65.0086
86.8053
105.15
119.046
127.559
129.977
126.059
116.184
101.135
81.872
59.3904
34.6557
8.39468
-18.0257
-37.8925
-47.9008
-50.4063
-47.2927
-47.0762
-50.2246
-48.5371
-39.3108
-20.5426
5.73636
32.4054
57.6718
80.8839
101.103
117.355
128.675
134.232
220.717
214.896
204.391
190.063
172.947
154.178
135.003
116.765
101.752
92.1792
91.0204
99.9346
107.348
104.049
93.9322
90.1003
96.8401
109.537
126.713
145.468
164.302
181.892
197.047
208.673
215.83
217.861
214.563
206.261
193.693
177.845
159.833
140.874
122.303
105.868
94.4343
89.712
96.0058
105.581
106.235
97.2506
90.0403
93.7208
104.568
120.632
139.224
158.436
176.946
193.539
207.102
216.628
221.314
293.975
289.348
281.08
270.012
257.148
243.551
230.307
218.535
209.862
206.135
210.441
224.491
234.495
230.213
215.541
206.426
207.471
214.177
224.833
237.474
250.871
263.903
275.48
284.553
290.21
291.821
289.2
282.649
272.878
260.845
247.613
234.276
221.96
212.018
206.458
207.291
218.812
232.31
233.183
220.675
208.204
206.323
211.309
220.899
233.124
246.558
260.095
272.657
283.191
290.715
294.448
364.693
361.094
354.754
346.476
337.222
327.981
319.71
313.312
309.754
309.938
315.039
326.675
335.805
331.733
319.206
311.264
309.302
311.342
316.655
324.191
333.033
342.219
350.752
357.642
362.012
363.264
361.224
356.174
348.796
340.003
330.798
322.169
315.063
310.406
309.236
312.338
321.925
333.751
334.589
323.472
313.141
309.411
310.134
314.449
321.358
329.942
339.282
348.415
356.349
362.148
365.061
433.416
430.851
426.43
420.872
415.019
409.719
405.751
403.787
404.28
407.468
413.313
421.711
427.984
425.148
416.608
409.602
405.348
403.743
404.745
407.941
412.73
418.348
423.954
428.687
431.772
432.667
431.208
427.658
422.63
416.93
411.426
406.94
404.212
403.779
406.011
410.878
418.52
426.549
427.129
419.557
411.615
406.405
403.829
403.941
406.413
410.754
416.26
422.134
427.519
431.592
433.679
500.882
499.446
497.102
494.409
492.004
490.513
490.492
492.344
496.14
501.66
508.275
515.089
519.351
517.477
511.222
504.417
498.396
493.87
491.247
490.551
491.492
493.552
496.116
498.54
500.227
500.734
499.908
497.988
495.463
492.95
491.094
490.492
491.629
494.705
499.633
505.904
512.767
518.42
518.797
513.53
506.633
500.204
495.034
491.68
490.273
490.675
492.433
494.971
497.651
499.849
501.032
566.6
566.48
566.515
567.026
568.346
570.795
574.64
579.995
586.669
594.161
601.577
607.8
611.091
609.694
604.449
597.427
589.889
582.84
576.951
572.525
569.558
567.829
567.03
566.829
566.896
566.95
566.865
566.826
567.132
568.115
570.106
573.398
578.182
584.38
591.62
599.135
605.879
610.435
610.711
606.529
599.913
592.383
585.009
578.605
573.583
570.078
567.919
566.819
566.455
566.491
566.617
629.383
630.81
633.594
637.735
643.184
649.873
657.718
666.539
675.958
685.325
693.677
699.912
702.856
701.629
696.636
689.062
680.019
670.559
661.472
653.24
646.119
640.226
635.64
632.424
630.597
630.111
630.905
633.058
636.602
641.503
647.692
655.087
663.554
672.782
682.229
691.029
698.104
702.325
702.569
698.751
691.926
683.24
673.782
664.45
655.821
648.234
641.824
636.67
632.837
630.366
629.242
687.467
690.644
696.501
704.661
714.646
725.949
738.087
750.57
762.862
774.231
783.735
790.386
793.335
792.101
786.892
778.457
767.74
755.733
743.267
730.962
719.329
708.869
700.096
693.518
689.555
688.452
690.248
694.867
702.014
711.238
722.025
733.864
746.255
758.676
770.464
780.74
788.502
792.843
793.099
789.228
781.834
771.808
760.149
747.756
735.31
723.319
712.27
702.651
694.969
689.687
687.145
738.638
743.665
752.747
765.124
779.88
796.071
812.797
829.244
844.704
858.37
869.343
876.752
879.937
878.578
872.808
863.166
850.456
835.592
819.437
802.75
786.313
771.03
757.857
747.747
741.53
739.77
742.631
749.848
760.778
774.549
790.199
806.781
823.406
839.329
853.768
865.843
874.645
879.425
879.725
875.518
867.217
855.543
841.389
825.639
809.074
792.388
776.432
762.122
750.403
742.168
738.123
780.448
787.234
799.374
815.759
835.095
856.06
877.389
897.956
916.84
933.128
945.918
954.404
958
956.428
949.808
938.606
923.553
905.536
885.486
864.342
843.166
823.223
805.853
792.389
784.03
781.641
785.519
795.202
809.725
827.843
848.21
869.5
890.47
910.125
927.529
941.757
951.947
957.423
957.791
953.026
943.486
929.815
912.852
893.506
872.689
851.328
830.606
811.807
796.258
785.223
779.747
810.187
818.406
833.025
852.66
875.747
900.71
926.047
950.4
972.596
991.565
1006.33
1016.07
1020.18
1018.35
1010.72
997.779
980.276
959.146
935.448
910.342
885.146
861.36
840.573
824.391
814.288
811.383
816.093
827.78
845.215
866.876
891.151
916.468
941.355
964.551
984.922
1001.44
1013.2
1019.51
1019.95
1014.51
1003.55
987.732
967.933
945.146
920.462
895.076
870.391
847.932
829.28
815.976
809.334
825.944
834.966
850.956
872.373
897.517
924.709
952.382
979.087
1003.43
1024.21
1040.35
1050.99
1055.47
1053.45
1045.09
1030.93
1011.76
988.579
962.578
935.106
907.643
881.741
859.083
841.402
830.327
827.13
832.31
845.109
864.146
887.745
914.177
941.785
969.053
994.51
1016.85
1034.94
1047.81
1054.73
1055.23
1049.28
1037.31
1020.01
998.32
973.319
946.255
918.558
891.679
867.217
846.863
832.302
825.004
)
;

boundaryField
{
    top
    {
        type            calculated;
        value           nonuniform List<scalar> 
51
(
827.793
837.302
854.053
876.378
902.498
930.701
959.445
987.302
1012.74
1034.47
1051.38
1062.55
1067.27
1065.14
1056.35
1041.49
1021.42
997.186
970.037
941.439
912.942
886.046
862.449
843.951
832.297
828.911
834.388
847.837
867.728
892.283
919.716
948.365
976.788
1003.38
1026.74
1045.69
1059.2
1066.48
1067.01
1060.75
1048.19
1030.07
1007.39
981.278
953.054
924.314
896.436
871.011
849.774
834.501
826.797
)
;
    }
    bottom
    {
        type            calculated;
        value           nonuniform List<scalar> 
51
(
-71.5323
-85.1892
-110.339
-145.809
-189.991
-240.525
-293.744
-344.598
-389.208
-425.317
-448.939
-458.779
-461.485
-460.391
-454.157
-437.187
-405.185
-363.974
-315.242
-262.434
-210.496
-163.832
-125.315
-96.8337
-79.7251
-74.9033
-82.7012
-102.611
-133.609
-174.252
-222.466
-275.066
-327.3
-374.578
-413.777
-442.786
-456.574
-461.208
-461.467
-457.609
-445.3
-418.041
-379.951
-333.604
-281.775
-228.754
-179.391
-137.002
-103.733
-81.0786
-70.1281
)
;
    }
    frontAndBack
    {
        type            empty;
    }
    left_cyc
    {
        type            cyclic;
    }
    right_cyc
    {
        type            cyclic;
    }
}


// ************************************************************************* //
