/*--------------------------------*- C++ -*----------------------------------*\
| =========                 |                                                 |
| \\      /  F ield         | OpenFOAM: The Open Source CFD Toolbox           |
|  \\    /   O peration     | Version:  2.3.0                                 |
|   \\  /    A nd           | Web:      www.OpenFOAM.org                      |
|    \\/     M anipulation  |                                                 |
\*---------------------------------------------------------------------------*/
FoamFile
{
    version     2.0;
    format      ascii;
    class       volScalarField;
    location    "3000";
    object      p;
}
// * * * * * * * * * * * * * * * * * * * * * * * * * * * * * * * * * * * * * //

dimensions      [0 2 -2 0 0 0 0];

internalField   nonuniform List<scalar> 
765
(
0
-1186.37
-1097.27
-1122.18
-1109.71
-1098.26
-1078.66
-1051.89
-1017.55
-978.123
-936.456
-894.959
-854.907
-815.984
-777.374
-738.721
-699.98
-661.334
-623.204
-586.248
-551.355
-519.601
-492.17
-470.253
-454.918
-447.002
-447.002
-454.919
-470.254
-492.172
-519.603
-551.358
-586.252
-623.208
-661.338
-699.984
-738.727
-777.382
-815.992
-854.914
-894.966
-936.467
-978.137
-1017.56
-1051.9
-1078.68
-1098.27
-1109.72
-1122.19
-1097.28
-1186.37
-861.622
-1027.13
-961.339
-961.196
-946.569
-935.824
-919.536
-897.638
-869.957
-836.715
-799.915
-761.476
-722.969
-685.455
-649.218
-614.125
-580.112
-547.276
-515.868
-486.275
-458.988
-434.579
-413.682
-396.995
-385.254
-379.15
-379.149
-385.252
-396.996
-413.686
-434.587
-458.999
-486.285
-515.875
-547.28
-580.117
-614.132
-649.226
-685.463
-722.977
-761.488
-799.929
-836.727
-869.966
-897.65
-919.549
-935.831
-946.576
-961.198
-961.342
-1027.12
-722.219
-798.46
-777.329
-785.73
-780.841
-778.896
-770.121
-751.752
-725.299
-695.393
-663.906
-631.253
-598.103
-565.342
-533.505
-502.739
-473.113
-444.742
-417.819
-392.616
-369.483
-348.847
-331.212
-317.157
-307.291
-302.174
-302.174
-307.291
-317.158
-331.215
-348.852
-369.489
-392.621
-417.823
-444.745
-473.117
-502.745
-533.512
-565.349
-598.113
-631.266
-663.918
-695.401
-725.31
-751.768
-770.128
-778.899
-780.858
-785.732
-777.336
-798.474
-603.744
-637.565
-626.415
-629.524
-627.527
-630.085
-623.58
-604.942
-581.813
-558.424
-533.981
-508.213
-481.573
-454.748
-428.2
-402.164
-376.795
-352.243
-328.703
-306.437
-285.788
-267.195
-251.188
-238.368
-229.351
-224.675
-224.675
-229.35
-238.368
-251.191
-267.2
-285.794
-306.441
-328.707
-352.247
-376.801
-402.172
-428.208
-454.757
-481.586
-508.227
-533.99
-558.431
-581.824
-604.951
-623.58
-630.092
-627.528
-629.531
-626.417
-637.561
-464.108
-479.134
-474.323
-476.574
-477.78
-482.528
-479.345
-466.56
-450.68
-433.518
-414.924
-395.119
-374.475
-353.433
-332.325
-311.369
-290.723
-270.537
-250.981
-232.283
-214.751
-198.792
-184.912
-173.7
-165.766
-161.639
-161.638
-165.764
-173.699
-184.914
-198.797
-214.757
-232.288
-250.986
-270.542
-290.731
-311.376
-332.333
-353.443
-374.489
-395.132
-414.934
-433.531
-450.698
-466.572
-479.355
-482.521
-477.786
-476.576
-474.327
-479.135
-322.651
-329.1
-327.507
-329.659
-332.1
-337.665
-339.458
-333.014
-323.319
-312.205
-299.642
-285.838
-271.067
-255.658
-239.887
-223.95
-207.994
-192.152
-176.57
-161.444
-147.044
-133.743
-122.016
-112.43
-105.583
-102.001
-102
-105.581
-112.429
-122.018
-133.748
-147.051
-161.45
-176.576
-192.159
-208.002
-223.956
-239.893
-255.666
-271.077
-285.844
-299.643
-312.209
-323.316
-333.004
-339.489
-337.669
-332.1
-329.66
-327.512
-329.112
-177.866
-181.025
-181.544
-184.291
-187.329
-192.879
-199.056
-199.894
-196.536
-191.408
-184.682
-176.604
-167.43
-157.43
-146.847
-135.865
-124.62
-113.225
-101.803
-90.5117
-79.5696
-69.2852
-60.0678
-52.4186
-46.8847
-43.9631
-43.9617
-46.8818
-52.4171
-60.0698
-69.2906
-79.5765
-90.5188
-101.811
-113.232
-124.625
-135.869
-146.852
-157.439
-167.442
-176.613
-184.696
-191.434
-196.561
-199.9
-199.049
-192.883
-187.335
-184.295
-181.547
-181.017
-32.0132
-33.8965
-35.6428
-39.0406
-42.5082
-47.6026
-56.6468
-65.0545
-68.1515
-68.6674
-67.4252
-64.7434
-60.8816
-56.0884
-50.5742
-44.5236
-38.069
-31.314
-24.3542
-17.3004
-10.301
-3.56722
2.60943
7.85301
11.7274
13.8089
13.8099
11.7293
7.85325
2.60641
-3.57285
-10.3075
-17.3069
-24.3607
-31.3199
-38.0728
-44.5262
-50.5797
-56.0987
-60.8915
-64.7495
-67.4315
-68.6687
-68.1429
-65.0702
-56.6415
-47.6076
-42.5128
-39.0435
-35.6438
-33.8913
115.291
113.88
111.397
107.404
103.198
98.1599
88.4459
74.2759
63.8268
57.6548
53.6749
51.2361
50.0129
49.7324
50.1887
51.2027
52.6434
54.417
56.4573
58.7105
61.1227
63.6164
66.0715
68.3049
70.0652
71.0654
71.0657
70.0652
68.3031
66.0676
63.6117
61.1185
58.7067
56.4529
54.4125
52.64
51.1993
50.1823
49.7248
50.0111
51.238
53.6683
57.6463
63.8312
74.2654
88.4501
98.1593
103.198
107.406
111.398
113.868
263.805
262.507
259.43
254.687
249.175
242.908
233.17
217.302
200.416
187.895
178.492
170.946
164.694
159.361
154.679
150.462
146.585
142.969
139.588
136.457
133.638
131.216
129.284
127.907
127.087
126.744
126.744
127.085
127.904
129.281
131.214
133.637
136.456
139.585
142.964
146.578
150.454
154.667
159.348
164.687
170.943
178.487
187.895
200.421
217.303
233.174
242.908
249.175
254.688
259.431
262.502
414.21
412.921
409.504
404.226
397.378
388.745
377.542
361.604
341.768
323.23
307.874
294.768
283.126
272.409
262.247
252.396
242.718
233.164
223.757
214.597
205.879
197.874
190.914
185.35
181.493
179.545
179.545
181.492
185.348
190.913
197.875
205.881
214.597
223.754
233.16
242.716
252.394
262.244
272.406
283.127
294.768
307.871
323.237
341.775
361.607
377.546
388.745
397.377
404.224
409.503
412.93
561.152
559.14
553.589
545.008
533.712
520.431
505.963
488.611
467.896
447.027
428.041
410.667
394.377
378.731
363.399
348.146
332.821
317.413
302.018
286.827
272.19
258.567
246.533
236.726
229.771
226.171
226.171
229.772
236.727
246.534
258.569
272.192
286.828
302.019
317.418
332.83
348.152
363.398
378.726
394.374
410.662
428.037
447.036
467.905
488.616
505.967
520.435
533.716
545.01
553.59
559.143
687.883
685.007
677.491
667.244
655.267
642.341
629.177
614.412
596.388
576.006
554.782
533.311
511.801
490.258
468.617
446.797
424.736
402.429
380.06
357.906
336.479
316.425
298.571
283.874
273.324
267.795
267.797
273.328
283.877
298.574
316.427
336.483
357.912
380.067
402.436
424.738
446.79
468.602
490.249
511.804
533.316
554.784
576.014
596.394
614.418
629.183
642.347
655.274
667.25
677.495
684.997
701.797
699.841
694.49
687.194
680.297
674.538
667.537
656.632
641.18
622.531
602.036
580.431
558.114
535.263
511.948
488.199
464.053
439.529
414.837
390.183
366.261
343.874
323.995
307.697
296.048
289.972
289.974
296.052
307.701
323.999
343.88
366.271
390.192
414.841
439.528
464.052
488.2
511.952
535.266
558.115
580.428
602.036
622.54
641.189
656.638
667.541
674.539
680.298
687.196
694.493
699.832
1021.5
1020.8
1018.55
1015.03
1009.31
998.184
980.035
955.016
923.99
888.703
850.823
811.51
771.505
731.21
690.823
650.439
610.17
570.119
530.64
491.821
454.379
419.057
387.082
360.143
340.29
329.685
329.685
340.292
360.147
387.091
419.068
454.39
491.829
530.649
570.136
610.192
650.457
690.832
731.221
771.525
811.53
850.841
888.724
924.01
955.034
980.048
998.193
1009.31
1015.03
1018.55
1020.81
)
;

boundaryField
{
    top
    {
        type            calculated;
        value           nonuniform List<scalar> 
51
(
77.9517
84.4855
101.018
124.755
152.401
179.37
203.128
223.121
239.411
252.615
263.196
271.358
277.258
281.073
283.046
283.446
282.485
280.087
276.63
270.725
264.906
260.739
259.143
260.392
263.816
267.417
267.417
263.815
260.392
259.147
260.744
264.908
270.722
276.626
280.088
282.489
283.442
283.03
281.057
277.249
271.348
263.181
252.602
239.398
223.106
203.11
179.349
152.378
124.734
101.003
84.4978
)
;
    }
    bottom
    {
        type            calculated;
        value           nonuniform List<scalar> 
51
(
-82.9053
-1269.22
-1179.84
-1204.13
-1190.96
-1178.87
-1158.73
-1131.46
-1096.65
-1056.81
-1014.73
-972.845
-932.398
-893.065
-854.021
-814.907
-775.671
-736.498
-697.809
-660.274
-624.798
-592.482
-564.537
-542.186
-526.529
-518.437
-518.437
-526.53
-542.187
-564.538
-592.483
-624.801
-660.278
-697.812
-736.501
-775.675
-814.912
-854.028
-893.073
-932.404
-972.852
-1014.75
-1056.82
-1096.67
-1131.47
-1158.74
-1178.89
-1190.97
-1204.14
-1179.85
-1269.22
)
;
    }
    frontAndBack
    {
        type            empty;
    }
    left_cyc
    {
        type            cyclic;
    }
    right_cyc
    {
        type            cyclic;
    }
}


// ************************************************************************* //
