/*--------------------------------*- C++ -*----------------------------------*\
| =========                 |                                                 |
| \\      /  F ield         | OpenFOAM: The Open Source CFD Toolbox           |
|  \\    /   O peration     | Version:  2.3.0                                 |
|   \\  /    A nd           | Web:      www.OpenFOAM.org                      |
|    \\/     M anipulation  |                                                 |
\*---------------------------------------------------------------------------*/
FoamFile
{
    version     2.0;
    format      ascii;
    class       volScalarField;
    location    "3000";
    object      p_rgh;
}
// * * * * * * * * * * * * * * * * * * * * * * * * * * * * * * * * * * * * * //

dimensions      [0 2 -2 0 0 0 0];

internalField   nonuniform List<scalar> 
3060
(
-40.3381
-41.7725
-44.4493
-48.3209
-53.3161
-59.3398
-66.2721
-73.9711
-82.2777
-91.0218
-100.028
-109.119
-118.117
-126.854
-135.187
-143.001
-150.209
-156.75
-162.585
-167.696
-172.075
-175.725
-178.652
-180.864
-182.367
-183.166
-183.265
-182.669
-181.379
-179.399
-176.729
-173.373
-169.334
-164.621
-159.255
-153.266
-146.705
-139.645
-132.179
-124.427
-116.535
-108.666
-100.993
-93.6848
-86.9054
-80.8066
-75.5262
-71.1844
-67.8798
-65.6874
-64.6571
-64.8124
-66.1498
-68.6387
-72.2226
-76.8202
-82.3268
-88.6174
-95.5501
-102.97
-110.711
-118.602
-126.473
-134.163
-141.533
-148.471
-154.888
-160.718
-165.916
-170.454
-174.316
-177.494
-179.984
-181.784
-182.893
-183.309
-183.027
-182.045
-180.359
-177.962
-174.847
-171.008
-166.439
-161.139
-155.117
-148.399
-141.026
-133.068
-124.619
-115.799
-106.761
-97.675
-88.72
-80.073
-71.9082
-64.3933
-57.6839
-51.9164
-47.2043
-43.6367
-41.2786
-40.1723
-38.1012
-39.5178
-42.1624
-45.9904
-50.9344
-56.9017
-63.7736
-71.4064
-79.6368
-88.2912
-97.1932
-106.168
-115.042
-123.653
-131.865
-139.573
-146.694
-153.168
-158.958
-164.042
-168.41
-172.06
-174.996
-177.22
-178.736
-179.548
-179.658
-179.068
-177.785
-175.812
-173.153
-169.816
-165.806
-161.138
-155.832
-149.922
-143.458
-136.509
-129.165
-121.539
-113.769
-106.015
-98.445
-91.2251
-84.5179
-78.4766
-73.2412
-68.9339
-65.6546
-63.4787
-62.4559
-62.6101
-63.9376
-66.4077
-69.9639
-74.5244
-79.983
-86.2125
-93.0688
-100.396
-108.031
-115.805
-123.552
-131.116
-138.367
-145.197
-151.522
-157.278
-162.42
-166.918
-170.753
-173.914
-176.394
-178.188
-179.291
-179.699
-179.406
-178.412
-176.711
-174.303
-171.181
-167.344
-162.79
-157.521
-151.551
-144.904
-137.625
-129.777
-121.45
-112.757
-103.841
-94.8685
-86.0141
-77.453
-69.3614
-61.911
-55.2609
-49.5486
-44.8861
-41.3593
-39.0298
-37.9372
-33.7405
-35.0959
-37.6273
-41.2968
-46.0459
-51.7935
-58.4348
-65.8429
-73.8753
-82.3807
-91.201
-100.167
-109.094
-117.797
-126.113
-133.933
-141.17
-147.762
-153.671
-158.872
-163.353
-167.108
-170.137
-172.438
-174.011
-174.855
-174.971
-174.361
-173.033
-170.996
-168.257
-164.826
-160.716
-155.942
-150.529
-144.51
-137.937
-130.88
-123.431
-115.703
-107.857
-100.065
-92.5083
-85.3522
-78.7487
-72.8348
-67.7335
-63.5515
-60.3756
-58.2717
-57.2833
-57.4323
-58.7152
-61.1043
-64.5503
-68.9819
-74.3065
-80.4131
-87.1748
-94.4509
-102.086
-109.909
-117.741
-125.41
-132.766
-139.705
-146.138
-152.003
-157.252
-161.855
-165.789
-169.04
-171.597
-173.45
-174.592
-175.013
-174.708
-173.674
-171.911
-169.421
-166.203
-162.259
-157.59
-152.204
-146.114
-139.35
-131.955
-123.997
-115.569
-106.79
-97.8352
-88.8904
-80.1364
-71.7391
-63.8546
-56.6323
-50.2114
-44.7136
-40.2375
-36.8583
-34.6289
-33.5834
-30.6678
-31.8371
-34.0221
-37.1995
-41.3377
-46.3973
-52.3294
-59.0689
-66.529
-74.597
-83.1298
-91.9465
-100.834
-109.586
-118.019
-126.019
-133.478
-140.309
-146.457
-151.891
-156.59
-160.544
-163.742
-166.18
-167.849
-168.746
-168.866
-168.212
-166.794
-164.628
-161.727
-158.108
-153.789
-148.792
-143.147
-136.899
-130.11
-122.873
-115.301
-107.527
-99.7118
-92.035
-84.6877
-77.8422
-71.6372
-66.1802
-61.5525
-57.8144
-55.0085
-53.1643
-52.3015
-52.4315
-53.5521
-55.6498
-58.7026
-62.6779
-67.5289
-73.1902
-79.5742
-86.5656
-94.0169
-101.749
-109.569
-117.308
-124.802
-131.931
-138.586
-144.682
-150.161
-154.984
-159.122
-162.556
-165.266
-167.239
-168.458
-168.912
-168.589
-167.491
-165.621
-162.985
-159.589
-155.441
-150.55
-144.928
-138.599
-131.598
-123.989
-115.866
-107.338
-98.5318
-89.6416
-80.8794
-72.4518
-64.5294
-57.2467
-50.7094
-44.9981
-40.1732
-36.2806
-33.3576
-31.434
-30.5319
-19.5894
-20.8227
-23.1153
-26.4251
-30.693
-35.8464
-41.8021
-48.4693
-55.7531
-63.5597
-71.7994
-80.3795
-89.1843
-98.0644
-106.816
-115.251
-123.189
-130.498
-137.099
-142.943
-148.005
-152.271
-155.732
-158.375
-160.187
-161.158
-161.279
-160.553
-158.996
-156.629
-153.474
-149.552
-144.887
-139.506
-133.451
-126.785
-119.596
-112.011
-104.195
-96.352
-88.6582
-81.261
-74.2766
-67.7954
-61.8979
-56.6643
-52.1745
-48.5039
-45.7186
-43.872
-43.0032
-43.1343
-44.2613
-46.3575
-49.3798
-53.2712
-57.9629
-63.3778
-69.4355
-76.0562
-83.1582
-90.6456
-98.3945
-106.25
-114.023
-121.519
-128.581
-135.094
-140.979
-146.176
-150.649
-154.373
-157.325
-159.483
-160.825
-161.332
-160.989
-159.798
-157.768
-154.912
-151.24
-146.766
-141.5
-135.456
-128.665
-121.183
-113.1
-104.562
-95.7544
-86.8826
-78.1248
-69.624
-61.4886
-53.8091
-46.6762
-40.1845
-34.4283
-29.4967
-25.4705
-22.419
-20.3977
-19.4454
2.93751
1.53896
-1.06061
-4.81542
-9.65692
-15.4942
-22.2129
-29.6771
-37.7368
-46.2426
-55.0621
-64.0933
-73.2622
-82.4946
-91.6766
-100.658
-109.275
-117.363
-124.766
-131.365
-137.087
-141.9
-145.791
-148.752
-150.775
-151.852
-151.973
-151.14
-149.375
-146.697
-143.129
-138.694
-133.427
-127.376
-120.623
-113.287
-105.513
-97.458
-89.2707
-81.1053
-73.0782
-65.2841
-57.8115
-50.76
-44.2449
-38.3907
-33.3209
-29.1484
-25.9682
-23.8541
-22.8578
-23.0082
-24.3002
-26.6986
-30.146
-34.5629
-39.8491
-45.8881
-52.5553
-59.7274
-67.2932
-75.1569
-83.2301
-91.4133
-99.5808
-107.578
-115.252
-122.449
-129.029
-134.881
-139.935
-144.146
-147.484
-149.926
-151.45
-152.036
-151.665
-150.341
-148.074
-144.87
-140.739
-135.687
-129.733
-122.917
-115.322
-107.081
-98.3522
-89.3038
-80.0944
-70.8718
-61.7333
-52.7497
-44.0009
-35.5973
-27.6773
-20.3923
-13.8897
-8.30026
-3.73227
-0.270763
2.02094
3.10082
30.2585
28.7421
25.9234
21.8493
16.5885
10.2291
2.87776
-5.34118
-14.2877
-23.8093
-33.7426
-43.9131
-54.1363
-64.233
-74.0613
-83.5508
-92.668
-101.341
-109.434
-116.79
-123.281
-128.813
-133.318
-136.755
-139.1
-140.337
-140.46
-139.47
-137.396
-134.269
-130.132
-125.041
-119.073
-112.322
-104.908
-96.9761
-88.6573
-80.041
-71.185
-62.1789
-53.159
-44.2979
-35.7761
-27.7627
-20.4104
-13.8557
-8.22025
-3.60897
-0.109156
2.21101
3.30289
3.13809
1.72177
-0.912029
-4.70956
-9.59757
-15.484
-22.2595
-29.7984
-37.9602
-46.5878
-55.5083
-64.5404
-73.5184
-82.3177
-90.8623
-99.0905
-106.901
-114.154
-120.712
-126.459
-131.307
-135.185
-138.041
-139.836
-140.538
-140.124
-138.598
-135.967
-132.249
-127.472
-121.684
-114.958
-107.397
-99.138
-90.3387
-81.1206
-71.5397
-61.6321
-51.488
-41.2616
-31.1358
-21.2932
-11.9056
-3.13341
4.87362
11.9793
18.0637
23.025
26.78
29.2644
30.4354
60.8427
59.1784
56.0847
51.6111
45.8315
38.8395
30.7483
21.6891
11.8095
1.27046
-9.75589
-21.087
-32.529
-43.8777
-54.9252
-65.4952
-75.4412
-84.6735
-93.1538
-100.856
-107.723
-113.66
-118.565
-122.356
-124.968
-126.353
-126.487
-125.373
-123.057
-119.602
-115.083
-109.585
-103.203
-96.027
-88.1246
-79.545
-70.3523
-60.6533
-50.6013
-40.3807
-30.1957
-20.246
-10.7199
-1.79114
6.38101
13.6522
19.8938
24.9947
28.8624
31.4247
32.63
32.4481
30.8844
27.9753
23.7776
18.369
11.8469
4.32722
-4.05723
-13.1582
-22.8127
-32.843
-43.0574
-53.2543
-63.2298
-72.8088
-81.849
-90.2561
-97.9733
-104.949
-111.11
-116.361
-120.61
-123.775
-125.782
-126.575
-126.114
-124.406
-121.482
-117.394
-112.212
-106.024
-98.9325
-91.0245
-82.3473
-72.9247
-62.8059
-52.096
-40.9528
-29.5612
-18.1293
-6.8594
4.05767
14.4419
24.124
32.946
40.7644
47.4526
52.9023
57.0248
59.7515
61.0367
94.1416
92.3194
88.9307
84.0277
77.6879
70.01
61.1126
51.1333
40.2275
28.5666
16.3363
3.73577
-9.02443
-21.7245
-34.1407
-46.0769
-57.3337
-67.7321
-77.1301
-85.4449
-92.6526
-98.7541
-103.74
-107.579
-110.223
-111.626
-111.762
-110.629
-108.267
-104.725
-100.052
-94.2827
-87.4419
-79.554
-70.672
-60.9017
-50.4001
-39.3551
-27.9701
-16.4476
-5.00939
6.12995
16.7671
26.7135
35.7967
43.8619
50.7724
56.4111
60.6812
63.5075
64.836
64.6355
62.9117
59.7021
55.0663
49.0851
41.8608
33.5157
24.1912
14.0468
3.25928
-7.97888
-19.4611
-30.9707
-42.2849
-53.2055
-63.5322
-73.083
-81.7126
-89.3301
-95.8928
-101.378
-105.761
-109
-111.046
-111.851
-111.384
-109.654
-106.694
-102.553
-97.2746
-90.8858
-83.3906
-74.7908
-65.1232
-54.4873
-43.0368
-30.9566
-18.4488
-5.71276
7.02677
19.5513
31.6529
43.1357
53.8174
63.5308
72.1249
79.4668
85.4431
89.9606
92.9467
94.3538
129.635
127.646
123.947
118.591
111.66
103.259
93.5146
82.5717
70.5957
57.7693
44.2912
30.3747
16.2458
2.14032
-11.7051
-25.0746
-37.7467
-49.5181
-60.2101
-69.679
-77.8259
-84.6034
-90.0111
-94.0726
-96.8088
-98.2274
-98.3248
-97.095
-94.543
-90.6656
-85.4532
-78.9023
-71.04
-61.941
-51.7286
-40.566
-28.6462
-16.1818
-3.39838
9.48738
22.2352
34.6145
46.4074
57.4121
67.4444
76.3387
83.9497
90.1529
94.8461
97.9498
99.4079
99.1879
97.2957
93.7702
88.6739
82.0921
74.1329
64.9265
54.6233
43.394
31.4274
18.9296
6.1218
-6.76265
-19.482
-31.8234
-43.5638
-54.4947
-64.4298
-73.2154
-80.7401
-86.9423
-91.8053
-95.3362
-97.5435
-98.4281
-97.9855
-96.2238
-93.1439
-88.7348
-82.9729
-75.8383
-67.3419
-57.5448
-46.5584
-34.5366
-21.6651
-8.15205
5.77871
19.9139
34.0112
47.8363
61.1662
73.7912
85.5166
96.1643
105.574
113.605
120.137
125.071
128.331
129.866
166.917
164.761
160.747
154.931
147.401
138.268
127.664
115.746
102.688
88.6859
73.9512
58.7125
43.2119
27.7037
12.4245
-2.37847
-16.4667
-29.6179
-41.6334
-52.3462
-61.6275
-69.3911
-75.5938
-80.229
-83.3114
-84.8599
-84.8837
-83.3775
-80.3365
-75.7519
-69.6262
-61.9895
-52.9114
-42.5042
-30.9202
-18.346
-4.99519
8.89916
23.0914
37.3503
51.4186
65.0497
78.0112
90.0873
101.081
110.816
119.138
125.914
131.036
134.421
136.01
135.771
133.708
129.862
124.299
117.108
108.403
98.3232
87.0288
74.7015
61.5433
47.7742
33.6306
19.3617
5.22653
-8.54669
-21.7148
-34.0487
-45.3412
-55.4138
-64.1243
-71.3713
-77.0961
-81.2774
-83.9171
-85.0243
-84.603
-82.6564
-79.1718
-74.1298
-67.5196
-59.3563
-49.6939
-38.6301
-26.3043
-12.8923
1.39992
16.3449
31.6996
47.2362
62.696
77.8288
92.3962
106.174
118.955
130.549
140.786
149.515
156.611
161.967
165.503
167.168
205.66
203.339
199.015
192.748
184.629
174.776
163.33
150.456
136.34
121.191
105.232
88.7086
71.8768
55.0066
38.3466
22.1646
6.71718
-7.75601
-21.0381
-32.9418
-43.3145
-52.0425
-59.0517
-64.3028
-67.7819
-69.4884
-69.4238
-67.5867
-63.9853
-58.6355
-51.5712
-42.8556
-32.589
-20.9104
-7.99539
5.94895
20.6896
35.9746
51.5396
67.1372
82.4941
97.3479
111.452
124.576
136.512
147.071
156.09
163.429
168.972
172.633
174.351
174.092
171.862
167.702
161.68
153.89
144.454
133.519
121.254
107.852
93.5299
78.5197
63.073
47.4549
31.9407
16.7752
2.22058
-11.4752
-24.0853
-35.41
-45.283
-53.5752
-60.1965
-65.0922
-68.2345
-69.6095
-69.2126
-67.0446
-63.1039
-57.3934
-49.9326
-40.7691
-29.9872
-17.7111
-4.10282
10.6417
26.2989
42.6235
59.3545
76.2483
93.0301
109.434
125.207
140.111
153.924
166.445
177.493
186.909
194.559
200.33
204.137
205.929
245.605
243.128
238.51
231.813
223.133
212.596
200.351
186.572
171.457
155.225
138.115
120.384
102.304
84.1601
66.2145
48.7529
32.0488
16.3584
1.91556
-11.074
-22.4372
-32.0363
-39.7702
-45.5717
-49.4009
-51.2382
-51.0774
-48.923
-44.794
-38.7305
-30.7942
-21.0772
-9.70639
3.15563
17.3128
32.5393
48.5835
65.1754
82.0328
98.8921
115.464
131.473
146.656
160.772
173.6
184.941
194.622
202.495
208.439
212.362
214.202
213.924
211.536
207.077
200.619
192.261
182.131
170.384
157.2
142.783
127.361
111.179
94.5043
77.6154
60.8029
44.3294
28.4746
13.5051
-0.333711
-12.8233
-23.776
-33.0385
-40.4932
-46.0566
-49.6732
-51.3087
-50.9487
-48.5914
-44.2463
-37.9374
-29.711
-19.6429
-7.84375
5.53947
20.3246
36.2978
53.2187
70.8255
88.8405
107.004
125.024
142.623
159.531
175.496
190.285
203.685
215.503
225.572
233.748
239.914
243.98
245.892
286.556
283.935
279.045
271.953
262.76
251.597
238.622
224.019
207.996
190.784
172.634
153.815
134.613
115.325
96.2296
77.6281
59.8086
43.0427
27.5792
13.6404
1.4175
-8.93172
-17.2836
-23.5487
-27.6662
-29.6009
-29.3394
-26.8908
-22.2872
-15.5863
-6.8728
3.73752
16.0954
30.0182
45.2918
61.675
78.8971
96.6708
114.699
132.701
150.375
167.431
183.595
198.613
212.253
224.307
234.593
242.955
249.267
253.431
255.382
255.088
252.554
247.821
240.963
232.085
221.321
208.834
194.814
179.474
163.052
145.809
128.021
109.982
91.9938
74.3369
57.3069
41.1895
26.2469
12.7138
0.796472
-9.33118
-17.5288
-23.689
-27.7346
-29.6149
-29.3036
-26.7981
-22.1171
-15.3021
-6.42123
4.42756
17.1116
31.4644
47.2859
64.3466
82.3909
101.142
120.307
139.609
158.744
177.419
195.353
212.28
227.956
242.156
254.677
265.344
274.003
280.532
284.837
286.859
328.366
325.616
320.487
313.047
303.404
291.694
278.086
262.77
245.965
227.911
208.87
189.122
168.964
148.705
128.637
109.073
90.3153
72.6473
56.3313
41.6029
28.6686
17.7025
8.84569
2.20612
-2.13902
-4.14132
-3.7793
-1.0653
3.95627
11.2122
20.5992
31.9819
45.1925
60.0307
76.2662
93.6412
111.874
130.664
149.699
168.684
187.306
205.264
222.274
238.072
252.416
265.089
275.902
284.692
291.326
295.704
297.755
297.445
294.781
289.806
282.597
273.265
261.95
248.821
234.076
217.939
200.657
182.499
163.756
144.73
125.726
107.051
89.014
71.9103
56.0162
41.5824
28.8316
17.9555
9.11361
2.43251
-1.99253
-4.09603
-3.84106
-1.22504
3.7234
10.9486
20.3655
31.8575
45.275
60.4352
77.1238
95.0977
114.088
133.807
153.947
174.216
194.3
213.894
232.706
250.46
266.901
281.793
294.926
306.114
315.198
322.047
326.562
328.684
370.935
368.076
362.746
355.019
345.008
332.857
318.739
302.854
285.428
266.708
246.966
226.488
205.58
184.558
163.726
143.407
123.913
105.538
88.5548
73.2101
59.7227
48.2799
39.0368
32.1155
27.6061
25.5674
26.0279
28.974
34.3503
42.0701
52.0151
64.0343
77.9445
93.5311
110.55
128.732
147.783
167.393
187.238
207.011
226.391
245.068
262.753
279.174
294.082
307.254
318.493
327.631
334.53
339.084
341.219
340.897
338.124
332.949
325.453
315.752
303.99
290.345
275.021
258.247
240.278
221.391
201.883
182.066
162.246
142.749
123.894
105.988
89.3181
74.1472
60.7118
49.2184
39.8416
32.7239
27.975
25.6735
25.8658
28.5524
33.697
41.2326
51.0608
63.051
77.0395
92.8308
110.199
128.889
148.623
169.102
190.01
211.035
231.862
252.178
271.683
290.091
307.14
322.586
336.211
347.822
357.253
364.367
369.059
371.265
414.203
411.263
405.785
397.849
387.574
375.109
360.633
344.351
326.495
307.318
287.095
266.118
244.697
223.153
201.795
180.955
160.952
142.087
124.641
108.87
95.0001
83.2299
73.7248
66.6176
62.0083
59.964
60.5191
63.66
69.3214
77.4054
87.7817
100.287
114.726
130.873
148.475
167.25
186.899
207.103
227.53
247.863
267.778
286.962
305.12
321.978
337.284
350.808
362.351
371.739
378.829
383.512
385.709
385.377
382.525
377.203
369.5
359.534
347.456
333.447
317.714
300.493
282.042
262.642
242.592
222.21
201.803
181.71
162.258
143.76
126.512
110.788
96.8336
84.8673
75.0757
67.6133
62.6021
60.1312
60.2556
62.9733
68.2413
75.9837
86.0922
98.4253
112.809
129.038
146.877
166.063
186.311
207.315
228.753
250.294
271.629
292.439
312.417
331.276
348.745
364.578
378.55
390.462
400.143
407.451
412.274
414.543
458.14
455.153
449.592
441.542
431.126
418.498
403.841
387.364
369.3
349.904
329.453
308.24
286.574
264.776
243.16
222.06
201.8
182.685
165
149.007
134.938
122.999
113.362
106.169
101.525
99.5051
100.148
103.442
109.312
117.651
128.32
141.145
155.924
172.423
190.381
209.513
229.511
250.053
270.803
291.438
311.633
331.079
349.48
366.562
382.071
395.778
407.48
417.001
424.196
428.95
431.182
430.845
427.947
422.546
414.73
404.624
392.38
378.183
362.241
344.791
326.092
306.425
286.089
265.399
244.666
224.231
204.428
185.573
167.97
151.896
137.606
125.326
115.251
107.545
102.339
99.732
99.7855
102.495
107.812
115.653
125.904
138.415
153.004
169.46
187.542
206.982
227.489
248.754
270.451
292.242
313.818
334.861
355.064
374.138
391.812
407.837
421.985
434.054
443.869
451.282
456.179
458.485
502.736
499.742
494.174
486.12
475.707
463.09
448.455
432.01
413.987
394.642
374.246
353.09
331.479
309.727
288.147
267.075
246.834
227.729
210.049
194.055
179.985
168.046
158.415
151.238
146.628
144.661
145.384
148.782
154.775
163.249
174.058
187.022
201.933
218.554
236.618
255.84
275.911
296.507
317.291
337.938
358.131
377.565
395.95
413.014
428.509
442.205
453.902
463.423
470.622
475.382
477.618
477.28
474.377
468.97
461.151
451.046
438.809
424.623
408.696
391.264
372.581
352.924
332.587
311.878
291.106
270.614
250.733
231.784
214.069
197.871
183.448
171.028
160.814
152.976
147.651
144.945
144.926
147.588
152.877
160.705
170.952
183.464
198.056
214.512
232.588
252.015
272.502
293.738
315.396
337.139
358.659
379.643
399.791
418.816
436.451
452.446
466.574
478.634
488.448
495.866
500.771
503.082
547.998
545.044
539.555
531.621
521.37
508.96
494.572
478.412
460.71
441.712
421.685
400.91
379.681
358.303
337.083
316.352
296.429
277.62
260.207
244.451
230.59
218.83
209.351
202.3
197.792
195.908
196.697
200.145
206.168
214.645
225.426
238.329
253.144
269.633
287.531
306.552
326.391
346.728
367.229
387.571
407.448
426.568
444.65
461.431
476.668
490.141
501.65
511.022
518.112
522.804
525.009
524.675
521.813
516.484
508.785
498.839
486.799
472.846
457.183
440.04
421.663
402.321
382.297
361.888
341.395
321.155
301.499
282.742
265.186
249.111
234.774
222.406
212.212
204.363
199.003
196.242
196.154
198.729
203.909
211.606
221.694
234.02
248.395
264.605
282.407
301.534
321.696
342.586
363.881
385.246
406.382
426.988
446.771
465.455
482.778
498.496
512.388
524.252
533.913
541.222
546.059
548.339
593.946
591.083
585.767
578.09
568.18
556.189
542.295
526.698
509.617
491.29
471.971
451.928
431.438
410.79
390.278
370.227
350.949
332.74
315.877
300.617
287.19
275.801
266.628
259.818
255.485
253.712
254.55
257.988
263.935
272.269
282.84
295.465
309.935
326.016
343.449
361.952
381.229
400.966
420.838
440.53
459.753
478.231
495.7
511.909
526.627
539.643
550.765
559.826
566.685
571.226
573.362
573.039
570.266
565.109
557.662
548.047
536.413
522.933
507.805
491.245
473.49
454.794
435.424
415.661
395.791
376.142
357.037
338.786
321.681
305.997
291.988
279.882
269.88
262.157
256.855
254.089
253.936
256.383
261.372
268.811
278.576
290.514
304.439
320.14
337.378
355.893
375.402
395.603
416.183
436.814
457.212
477.09
496.174
514.198
530.913
546.085
559.501
570.966
580.309
587.382
592.066
594.277
640.61
637.894
632.854
625.582
616.201
604.858
591.723
576.985
560.85
543.54
525.293
506.355
486.986
467.448
448.019
429.012
410.726
393.445
377.436
362.944
350.193
339.38
330.678
324.229
320.146
318.513
319.38
322.739
328.496
336.529
346.689
358.799
372.656
388.031
404.675
422.32
440.678
459.45
478.324
496.995
515.202
532.689
549.212
564.541
578.46
590.771
601.294
609.871
616.366
620.67
622.696
622.389
619.76
614.873
607.821
598.721
587.714
574.965
560.659
544.997
528.201
510.504
492.153
473.406
454.527
435.834
417.634
400.224
383.887
368.886
355.466
343.848
334.229
326.778
321.638
318.922
318.711
320.99
325.7
332.749
342.016
353.352
366.577
381.486
397.851
415.42
433.922
453.069
472.557
492.073
511.352
530.131
548.155
565.178
580.969
595.307
607.992
618.838
627.683
634.384
638.826
640.924
688.03
685.519
680.863
674.151
665.5
655.047
642.949
629.381
614.531
598.603
581.809
564.373
546.525
528.499
510.55
492.973
476.048
460.044
445.211
431.779
419.96
409.94
401.882
395.923
392.17
390.704
391.578
394.782
400.223
407.783
417.318
428.658
441.611
455.961
471.473
487.894
504.955
522.373
539.857
557.119
573.928
590.057
605.288
619.414
632.24
643.585
653.286
661.197
667.191
671.165
673.037
672.753
670.324
665.812
659.305
650.913
640.767
629.018
615.834
601.401
585.916
569.589
552.642
535.301
517.806
500.453
483.534
467.326
452.094
438.089
425.538
414.653
405.62
398.602
393.736
391.134
390.875
392.944
397.282
403.801
412.385
422.89
435.149
448.966
464.128
480.397
497.518
515.221
533.22
551.218
568.978
586.265
602.852
618.517
633.05
646.251
657.935
667.933
676.091
682.277
686.38
688.32
736.253
734.008
729.849
723.858
716.143
706.829
696.055
683.977
670.764
656.591
641.646
626.12
610.21
594.116
578.061
562.317
547.142
532.781
519.464
507.4
496.784
487.786
480.556
475.221
471.881
470.612
471.465
474.431
479.421
486.323
495.003
505.303
517.045
530.032
544.047
558.86
574.225
589.884
605.57
621.018
636.034
650.426
664.007
676.598
688.029
698.143
706.793
713.851
719.201
722.751
724.424
724.17
721.999
717.97
712.162
704.676
695.629
685.156
673.406
660.539
646.73
632.157
617.011
601.483
585.779
570.172
554.927
540.301
526.533
513.853
502.471
492.58
484.351
477.938
473.467
471.046
470.751
472.567
476.437
482.278
489.982
499.418
510.429
522.839
536.449
551.045
566.393
582.245
598.338
614.4
630.225
645.615
660.375
674.312
687.245
698.996
709.403
718.313
725.589
731.111
734.777
736.512
785.337
783.419
779.87
774.764
768.193
760.268
751.107
740.845
729.621
717.583
704.886
691.685
678.139
664.404
650.67
637.177
624.155
611.819
600.372
589.998
580.867
573.131
566.922
562.351
559.51
558.468
559.27
561.911
566.307
572.357
579.939
588.913
599.122
610.391
622.53
635.337
648.594
662.075
675.543
688.765
701.587
713.859
725.428
736.15
745.883
754.496
761.866
767.882
772.446
775.476
776.906
776.689
774.834
771.394
766.441
760.06
752.354
743.435
733.43
722.473
710.706
698.276
685.335
672.035
658.541
645.097
631.937
619.286
607.356
596.348
586.447
577.824
570.631
565.003
561.058
558.891
558.574
560.092
563.393
568.401
575.021
583.135
592.605
603.276
614.974
627.509
640.676
654.256
668.016
681.713
695.181
708.262
720.8
732.637
743.622
753.609
762.458
770.041
776.239
780.947
784.076
785.558
835.348
833.818
830.991
826.929
821.71
815.42
808.159
800.03
791.145
781.617
771.563
761.1
750.342
739.398
728.415
717.598
707.141
697.222
688.01
679.657
672.305
666.078
661.089
657.429
655.177
654.391
655.112
657.335
660.988
665.982
672.215
679.568
687.911
697.097
706.97
717.361
728.09
738.97
749.799
760.38
770.611
780.383
789.585
798.108
805.845
812.693
818.555
823.345
826.982
829.399
830.54
830.367
828.886
826.143
822.196
817.118
810.988
803.897
795.944
787.233
777.871
767.969
757.636
746.98
736.119
725.261
714.603
704.332
694.624
685.645
677.549
670.478
664.559
659.908
656.622
654.785
654.462
655.636
658.263
662.278
667.601
674.133
681.759
690.35
699.763
709.839
720.409
731.29
742.286
753.187
763.876
774.24
784.165
793.534
802.231
810.143
817.159
823.177
828.102
831.848
834.341
835.524
886.365
885.281
883.284
880.421
876.75
872.335
867.246
861.557
855.345
848.687
841.658
834.331
826.774
819.046
811.242
803.527
796.048
788.942
782.335
776.341
771.065
766.602
763.035
760.436
758.864
758.366
758.974
760.686
763.442
767.173
771.8
777.232
783.369
790.103
797.316
804.88
812.662
820.518
828.291
835.831
843.083
849.989
856.481
862.49
867.944
872.775
876.914
880.299
882.874
884.588
885.399
885.275
884.224
882.279
879.486
875.897
871.57
866.57
860.963
854.82
848.213
841.21
833.876
826.271
818.461
810.611
802.874
795.39
788.292
781.704
775.742
770.512
766.113
762.63
760.142
758.714
758.399
759.182
761.028
763.887
767.695
772.379
777.852
784.017
790.766
797.983
805.538
813.293
821.096
828.781
836.281
843.533
850.47
857.017
863.099
868.637
873.556
877.782
881.248
883.889
885.651
886.489
938.476
937.894
936.828
935.308
933.37
931.05
928.388
925.424
922.196
918.741
915.092
911.277
907.313
903.206
898.998
894.801
890.711
886.812
883.179
879.881
876.982
874.538
872.6
871.213
870.415
870.236
870.7
871.806
873.512
875.772
878.536
881.746
885.34
889.254
893.414
897.746
902.167
906.587
910.905
915.018
918.929
922.628
926.093
929.294
932.201
934.779
936.993
938.81
940.197
941.124
941.564
941.497
940.926
939.875
938.372
936.447
934.134
931.466
928.478
925.204
921.676
917.919
913.953
909.786
905.432
901.003
896.598
892.304
888.203
884.367
880.868
877.77
875.134
873.014
871.462
870.521
870.228
870.572
871.528
873.064
875.139
877.707
880.716
884.108
887.818
891.775
895.903
900.114
904.311
908.376
912.299
916.071
919.67
923.067
926.228
929.116
931.691
933.914
935.746
937.15
938.091
938.542
991.792
991.761
991.716
991.669
991.63
991.604
991.597
991.612
991.645
991.692
991.74
991.771
991.755
991.646
991.428
991.152
990.849
990.541
990.245
989.976
989.75
989.578
989.473
989.449
989.517
989.69
989.98
990.389
990.896
991.482
992.13
992.823
993.544
994.277
995.005
995.709
996.371
996.963
997.449
997.786
998.03
998.217
998.371
998.505
998.628
998.744
998.853
998.953
999.04
999.104
999.139
999.133
999.089
999.017
998.926
998.822
998.711
998.593
998.467
998.328
998.167
997.966
997.701
997.331
996.813
996.2
995.525
994.813
994.084
993.353
992.638
991.956
991.323
990.757
990.275
989.896
989.638
989.494
989.452
989.499
989.623
989.811
990.051
990.328
990.629
990.938
991.238
991.504
991.702
991.778
991.775
991.735
991.685
991.64
991.61
991.6
991.611
991.64
991.682
991.728
991.769
991.794
1046.4
1046.97
1048.02
1049.56
1051.57
1054.01
1056.85
1060.06
1063.6
1067.4
1071.41
1075.57
1079.81
1084.04
1088.18
1092.21
1096.08
1099.73
1103.13
1106.21
1108.95
1111.3
1113.23
1114.72
1115.75
1116.31
1116.4
1116.02
1115.18
1113.9
1112.19
1110.08
1107.6
1104.81
1101.73
1098.43
1094.95
1091.34
1087.65
1083.9
1080.2
1076.62
1073.22
1070.07
1067.2
1064.68
1062.53
1060.78
1059.47
1058.61
1058.2
1058.26
1058.79
1059.77
1061.2
1063.05
1065.3
1067.92
1070.87
1074.09
1077.54
1081.16
1084.88
1088.62
1092.29
1095.87
1099.31
1102.56
1105.57
1108.28
1110.66
1112.67
1114.28
1115.45
1116.16
1116.42
1116.21
1115.52
1114.38
1112.77
1110.73
1108.28
1105.45
1102.27
1098.81
1095.09
1091.18
1087.11
1082.95
1078.71
1074.48
1070.35
1066.39
1062.65
1059.2
1056.08
1053.33
1051
1049.12
1047.7
1046.77
1046.34
)
;

boundaryField
{
    top
    {
        type            fixedFluxPressure;
        gradient        nonuniform List<scalar> 
102
(
1692.09
1710.8
1745.48
1795.39
1859.61
1937.05
2026.51
2126.66
2236.11
2353.44
2477.24
2606.2
2739.33
2876.47
3016.36
3155.1
3289.86
3418.18
3537.81
3646.71
3743
3825
3891.23
3940.47
3971.71
3984.26
3977.65
3951.98
3908.09
3847.04
3770.14
3678.91
3575.08
3460.54
3337.35
3207.73
3074.04
2938.88
2805.36
2677.27
2554.04
2436.41
2325.54
2222.72
2129.27
2046.5
1975.61
1917.72
1873.79
1844.64
1830.89
1832.98
1850.82
1883.92
1931.6
1993
2067.12
2152.81
2248.84
2353.91
2466.69
2585.9
2710.49
2839.98
2974.28
3109.32
3242.17
3370.32
3491.43
3603.35
3704.05
3791.67
3864.55
3921.21
3960.42
3981.16
3982.73
3965.23
3929.19
3875.4
3804.92
3719.03
3619.28
3507.38
3385.27
3255.04
3118.97
2979.58
2839.84
2703.96
2571.93
2444.25
2322.05
2206.67
2099.53
2002.06
1915.63
1841.53
1780.97
1734.97
1704.43
1689.98
)
;
        value           nonuniform List<scalar> 
102
(
1074.62
1075.49
1077.12
1079.49
1082.57
1086.3
1090.63
1095.51
1100.86
1106.62
1112.69
1119
1125.45
1131.96
1138.44
1144.78
1150.89
1156.68
1162.07
1166.96
1171.3
1175.02
1178.05
1180.36
1181.91
1182.67
1182.65
1181.85
1180.28
1177.98
1174.99
1171.36
1167.16
1162.46
1157.33
1151.87
1146.17
1140.31
1134.39
1128.52
1122.76
1117.22
1111.98
1107.12
1102.7
1098.79
1095.46
1092.75
1090.71
1089.36
1088.73
1088.82
1089.64
1091.18
1093.4
1096.27
1099.76
1103.8
1108.35
1113.32
1118.65
1124.25
1130.04
1135.94
1141.85
1147.68
1153.33
1158.71
1163.73
1168.31
1172.37
1175.84
1178.65
1180.77
1182.14
1182.74
1182.55
1181.58
1179.83
1177.33
1174.11
1170.23
1165.74
1160.7
1155.2
1149.32
1143.14
1136.76
1130.27
1123.76
1117.34
1111.08
1105.08
1099.43
1094.19
1089.45
1085.26
1081.7
1078.81
1076.63
1075.19
1074.51
)
;
    }
    bottom
    {
        type            fixedFluxPressure;
        gradient        nonuniform List<scalar> 
102
(
0
0
0
0
0
0
0
0
0
0
0
0
0
0
0
0
0
0
0
0
0
0
0
0
0
0
0
0
0
0
0
0
0
0
0
0
0
0
0
0
0
0
0
0
0
0
0
0
0
0
0
0
0
0
0
0
0
0
0
0
0
0
0
0
0
0
0
0
0
0
0
0
0
0
0
0
0
0
0
0
0
0
0
0
0
0
0
0
0
0
0
0
0
0
0
0
0
0
0
0
0
-7.28001e-15
)
;
        value           nonuniform List<scalar> 
102
(
-40.3381
-41.7725
-44.4493
-48.3209
-53.3161
-59.3398
-66.2721
-73.9711
-82.2777
-91.0218
-100.028
-109.119
-118.117
-126.854
-135.187
-143.001
-150.209
-156.75
-162.585
-167.696
-172.075
-175.725
-178.652
-180.864
-182.367
-183.166
-183.265
-182.669
-181.379
-179.399
-176.729
-173.373
-169.334
-164.621
-159.255
-153.266
-146.705
-139.645
-132.179
-124.427
-116.535
-108.666
-100.993
-93.6848
-86.9054
-80.8066
-75.5262
-71.1844
-67.8798
-65.6874
-64.6571
-64.8124
-66.1498
-68.6387
-72.2226
-76.8202
-82.3268
-88.6174
-95.5501
-102.97
-110.711
-118.602
-126.473
-134.163
-141.533
-148.471
-154.888
-160.718
-165.916
-170.454
-174.316
-177.494
-179.984
-181.784
-182.893
-183.309
-183.027
-182.045
-180.359
-177.962
-174.847
-171.008
-166.439
-161.139
-155.117
-148.399
-141.026
-133.068
-124.619
-115.799
-106.761
-97.675
-88.72
-80.073
-71.9082
-64.3933
-57.6839
-51.9164
-47.2043
-43.6367
-41.2786
-40.1723
)
;
    }
    frontAndBack
    {
        type            empty;
    }
    left_cyc
    {
        type            cyclic;
    }
    right_cyc
    {
        type            cyclic;
    }
}


// ************************************************************************* //
