/*--------------------------------*- C++ -*----------------------------------*\
| =========                 |                                                 |
| \\      /  F ield         | OpenFOAM: The Open Source CFD Toolbox           |
|  \\    /   O peration     | Version:  2.3.0                                 |
|   \\  /    A nd           | Web:      www.OpenFOAM.org                      |
|    \\/     M anipulation  |                                                 |
\*---------------------------------------------------------------------------*/
FoamFile
{
    version     2.0;
    format      ascii;
    class       surfaceScalarField;
    location    "3000";
    object      phi;
}
// * * * * * * * * * * * * * * * * * * * * * * * * * * * * * * * * * * * * * //

dimensions      [0 3 -1 0 0 0 0];

internalField   nonuniform List<scalar> 
5988
(
0.00114383
-0.0010117
0.00213891
-0.000995075
0.00310267
-0.000963759
0.00402003
-0.000917365
0.00487552
-0.000855491
0.00565356
-0.000778036
0.00633916
-0.000685598
0.00691884
-0.000579683
0.00738131
-0.000462467
0.00771758
-0.000336271
0.00792104
-0.000203461
0.00798828
-6.72387e-05
0.00792071
6.75667e-05
0.00772552
0.000195194
0.00741423
0.00031129
0.00700073
0.000413499
0.00650029
0.000500445
0.00592853
0.000571755
0.00530026
0.000628265
0.00462863
0.000671639
0.00392467
0.000703954
0.00319736
0.000727313
0.00245385
0.000743505
0.00170002
0.000753833
0.00094092
0.000759102
0.000181222
0.000759698
-0.000574491
0.000755713
-0.00132157
0.00074708
-0.00205519
0.000733618
-0.00277008
0.00071489
-0.00346018
0.000690099
-0.00411821
0.000658036
-0.00473534
0.000617125
-0.00530094
0.000565595
-0.00580274
0.000501806
-0.00622733
0.000424589
-0.00656089
0.000333559
-0.00679031
0.000229417
-0.0069041
0.000113795
-0.00689332
-1.07826e-05
-0.00675308
-0.000140236
-0.00648365
-0.000269439
-0.0060901
-0.000393548
-0.00558108
-0.000509013
-0.00496756
-0.000613525
-0.00426213
-0.000705427
-0.00347879
-0.000783347
-0.00263259
-0.000846192
-0.00173936
-0.000893235
-0.000815285
-0.000924074
0.000123199
-0.000938483
0.0010595
-0.000936303
0.00197707
-0.000917569
0.00285953
-0.000882456
0.00369075
-0.000831222
0.00445509
-0.000764341
0.00513773
-0.000682638
0.00572502
-0.000587291
0.00620476
-0.000479732
0.00656649
-0.000361737
0.00680238
-0.000235888
0.0069085
-0.000106113
0.00688596
2.25372e-05
0.00674088
0.00014508
0.00648301
0.000257874
0.00612432
0.000358689
0.00567821
0.000446105
0.00515849
0.000519718
0.00457834
0.000580151
0.00394962
0.000628724
0.00328247
0.000667146
0.00258531
0.000697163
0.00186504
0.000720265
0.00112749
0.000737553
0.000377769
0.000749722
-0.000379361
0.000757131
-0.00113928
0.000759916
-0.0018974
0.000758119
-0.00264898
0.000751583
-0.0033888
0.000739825
-0.00411072
0.000721914
-0.00480713
0.000696415
-0.00546857
0.000661435
-0.0060834
0.000614837
-0.00663802
0.000554618
-0.0071173
0.000479281
-0.00750558
0.000388284
-0.00778788
0.0002823
-0.0079508
0.000162915
-0.00798372
3.29224e-05
-0.00788095
-0.000102769
-0.00764248
-0.00023847
-0.00727269
-0.000369793
-0.00677883
-0.000493862
-0.00617046
-0.000608362
-0.00545949
-0.000710971
-0.00465986
-0.000799635
-0.00378677
-0.000873083
-0.00285584
-0.000930936
-0.00188243
-0.000973407
-0.000881533
-0.0010009
-0.00101367
0.00220957
-0.00296625
0.00413866
-0.00292416
0.00601932
-0.00284442
0.00782759
-0.00272564
0.00953817
-0.00256606
0.0111244
-0.00236428
0.0125589
-0.00212012
0.0138147
-0.00183543
0.014866
-0.00151382
0.0156895
-0.00115979
0.0162647
-0.000778574
0.0165756
-0.00037814
0.0166143
2.87833e-05
0.0163833
0.000426231
0.0158941
0.000800448
0.0151655
0.00114212
0.0142218
0.0014442
0.013091
0.00170255
0.0118025
0.00191677
0.0103847
0.00208936
0.00886411
0.00222458
0.00726406
0.00232736
0.00560533
0.00240224
0.00390645
0.00245271
0.00218447
0.00248109
0.000455565
0.0024886
-0.00126438
0.00247566
-0.00295947
0.00244217
-0.00461352
0.00238766
-0.00620955
0.00231093
-0.00772934
0.00220988
-0.00915279
0.00208149
-0.0104577
0.00192201
-0.0116196
0.00172756
-0.012613
0.00149519
-0.0134121
0.00122371
-0.0139932
0.000914585
-0.0143363
0.000572572
-0.0144276
0.000205062
-0.0142598
-0.000178546
-0.0138342
-0.000565857
-0.0131608
-0.000942883
-0.0122571
-0.00129719
-0.0111459
-0.00162028
-0.00985215
-0.00190723
-0.00840248
-0.0021551
-0.00682395
-0.00236187
-0.00514381
-0.00252634
-0.00338898
-0.00264806
-0.00158588
-0.00272718
0.000239572
-0.00276394
0.00206165
-0.00275838
0.00385461
-0.00271053
0.00559242
-0.00262027
0.00724854
-0.00248734
0.00879591
-0.00231171
0.0102073
-0.00209402
0.0114557
-0.00183569
0.0125149
-0.00153893
0.0133602
-0.00120707
0.0139701
-0.000845814
0.0143288
-0.000464767
0.0144284
-7.71004e-05
0.0142702
0.000303337
0.0138631
0.000664922
0.0132229
0.000998895
0.0123706
0.00129843
0.0113307
0.00155965
0.010129
0.00178186
0.00879091
0.00196678
0.00734033
0.00211773
0.00579888
0.00223861
0.00418612
0.00233302
0.0025199
0.00240377
0.000816923
0.0024527
-0.000906738
0.00248079
-0.00263522
0.0024884
-0.00435261
0.00247551
-0.00604256
0.00244153
-0.00768771
0.00238497
-0.00926901
0.00230322
-0.0107651
0.00219247
-0.0121516
0.00204801
-0.0134018
0.00186496
-0.0144866
0.00163943
-0.0153768
0.00136955
-0.0160452
0.00105663
-0.0164686
0.000705752
-0.0166302
0.000324471
-0.0165204
-7.69008e-05
-0.0161396
-0.000483537
-0.0154982
-0.000879924
-0.0146133
-0.00125463
-0.0135065
-0.00160066
-0.0122018
-0.00191308
-0.0107252
-0.00218755
-0.00910404
-0.00242081
-0.00736554
-0.00261159
-0.00553602
-0.00276045
-0.00364045
-0.00286898
-0.00170249
-0.00293885
-0.00297118
0.00239748
-0.00508723
0.00449736
-0.00502404
0.00655712
-0.00490419
0.00855723
-0.00472574
0.0104772
-0.00448604
0.012295
-0.00418212
0.0139865
-0.0038116
0.0155245
-0.00337339
0.0168786
-0.00286797
0.018016
-0.00229715
0.0189024
-0.00166501
0.0195057
-0.000981343
0.0197997
-0.000265305
0.0197694
0.000456591
0.0194111
0.00115874
0.0187324
0.00182081
0.0177517
0.00242493
0.0164963
0.00295794
0.0149992
0.0034139
0.0132959
0.00379262
0.0114223
0.00409815
0.00941283
0.00433686
0.00729976
0.00451531
0.00511352
0.00463895
0.00288305
0.00471155
0.000636381
0.00473527
-0.00159893
0.00471097
-0.00379543
0.00463867
-0.00592546
0.0045177
-0.00796083
0.00434629
-0.00987234
0.00412139
-0.0116295
0.00383869
-0.0132008
0.00349328
-0.0145541
0.00308083
-0.0156584
0.00259954
-0.0164864
0.00205166
-0.0170163
0.00144453
-0.0172353
0.000791554
-0.0171407
0.000110391
-0.0167399
-0.000579304
-0.0160503
-0.00125548
-0.0150976
-0.00189558
-0.0139133
-0.00248147
-0.0125308
-0.00300277
-0.0109826
-0.00345543
-0.00929897
-0.00383873
-0.00750755
-0.00415329
-0.00563349
-0.0044004
-0.00369984
-0.0045817
-0.00172817
-0.00469885
0.000260978
-0.00475308
0.00224749
-0.0047449
0.0042112
-0.00467424
0.00613134
-0.0045404
0.00798601
-0.00434201
0.00975166
-0.00407737
0.0114025
-0.0037449
0.0129103
-0.00334345
0.014244
-0.00287265
0.0153708
-0.00233384
0.0162574
-0.00173243
0.0168735
-0.00108086
0.0171954
-0.000398935
0.0172082
0.00029052
0.0169071
0.000966009
0.0162975
0.00160848
0.0153949
0.00220105
0.0142226
0.00273189
0.0128094
0.00319513
0.0111865
0.00358966
0.00938607
0.00391815
0.00743945
0.00418522
0.00537674
0.00439573
0.00322683
0.00455369
0.00101773
0.0046618
-0.00122301
0.00472153
-0.00346793
0.00473332
-0.00568939
0.00469697
-0.0078592
0.00461133
-0.00994808
0.00447385
-0.0119252
0.0042803
-0.0137576
0.00402488
-0.0154104
0.00370089
-0.0168478
0.00330235
-0.0180346
0.00282618
-0.0189389
0.00227387
-0.0195355
0.0016532
-0.0198086
0.000978923
-0.0197537
0.000269547
-0.0193772
-0.000453375
-0.0186976
-0.00116323
-0.0177426
-0.00183484
-0.0165456
-0.00245161
-0.0151406
-0.00300567
-0.01356
-0.00349374
-0.0118332
-0.00391437
-0.00998652
-0.00426745
-0.00804365
-0.00455446
-0.0060261
-0.00477801
-0.00395405
-0.00494103
-0.00184688
-0.00504602
-0.00509456
0.00224492
-0.00707319
0.0042085
-0.00698762
0.00613038
-0.00682607
0.00799244
-0.0065878
0.00977809
-0.00627169
0.0114722
-0.00587621
0.01306
-0.00539944
0.0145257
-0.00483906
0.0158504
-0.0041927
0.017012
-0.00345876
0.0179853
-0.00263826
0.0187418
-0.00173784
0.0192493
-0.000772875
0.0194732
0.000232757
0.0193815
0.0012504
0.018954
0.00224835
0.0181871
0.00319178
0.017094
0.00405108
0.0157
0.00480785
0.0140395
0.00545312
0.0121517
0.00598593
0.0100777
0.00641088
0.00785857
0.00673447
0.00553465
0.00696286
0.00314549
0.00710072
0.000729881
0.00715088
-0.00167383
0.00711468
-0.00402757
0.00699241
-0.00629338
0.00678351
-0.00843325
0.00648616
-0.0104091
0.0060972
-0.0121829
0.00561255
-0.013718
0.00502836
-0.0149802
0.00434307
-0.0159412
0.00356045
-0.0165811
0.00269157
-0.016892
0.00175542
-0.0168802
0.000779831
-0.0165672
-0.000202649
-0.0159845
-0.00116195
-0.0151671
-0.00207289
-0.0141477
-0.00291505
-0.0129547
-0.00367438
-0.0116134
-0.0043441
-0.0101461
-0.00492278
-0.00857311
-0.00541169
-0.00691333
-0.00581307
-0.00518452
-0.00612921
-0.00340415
-0.00636208
-0.00158991
-0.00651309
0.000240125
-0.00658312
0.00206777
-0.00657255
0.00387485
-0.00648131
0.00564338
-0.00630893
0.00735575
-0.00605438
0.00899447
-0.00571609
0.0105416
-0.005292
0.0119779
-0.00477977
0.0132825
-0.0041773
0.0144325
-0.00348381
0.0154019
-0.00270186
0.0161611
-0.00184005
0.0166765
-0.000914297
0.0169134
5.36407e-05
0.0168421
0.00103728
0.0164451
0.00200551
0.0157199
0.00292625
0.0146779
0.0037739
0.0133413
0.0045317
0.0117404
0.00519052
0.00991028
0.0057483
0.00788806
0.00620744
0.00571178
0.00657202
0.00341951
0.00684595
0.00104925
0.00703207
-0.00136105
0.00713183
-0.00377326
0.00714553
-0.00614896
0.00707267
-0.00844919
0.00691156
-0.0106342
0.0066589
-0.0126635
0.00630956
-0.0144958
0.00585717
-0.0160903
0.00529542
-0.0174088
0.00462081
-0.0184188
0.00383625
-0.0190979
0.00295294
-0.0194369
0.00199218
-0.0194438
0.000985878
-0.0191428
-3.14584e-05
-0.0185672
-0.00102898
-0.0177515
-0.00197901
-0.0167267
-0.00285964
-0.0155203
-0.00365794
-0.0141569
-0.00436905
-0.0126578
-0.00499286
-0.0110409
-0.0055313
-0.00932158
-0.00598677
-0.00751455
-0.00636149
-0.00563528
-0.00665727
-0.00370079
-0.00687553
-0.00172955
-0.00701726
-0.00708308
0.0020881
-0.0089203
0.00391099
-0.00881051
0.00568864
-0.00860372
0.00740083
-0.00829999
0.00902843
-0.00789929
0.0105536
-0.00740137
0.0119599
-0.00680572
0.0132325
-0.0061117
0.014359
-0.00531915
0.0153296
-0.00442938
0.0161376
-0.00344627
0.0167767
-0.00237692
0.0172355
-0.00123174
0.0174931
-2.47713e-05
0.0175195
0.00122392
0.0172829
0.00248497
0.0167546
0.00372006
0.0159166
0.00488917
0.0147681
0.00595627
0.0133279
0.00689338
0.0116281
0.0076857
0.00970905
0.00832994
0.00761508
0.00882844
0.00539242
0.00918552
0.00308784
0.00940529
0.000748112
0.00949061
-0.00158024
0.00944304
-0.0038511
0.00926327
-0.0060189
0.00895131
-0.00803895
0.00850621
-0.00986802
0.00792627
-0.0114657
0.0072102
-0.0127965
0.00635917
-0.0138333
0.00537993
-0.0145623
0.0042894
-0.0149867
0.00311594
-0.0151257
0.00189447
-0.0150083
0.000662414
-0.0146664
-0.000544519
-0.0141303
-0.00169813
-0.0134234
-0.00277971
-0.0125613
-0.00377719
-0.0115536
-0.0046821
-0.0104091
-0.00548858
-0.00913881
-0.00619308
-0.00775642
-0.00679408
-0.00627809
-0.0072914
-0.00472174
-0.00768556
-0.00310655
-0.00797726
-0.00145261
-0.00816703
0.000219463
-0.00825519
0.00188879
-0.00824187
0.00353454
-0.00812706
0.00513619
-0.00791058
0.00667387
-0.00759206
0.00812869
-0.00717091
0.00948314
-0.00664645
0.0107216
-0.00601827
0.0118312
-0.00528684
0.0128015
-0.00445415
0.013624
-0.00352434
0.0142879
-0.00250394
0.0147758
-0.00140217
0.0150619
-0.000232518
0.0151152
0.000983974
0.014904
0.00221674
0.0144012
0.00342902
0.0135913
0.00458381
0.0124756
0.00564738
0.0110721
0.00659406
0.00941038
0.00741001
0.00752748
0.00809035
0.00546473
0.00863477
0.00326582
0.00904486
0.000975702
0.00932218
-0.0013599
0.00946743
-0.00369476
0.00948039
-0.00598227
0.00936019
-0.00817566
0.00910495
-0.0102282
0.00871147
-0.0120941
0.00817543
-0.0137297
0.00749277
-0.0150964
0.00666216
-0.016165
0.00568933
-0.0169214
0.00459269
-0.0173714
0.00340288
-0.0175364
0.00215726
-0.0174467
0.000896158
-0.0171342
-0.000343947
-0.0166269
-0.0015363
-0.0159431
-0.0026628
-0.0150923
-0.0037105
-0.0140804
-0.00466985
-0.0129148
-0.00553458
-0.0116061
-0.00630157
-0.0101674
-0.00696999
-0.00861397
-0.00754022
-0.0069626
-0.00801286
-0.0052315
-0.00838837
-0.00344012
-0.00866691
-0.00160891
-0.00884847
-0.00893297
0.00191377
-0.0106131
0.00358211
-0.0104788
0.0052047
-0.0102263
0.0067609
-0.00985619
0.00823104
-0.00936944
0.00959677
-0.0087671
0.0108415
-0.00805044
0.0119509
-0.00722115
0.0129137
-0.0062819
0.0137214
-0.00523707
0.0143685
-0.00409336
0.0148513
-0.0028598
0.0151671
-0.00154748
0.0153121
-0.000169796
0.01528
0.00125605
0.0150576
0.00270732
0.0146232
0.00415447
0.0139517
0.00556065
0.0130245
0.00688351
0.0118357
0.00808216
0.0103962
0.00912527
0.00873308
0.00999303
0.00688578
0.0106757
0.00490003
0.0111713
0.00282454
0.0114808
0.000709313
0.0116058
-0.00139534
0.0115477
-0.00343954
0.0113075
-0.00537461
0.0108864
-0.00715413
0.0102857
-0.00873555
0.00950769
-0.0100836
0.00855823
-0.0111752
0.00745077
-0.0120033
0.0062081
-0.0125766
0.00486267
-0.0129151
0.00345448
-0.0130445
0.00202383
-0.0129875
0.000605388
-0.012759
-0.000772988
-0.0123676
-0.00208952
-0.0118193
-0.00332801
-0.0111199
-0.00447656
-0.0102761
-0.00552594
-0.00929602
-0.00646864
-0.0081903
-0.00729881
-0.00697205
-0.00801233
-0.00565688
-0.00860657
-0.00426247
-0.00907998
-0.00280806
-0.00943167
-0.00131403
-0.00966106
0.000198568
-0.00976779
0.00170835
-0.00975166
0.003194
-0.00961271
0.00463459
-0.00935118
0.00601002
-0.00896749
0.00730139
-0.00846228
0.00849152
-0.00783658
0.00956544
-0.00709219
0.0105107
-0.00623208
0.0113174
-0.00526082
0.0119777
-0.0041847
0.0124854
-0.00301165
0.0128347
-0.00175149
0.0130193
-0.000417084
0.0130293
0.000973981
0.0128476
0.0023984
0.0124501
0.00382661
0.0118117
0.00522219
0.0109149
0.00654417
0.00975491
0.00775402
0.00834313
0.00882179
0.00670626
0.00972721
0.00488192
0.0104591
0.00291389
0.0110129
0.00084931
0.0113868
-0.00126277
0.0115795
-0.0033723
0.0115899
-0.00542897
0.0114169
-0.00738303
0.011059
-0.00918634
0.0105148
-0.0107944
0.00978348
-0.0121704
0.00886883
-0.0132913
0.00778299
-0.0141506
0.00654868
-0.0147581
0.00520015
-0.0151348
0.00377958
-0.0153058
0.00232828
-0.0152909
0.000881259
-0.015101
-0.000533827
-0.0147415
-0.00189581
-0.0142156
-0.00318869
-0.0135263
-0.00439979
-0.0126777
-0.00551852
-0.0116758
-0.00653643
-0.0105299
-0.00744744
-0.00925226
-0.00824767
-0.0078577
-0.00893478
-0.00636335
-0.00950721
-0.00478795
-0.00996377
-0.00315145
-0.0103034
-0.00147468
-0.0105252
-0.0106286
0.00171873
-0.0121333
0.00321525
-0.0119754
0.00466748
-0.0116785
0.00605553
-0.0112442
0.00736052
-0.0106744
0.008565
-0.00997158
0.00965339
-0.00913883
0.0106124
-0.00818014
0.0114312
-0.00710076
0.0121019
-0.00590772
0.0126186
-0.00461012
0.0129781
-0.00321923
0.0131788
-0.00174826
0.0132216
-0.000212554
0.0131079
0.00136978
0.012838
0.00297714
0.0124089
0.00458358
0.0118113
0.00615827
0.0110295
0.00766537
0.0100471
0.00906455
0.00885821
0.0103141
0.00747338
0.0113779
0.00591836
0.0122308
0.00423036
0.0128593
0.00245399
0.0132571
0.00063782
0.013422
-0.00116824
0.0133537
-0.00291471
0.0130539
-0.00455453
0.0125262
-0.00604561
0.0117768
-0.00735431
0.0108164
-0.00845903
0.00966295
-0.00935311
0.00834485
-0.0100449
0.00689989
-0.0105517
0.00536948
-0.01089
0.0037928
-0.0110704
0.00220421
-0.0110981
0.000633039
-0.010975
-0.000896081
-0.010702
-0.00236252
-0.0102808
-0.00374923
-0.00971502
-0.0050423
-0.0090108
-0.00623016
-0.00817638
-0.00730306
-0.0072222
-0.008253
-0.00616088
-0.00907364
-0.0050072
-0.00976024
-0.00377785
-0.0103093
-0.00249108
-0.0107184
-0.00116632
-0.0109858
0.000176276
-0.0111104
0.00151617
-0.0110916
0.00283289
-0.0109294
0.00410643
-0.0106247
0.00531763
-0.0101787
0.00644861
-0.00959326
0.00748316
-0.00887114
0.00840706
-0.00801609
0.00920825
-0.00703327
0.00987686
-0.00592943
0.0104052
-0.00471304
0.0107878
-0.00339429
0.0110216
-0.00198531
0.0111053
-0.000500775
0.011038
0.00104135
0.0108169
0.00261946
0.0104358
0.00420775
0.00988235
0.00577562
0.00913914
0.00728738
0.00819025
0.00870291
0.00703097
0.00998108
0.00567204
0.0110861
0.00413854
0.0119926
0.00246667
0.0126848
0.000700091
0.0131533
-0.00111328
0.0133929
-0.00292369
0.0134003
-0.00468141
0.0131746
-0.00633862
0.0127162
-0.00785229
0.0120285
-0.00918782
0.011119
-0.0103231
0.0100041
-0.0112519
0.00871185
-0.011984
0.00728072
-0.0125363
0.00575253
-0.0129233
0.00416655
-0.0131524
0.00255733
-0.0132255
0.000954377
-0.0131417
-0.000617567
-0.0128997
-0.00213789
-0.0124991
-0.00358928
-0.0119418
-0.00495702
-0.011232
-0.00622838
-0.0103758
-0.00739264
-0.00938197
-0.00844124
-0.00826199
-0.00936765
-0.00702978
-0.010167
-0.00570144
-0.0108356
-0.00429483
-0.0113704
-0.00282913
-0.0117691
-0.00132445
-0.0120299
-0.0121516
0.00151018
-0.013469
0.00282367
-0.0132889
0.00409571
-0.0129506
0.00530773
-0.0124563
0.00644223
-0.0118089
0.00748315
-0.0110125
0.00841624
-0.0100719
0.00922942
-0.00899332
0.009913
-0.00778434
0.0104597
-0.0064544
0.0108645
-0.00501492
0.0111246
-0.00347934
0.0112394
-0.00186306
0.0112104
-0.000183519
0.0110408
0.00153939
0.0107349
0.00328304
0.0102968
0.00502167
0.0097288
0.00672624
0.00903011
0.00836405
0.00819643
0.00989823
0.00722175
0.0112888
0.0061036
0.012496
0.00485024
0.0134841
0.00348443
0.0142251
0.00204109
0.0147005
0.000562421
0.0149007
-0.000906508
0.0148227
-0.00232132
0.0144687
-0.00364194
0.0138468
-0.00483682
0.0129717
-0.00588701
0.0118666
-0.00678743
0.0105634
-0.00754262
0.00910004
-0.00815979
0.00751705
-0.00864429
0.00585398
-0.00899829
0.0041468
-0.00922121
0.00242713
-0.00931102
0.000722847
-0.00926567
-0.000941423
-0.00908414
-0.00254405
-0.00876711
-0.00406626
-0.00831751
-0.0054919
-0.00774055
-0.00680711
-0.00704365
-0.00799996
-0.00623634
-0.00906031
-0.0053302
-0.00997979
-0.00433877
-0.0107517
-0.00327738
-0.0113707
-0.00216285
-0.011833
-0.00101312
-0.0121356
0.000153148
-0.0122766
0.00131691
-0.0122553
0.00245919
-0.0120717
0.00356147
-0.011727
0.00460606
-0.0112233
0.00557652
-0.0105637
0.00645797
-0.00975258
0.00723736
-0.00879548
0.00790363
-0.00769955
0.00844783
-0.00647362
0.00886309
-0.0051283
0.0091448
-0.003676
0.00929064
-0.00213115
0.00930043
-0.000510559
0.00917554
0.00116624
0.00891815
0.00287685
0.00853003
0.00459586
0.00801116
0.00629449
0.00735853
0.00794001
0.00656608
0.00949537
0.0056267
0.0109205
0.00453772
0.0121751
0.00330764
0.0132227
0.00195902
0.0140334
0.000526078
0.0145863
-0.000949648
0.0148686
-0.00242327
0.014874
-0.0038501
0.0146014
-0.0051894
0.0140555
-0.00640898
0.013248
-0.00748986
0.0121999
-0.00842717
0.0109414
-0.00922502
0.0095097
-0.00988929
0.00794499
-0.0104234
0.00628666
-0.0108274
0.00457049
-0.0110982
0.00282814
-0.0112315
0.00108776
-0.0112234
-0.000625721
-0.0110708
-0.00229045
-0.0107729
-0.00388722
-0.0103308
-0.00539913
-0.00974789
-0.00681128
-0.00902977
-0.00811077
-0.00818434
-0.00928667
-0.00722192
-0.0103301
-0.0061552
-0.0112337
-0.00499891
-0.0119918
-0.00376954
-0.0125997
-0.0024849
-0.0130537
-0.00116377
-0.0133511
-0.0134898
0.00129274
-0.0146123
0.00241594
-0.0144121
0.0035016
-0.0140362
0.00453298
-0.0134876
0.00549436
-0.0127703
0.00637141
-0.0118895
0.00715147
-0.010852
0.00782389
-0.00966574
0.00838014
-0.00834059
0.00881393
-0.00688818
0.00912111
-0.00532211
0.00929974
-0.00365797
0.00934998
-0.0019133
0.00927412
-0.000107658
0.00907626
0.00173725
0.00876188
0.00359741
0.00833733
0.00544622
0.00780917
0.0072544
0.00718346
0.00898976
0.00646476
0.0106169
0.00565573
0.0120978
0.00475874
0.013393
0.00377901
0.0144639
0.00272801
0.0152761
0.00162563
0.0158029
0.000499451
0.0160269
-0.000618682
0.0159408
-0.00169771
0.0155478
-0.00271211
0.0148612
-0.00364468
0.0139042
-0.0044864
0.0127083
-0.00523391
0.0113109
-0.00588615
0.00975228
-0.00644155
0.00807245
-0.00689679
0.00630922
-0.00724729
0.0044973
-0.00748819
0.00266804
-0.00761514
0.00084979
-0.00762472
-0.000931836
-0.00751497
-0.0026538
-0.00728575
-0.00429549
-0.00693903
-0.00583862
-0.00647903
-0.00726712
-0.00591206
-0.00856693
-0.00524648
-0.00972589
-0.00449256
-0.0107337
-0.00366236
-0.0115819
-0.00276955
-0.0122635
-0.00182913
-0.0127734
-0.000857173
-0.0131075
0.0001296
-0.0132634
0.00111413
-0.0132398
0.0020794
-0.013037
0.00300884
-0.0126564
0.00388662
-0.0121011
0.00469806
-0.0113752
0.0054299
-0.0104844
0.00607052
-0.0094361
0.00661017
-0.00823919
0.007041
-0.00690445
0.00735724
-0.00544454
0.00755527
-0.00387402
0.00763367
-0.00220955
0.00759309
-0.000469983
0.00743594
0.00132339
0.00716589
0.0031469
0.00678752
0.00497424
0.00630567
0.00677633
0.0057247
0.00852098
0.00504746
0.0101726
0.00427519
0.0116927
0.00340925
0.0130411
0.00245416
0.0141778
0.0014209
0.0150666
0.000328959
0.0156782
-0.000794323
0.0159919
-0.00191719
0.0159968
-0.00300847
0.0156927
-0.00404234
0.0150894
-0.0050012
0.0142069
-0.00587549
0.0130742
-0.00666107
0.011727
-0.00735578
0.0102044
-0.0079565
0.00854571
-0.00845822
0.00678838
-0.00885465
0.00496692
-0.00913923
0.00311272
-0.00930579
0.00125432
-0.00934914
-0.000582369
-0.0092656
-0.00237399
-0.00905342
-0.0040994
-0.00871297
-0.00573957
-0.0082468
-0.00727746
-0.00765959
-0.00869798
-0.00695822
-0.00998804
-0.0061518
-0.0111365
-0.0052515
-0.012134
-0.00427046
-0.0129729
-0.0032234
-0.0136468
-0.00212633
-0.0141508
-0.000996203
-0.0144812
-0.0146355
0.00107018
-0.0155587
0.00199899
-0.0153409
0.00289497
-0.0149322
0.00374352
-0.0143362
0.00453102
-0.0135578
0.00524511
-0.0126036
0.00587494
-0.0114818
0.00641147
-0.0102023
0.00684755
-0.00877667
0.00717804
-0.00721867
0.00739983
-0.0055439
0.00751182
-0.00376996
0.00751498
-0.00191646
0.00741224
-4.91722e-06
0.00720834
0.00194115
0.00690958
0.00389617
0.00652345
0.00583235
0.00605821
0.00771964
0.00552241
0.00952556
0.00492427
0.0112151
0.00427126
0.0127508
0.00357007
0.0140942
0.00282728
0.0152066
0.00205071
0.0160526
0.00125086
0.0166027
0.000441219
0.0168365
-0.000362946
0.016745
-0.00114678
0.0163316
-0.00189782
0.0156123
-0.00260681
0.0146132
-0.00326705
0.0133685
-0.00387287
0.0119167
-0.00441841
0.0102978
-0.00489719
0.00855123
-0.00530215
0.00671418
-0.00562619
0.00482133
-0.00586272
0.00290457
-0.00600612
0.000993189
-0.00605208
-0.000885875
-0.00599785
-0.00270803
-0.00584252
-0.00445082
-0.00558716
-0.00609398
-0.00523488
-0.0076194
-0.00479077
-0.00901104
-0.00426177
-0.0102549
-0.00365659
-0.0113389
-0.00298556
-0.0122529
-0.00226041
-0.0129887
-0.0014941
-0.0135397
-0.000700491
-0.0139011
0.000105937
-0.0140698
0.000910421
-0.0140443
0.00169824
-0.0138248
0.00245506
-0.0134132
0.00316721
-0.0128132
0.00382204
-0.01203
0.00440816
-0.0110705
0.00491566
-0.00994361
0.00533628
-0.00865982
0.00566357
-0.00723173
0.00589293
-0.0056739
0.0060218
-0.00400289
0.00604962
-0.00223737
0.00597782
-0.000398182
0.00580958
0.00149164
0.00554957
0.00340691
0.00520369
0.00532011
0.00477873
0.0072013
0.00428182
0.00901788
0.00371992
0.0107345
0.00309933
0.0123133
0.00242579
0.0137146
0.00170509
0.0148985
0.000944468
0.0158273
0.000154019
0.0164687
-0.000653035
0.0167989
-0.00146152
0.0168053
-0.00225643
0.0164876
-0.00302502
0.015858
-0.00375757
0.0149394
-0.00444674
0.0137633
-0.00508604
0.0123663
-0.00566859
0.010787
-0.00618675
0.00906387
-0.00663212
0.00723376
-0.0069962
0.005331
-0.00727089
0.0033874
-0.00744897
0.0014324
-0.00752451
-0.00050683
-0.00749319
-0.00240531
-0.00735258
-0.00424001
-0.00710227
-0.00598989
-0.00674387
-0.00763586
-0.00628103
-0.00916081
-0.00571942
-0.0105496
-0.0050667
-0.0117892
-0.00433238
-0.0128683
-0.00352774
-0.0137775
-0.00266549
-0.0145091
-0.00175954
-0.0150568
-0.00082467
-0.0154161
-0.0155839
0.000845378
-0.0163063
0.00157812
-0.0160736
0.00228328
-0.0156374
0.00294868
-0.0150016
0.00356298
-0.0141721
0.00411597
-0.0131566
0.00459879
-0.0119646
0.00500415
-0.0106076
0.00532644
-0.00909896
0.00556182
-0.00745405
0.00570826
-0.00569034
0.00576559
-0.00382729
0.00573545
-0.00188632
0.00562132
0.000109216
0.00542833
0.00213414
0.00516314
0.00416136
0.00483368
0.00616181
0.00444881
0.00810451
0.00401788
0.00995649
0.00355018
0.0116828
0.00305434
0.0132467
0.00253793
0.0146106
0.00200718
0.0157374
0.00146719
0.0165926
0.000922362
0.0171475
0.000376773
0.0173821
-0.000165593
0.0172873
-0.000700827
0.0168668
-0.00122498
0.0161364
-0.0017338
0.0151221
-0.00222233
0.0138571
-0.00268454
0.0123789
-0.0031133
0.0107266
-0.00350067
0.0089386
-0.00383839
0.00705191
-0.00411842
0.00510136
-0.00433344
0.00311958
-0.00447723
0.00113697
-0.00454492
-0.000818184
-0.00453319
-0.00271975
-0.00444042
-0.00454358
-0.00426678
-0.00626762
-0.00401422
-0.00787195
-0.0036865
-0.00933877
-0.003289
-0.0106524
-0.0028287
-0.0117992
-0.00231398
-0.0127676
-0.00175445
-0.0135482
-0.00116082
-0.0141333
-0.000544536
-0.0145174
8.2381e-05
-0.0146968
0.000707685
-0.0146696
0.00131916
-0.0144363
0.00190492
-0.013999
0.00245368
-0.013362
0.002955
-0.0125313
0.00339957
-0.0115151
0.00377936
-0.0103234
0.00408783
-0.00896828
0.00431998
-0.00746389
0.00447255
-0.00582647
0.00454404
-0.00407438
0.00453475
-0.00222808
0.00444676
-0.000310195
0.00428381
0.00165458
0.00405114
0.00363958
0.00375527
0.00561598
0.00340377
0.00755281
0.00300477
0.00941688
0.00256652
0.0111728
0.00209677
0.0127831
0.00160238
0.014209
0.0010891
0.0154118
0.000561649
0.0163547
2.41681e-05
0.0170062
-0.000519416
0.0173425
-0.00106518
0.0173511
-0.00160913
0.0170315
-0.00214712
0.016396
-0.00267462
0.0154669
-0.00318627
0.014275
-0.00367548
0.0128555
-0.0041344
0.0112459
-0.00455415
0.00948362
-0.0049254
0.00760501
-0.00523887
0.00564447
-0.00548591
0.00363444
-0.00565891
0.00160539
-0.00575156
-0.000414175
-0.00575914
-0.00239772
-0.00567865
-0.0043205
-0.00550891
-0.00615963
-0.00525059
-0.00789418
-0.00490619
-0.00950521
-0.00448003
-0.0109758
-0.00397815
-0.0122911
-0.00340828
-0.0134382
-0.00277964
-0.0144062
-0.00210276
-0.0151859
-0.00138922
-0.0157703
-0.00065139
-0.0161539
-0.0163331
0.000620553
-0.0168549
0.00115741
-0.0166105
0.00167234
-0.0161523
0.00215568
-0.0154849
0.00259854
-0.014615
0.00299301
-0.0135511
0.00333232
-0.012304
0.00361104
-0.0108863
0.00382519
-0.00931311
0.00397231
-0.00760117
0.00405149
-0.00576953
0.00406343
-0.00383923
0.00401042
-0.00183331
0.00389629
0.000223351
0.00372632
0.00230411
0.00350714
0.00438054
0.00324648
0.00642247
0.00295288
0.00839811
0.00263525
0.0102741
0.00230235
0.0120157
0.0019621
0.0135869
0.00162096
0.0149517
0.00128338
0.016075
0.000951521
0.0169245
0.000625384
0.0174737
0.000303326
0.0177042
-1.71582e-05
0.0176078
-0.000338463
0.0171882
-0.000661898
0.0164599
-0.000986995
0.0154472
-0.00131115
0.0141812
-0.00162968
0.0126974
-0.00193617
0.0110331
-0.00222312
0.00922554
-0.00248252
0.00731131
-0.00270653
0.00532538
-0.00288791
0.00330096
-0.00302037
0.00126944
-0.00309885
-0.000739707
-0.00311963
-0.00269897
-0.00308047
-0.00458274
-0.00298065
-0.00636744
-0.00282101
-0.0080316
-0.00260386
-0.00955591
-0.00233299
-0.0109233
-0.00201349
-0.0121187
-0.00165168
-0.0131294
-0.00125493
-0.0139449
-0.000831517
-0.0145567
-0.000390377
-0.0149586
5.90952e-05
-0.0151462
0.000507303
-0.0151178
0.00094468
-0.0148737
0.00136193
-0.0144163
0.00175027
-0.0137503
0.00210164
-0.0128827
0.00240893
-0.0118224
0.00266614
-0.0105806
0.0028685
-0.00917064
0.00301262
-0.00760801
0.00309656
-0.00591041
0.00311989
-0.00409771
0.00308374
-0.00219193
0.00299073
-0.000217187
0.00284494
0.00180037
0.00265177
0.00383275
0.00241776
0.00584998
0.00215037
0.0078202
0.00185754
0.00970971
0.00154719
0.0114831
0.00122661
0.0131036
0.000901803
0.0145338
0.000576949
0.0157366
0.000254077
0.0166776
-6.68544e-05
0.0173271
-0.000387515
0.0176632
-0.000710426
0.017674
-0.00103795
0.0173591
-0.00137138
0.0167294
-0.00171017
0.0158057
-0.00205155
0.0146164
-0.00239053
0.0131945
-0.0027202
0.0115755
-0.00303236
0.00979578
-0.00331816
0.00789081
-0.00356874
0.00589504
-0.00377574
0.00384144
-0.00393169
0.00176135
-0.0040303
-0.000315565
-0.00406664
-0.00236138
-0.00403728
-0.00434986
-0.00394035
-0.00625656
-0.00377557
-0.00805895
-0.00354427
-0.00973652
-0.0032493
-0.0112708
-0.00289503
-0.0126454
-0.00248725
-0.013846
-0.00203303
-0.0148604
-0.00154058
-0.0156784
-0.001019
-0.0162919
-0.000478089
-0.0166948
-0.0168831
0.000397497
-0.0172062
0.000740172
-0.0169531
0.00106677
-0.0164789
0.00137029
-0.0157885
0.00164437
-0.0148891
0.00188345
-0.0137902
0.00208295
-0.0125034
0.00223936
-0.0110428
0.00235037
-0.00942412
0.00241492
-0.00766572
0.00243323
-0.00578784
0.00240682
-0.00381282
0.00233848
-0.00176497
0.00223227
0.000329568
0.00209337
0.00244301
0.00192803
0.00454588
0.00174328
0.00660721
0.00154669
0.0085947
0.00134592
0.0104749
0.0011482
0.0122134
0.000959651
0.0137755
0.000784682
0.0151267
0.000625346
0.0162343
0.000481034
0.0170688
0.000348556
0.0176062
0.000222702
0.01783
9.72243e-05
0.0177333
-3.39385e-05
0.0173193
-0.000175471
0.0166014
-0.000329842
0.0156015
-0.000496936
0.0143483
-0.000674156
0.0128747
-0.000856873
0.0112158
-0.00103906
0.00940772
-0.00121395
0.0074862
-0.00137464
0.00548606
-0.00151454
0.00344085
-0.00162774
0.00138264
-0.00170926
-0.000658187
-0.00175518
-0.00265305
-0.00176275
-0.00457517
-0.00173044
-0.00639975
-0.00165796
-0.00810408
-0.00154622
-0.00966764
-0.00139733
-0.0110721
-0.00121446
-0.0123016
-0.00100178
-0.0133421
-0.000764343
-0.0141824
-0.000507919
-0.0148132
-0.000238838
-0.0152276
3.62035e-05
-0.0154213
0.000310339
-0.015392
0.000576728
-0.0151401
0.000828752
-0.0146683
0.00106021
-0.0139818
0.00126551
-0.013088
0.00143982
-0.0119967
0.00157921
-0.01072
0.00168079
-0.00927222
0.00174277
-0.00766999
0.00176455
-0.00593219
0.00174674
-0.0040799
0.0016912
-0.00213639
0.00160099
-0.000126972
0.00148029
0.00192107
0.00133436
0.00397869
0.0011693
0.00601504
0.000991813
0.00799768
0.000808831
0.00989269
0.000626986
0.011665
0.000452003
0.0132786
0.00028804
0.0146978
0.000137078
0.0158876
-1.44897e-06
0.0168161
-0.000130641
0.0174563
-0.000255636
0.0177882
-0.000382666
0.017801
-0.000517817
0.0174942
-0.000665848