/*--------------------------------*- C++ -*----------------------------------*\
| =========                 |                                                 |
| \\      /  F ield         | OpenFOAM: The Open Source CFD Toolbox           |
|  \\    /   O peration     | Version:  2.3.0                                 |
|   \\  /    A nd           | Web:      www.OpenFOAM.org                      |
|    \\/     M anipulation  |                                                 |
\*---------------------------------------------------------------------------*/
FoamFile
{
    version     2.0;
    format      ascii;
    class       surfaceScalarField;
    location    "3000";
    object      phi;
}
// * * * * * * * * * * * * * * * * * * * * * * * * * * * * * * * * * * * * * //

dimensions      [0 3 -1 0 0 0 0];

internalField   nonuniform List<scalar> 
1464
(
0.343834
-0.0182657
0.370558
-0.0267242
0.400001
-0.0294429
0.419851
-0.0198502
0.41143
0.00842134
0.352707
0.0587228
0.225923
0.126784
0.0343439
0.191579
-0.167081
0.201425
-0.307433
0.140352
-0.376371
0.0689385
-0.391347
0.0149758
-0.375793
-0.0155546
-0.349358
-0.0264348
-0.32501
-0.0243475
-0.308659
-0.0163512
-0.301403
-0.00725557
-0.301881
0.0004779
-0.307949
0.00606726
-0.317711
0.00976217
-0.330059
0.0123488
-0.344544
0.0144848
-0.361201
0.0166562
-0.380501
0.0193
-0.403393
0.0228923
-0.431145
0.0277528
-0.464273
0.0331275
-0.499212
0.0349386
-0.520133
0.0209217
-0.496605
-0.0235288
-0.412858
-0.0837467
-0.291483
-0.121374
-0.143071
-0.148412
0.0106523
-0.153723
0.160928
-0.150276
0.302867
-0.141939
0.419745
-0.116878
0.50277
-0.0830251
0.535645
-0.0328754
0.518205
0.0174407
0.480211
0.0379936
0.442462
0.037749
0.41093
0.0315325
0.385568
0.0253612
0.364916
0.020653
0.347794
0.0171217
0.333737
0.0140566
0.323043
0.0106939
0.316805
0.00623822
0.316962
-0.000156409
-0.00860638
0.604295
-0.0438336
0.633509
-0.0559382
0.658423
-0.0543579
0.664528
-0.0259545
0.629812
0.0431374
0.526456
0.162078
0.330132
0.323108
0.0451693
0.476542
-0.252183
0.498777
-0.467417
0.355586
-0.585369
0.18689
-0.629421
0.0590276
-0.629071
-0.0159043
-0.608115
-0.0473911
-0.582066
-0.0503963
-0.559312
-0.0391051
-0.543178
-0.0233896
-0.533963
-0.00873725
-0.530484
0.00258812
-0.530883
0.0101613
-0.533177
0.0146432
-0.535518
0.0168249
-0.53605
0.0171882
-0.532703
0.015953
-0.523014
0.0132039
-0.504002
0.00874085
-0.472166
0.00129102
-0.423727
-0.0135006
-0.355143
-0.0476624
-0.268508
-0.110163
-0.179844
-0.172411
-0.105008
-0.196211
-0.0447109
-0.208709
0.0153841
-0.213818
0.0762888
-0.211181
0.136208
-0.201858
0.20548
-0.18615
0.285131
-0.162677
0.365103
-0.112847
0.430899
-0.048356
0.477596
-0.00870337
0.508161
0.00718411
0.526442
0.0132515
0.536003
0.0158006
0.539908
0.0167482
0.540767
0.0162629
0.540937
0.0138867
0.542718
0.00891302
0.548413
0.000543179
0.560005
-0.0117489
-0.0273278
0.630536
-0.0650351
0.649592
-0.0749945
0.659631
-0.0643969
0.649217
-0.0155409
0.600951
0.0914039
0.492386
0.270643
0.302145
0.513349
0.0341361
0.74455
-0.242714
0.775628
-0.447439
0.560311
-0.567223
0.306674
-0.622646
0.114451
-0.637525
-0.00102501
-0.630701
-0.0542158
-0.614328
-0.0667686
-0.595647
-0.0577868
-0.578404
-0.0406319
-0.564077
-0.0230645
-0.552744
-0.00874521
-0.543635
0.00105265
-0.535261
0.00626942
-0.525621
0.00718474
-0.512252
0.00381841
-0.492163
-0.00413527
-0.461902
-0.0170571
-0.418124
-0.0350374
-0.359093
-0.0577399
-0.287597
-0.0849963
-0.216104
-0.119156
-0.161051
-0.165216
-0.120187
-0.213275
-0.0761224
-0.240276
-0.0303868
-0.254445
0.0160407
-0.260246
0.062807
-0.257947
0.108915
-0.247965
0.15311
-0.230345
0.192478
-0.202045
0.236086
-0.156455
0.296047
-0.108317
0.362065
-0.0747213
0.419552
-0.0503027
0.463557
-0.0307539
0.494897
-0.0155394
0.516692
-0.00504687
0.532483
0.000472182
0.545436
0.000933781
0.558137
-0.00378821
0.572507
-0.0138267
0.589544
-0.0287854
-0.0471179
0.549389
-0.0755556
0.554051
-0.0796571
0.547813
-0.058159
0.52308
0.0091922
0.469044
0.14544
0.372184
0.367503
0.219837
0.665695
0.017222
0.947166
-0.188618
0.981467
-0.347249
0.718942
-0.44919
0.408616
-0.506563
0.171824
-0.533524
0.0259365
-0.541494
-0.0462462
-0.538374
-0.0698883
-0.529378
-0.066783
-0.517795
-0.0522151
-0.505562
-0.0352973
-0.493623
-0.0206838
-0.482153
-0.0104176
-0.470584
-0.00529933
-0.457564
-0.00583526
-0.441002
-0.0127434
-0.418083
-0.0270545
-0.385473
-0.0496673
-0.340169
-0.0803418
-0.281488
-0.116421
-0.214333
-0.152151
-0.153096
-0.180393
-0.111185
-0.207127
-0.0818859
-0.242574
-0.0522114
-0.26995
-0.0194739
-0.287182
0.0152918
-0.295012
0.0503361
-0.292991
0.0837303
-0.28136
0.114052
-0.260667
0.142265
-0.230258
0.176029
-0.190219
0.228367
-0.160655
0.290322
-0.136676
0.346688
-0.106669
0.391351
-0.0754164
0.424424
-0.0486128
0.448638
-0.0292612
0.467198
-0.0180875
0.48279
-0.0146585
0.497257
-0.0182547
0.511515
-0.0280851
0.525644
-0.042914
-0.0603422
0.414711
-0.0734201
0.405278
-0.0702239
0.385551
-0.0384317
0.351673
0.0430702
0.299138
0.197976
0.223268
0.443373
0.121629
0.767334
0.0016522
1.06714
-0.11656
1.09968
-0.216822
0.819205
-0.292175
0.483968
-0.344624
0.224273
-0.378643
0.0599548
-0.398599
-0.0262893
-0.408295
-0.0601927
-0.410727
-0.0643507
-0.408221
-0.0547219
-0.402551
-0.040967
-0.394989
-0.028246
-0.386288
-0.0191179
-0.376605
-0.0149828
-0.365388
-0.0170522
-0.351282
-0.0268492
-0.332106
-0.0462306
-0.30506
-0.0767133
-0.267507
-0.117895
-0.218766
-0.165161
-0.162769
-0.208148
-0.110182
-0.23298
-0.0750196
-0.242289
-0.0523795
-0.265214
-0.0316615
-0.290668
-0.00956078
-0.309283
0.0139028
-0.318475
0.0375047
-0.316593
0.0599102
-0.303765
0.0808119
-0.281568
0.102753
-0.2522
0.134759
-0.222225
0.183575
-0.209471
0.236345
-0.189446
0.282165
-0.152489
0.317584
-0.110836
0.34349
-0.0745183
0.362446
-0.0482168
0.376986
-0.0326278
0.388908
-0.0265804
0.399105
-0.0284517
0.407644
-0.0366239
0.413937
-0.0492068
-0.0632525
0.246543
-0.0604588
0.226871
-0.0505518
0.19946
-0.0110203
0.163832
0.0786983
0.120538
0.241269
0.0723371
0.491573
0.0260445
0.813627
-0.00967348
1.10286
-0.0407085
1.13071
-0.080448
0.858944
-0.124326
0.527845
-0.165304
0.265252
-0.199744
0.094395
-0.226459
0.00042504
-0.245518
-0.0411332
-0.257822
-0.0520471
-0.264484
-0.0480596
-0.266665
-0.0387856
-0.265467
-0.0294445
-0.261823
-0.0227614
-0.256358
-0.0204478
-0.249212
-0.0241986
-0.239861
-0.0361999
-0.227015
-0.0590772
-0.208716
-0.095012
-0.182911
-0.1437
-0.148796
-0.199277
-0.108684
-0.248259
-0.069119
-0.272545
-0.0425837
-0.268825
-0.026952
-0.280846
-0.0144147
-0.303205
-0.00157033
-0.322127
0.0121153
-0.332161
0.0258114
-0.330289
0.03866
-0.316614
0.0512165
-0.294125
0.0669326
-0.267916
0.0948985
-0.250191
0.135409
-0.249982
0.173747
-0.227783
0.204339
-0.183081
0.226397
-0.132894
0.241618
-0.0897397
0.252235
-0.0588341
0.259918
-0.0403105
0.265468
-0.0321301
0.268893
-0.0318772
0.269641
-0.0373715
0.266847
-0.0464132
-0.0559098
0.0618216
-0.0407023
0.0372065
-0.0259366
0.00839759
0.0177886
-0.0223257
0.109422
-0.0502666
0.26921
-0.0665039
0.507811
-0.0575167
0.80464
-0.0162332
1.06158
0.0306917
1.08379
0.0486157
0.84102
0.0386924
0.537769
0.0142644
0.28968
-0.0145857
0.123245
-0.042207
0.0280463
-0.0657641
-0.0175761
-0.0843228
-0.0334885
-0.097857
-0.0345254
-0.106767
-0.0298755
-0.111704
-0.0245081
-0.113463
-0.0210021
-0.112845
-0.0210654
-0.110452
-0.0265918
-0.106456
-0.0401956
-0.10046
-0.0650731
-0.0915489
-0.103924
-0.0786764
-0.156572
-0.0615143
-0.216439
-0.0413781
-0.268395
-0.0215433
-0.29238
-0.00947931
-0.280889
-0.00359631
-0.286729
0.000563448
-0.307365
0.00509566
-0.326659
0.0102439
-0.337309
0.0153228
-0.335368
0.0196882
-0.320979
0.0239882
-0.298425
0.0313752
-0.275303
0.0475252
-0.266341
0.0704908
-0.272948
0.0897831
-0.247076
0.103281
-0.196579
0.111411
-0.141023
0.115749
-0.0940774
0.117751
-0.0608364
0.118158
-0.0407171
0.116933
-0.0309059
0.113473
-0.0284172
0.106928
-0.030826
0.0964963
-0.0359817
-0.0409916
-0.120455
-0.0180013
-0.145951
-0.000441256
-0.171851
0.0436887
-0.193387
0.130958
-0.201977
0.277801
-0.184166
0.489999
-0.123884
0.744358
-0.0186074
0.956301
0.0921361
0.973046
0.161442
0.771714
0.186011
0.5132
0.181441
0.294249
0.162245
0.142441
0.137997
0.0522952
0.113976
0.00644454
0.0928534
-0.0123661
0.0756719
-0.0173439
0.0626456
-0.0168492
0.05353
-0.0153925
0.0477463
-0.0152184
0.0444809
-0.0178
0.0428767
-0.0249877
0.0422619
-0.0395808
0.0422262
-0.0650375
0.0424922
-0.10419
0.0426384
-0.156718
0.0417993
-0.2156
0.0390251
-0.265621
0.0340338
-0.287389
0.026704
-0.273559
0.0194971
-0.279522
0.0147189
-0.302587
0.0113053
-0.323246
0.00848909
-0.334493
0.00557102
-0.33245
0.00190507
-0.317313
-0.00283855
-0.293681
-0.00851265
-0.269629
-0.0113935
-0.26346
-0.0125598
-0.271781
-0.0150107
-0.244625
-0.0185267
-0.193063
-0.0227988
-0.136751
-0.0274454
-0.0894308
-0.0322893
-0.0559924
-0.0375564
-0.0354501
-0.0439081
-0.0245541
-0.0523095
-0.0200159
-0.0637136
-0.0194219
-0.0787754
-0.0209199
-0.0220126
-0.282946
0.00509648
-0.306942
0.0235541
-0.327574
0.0643207
-0.337463
0.140846
-0.324901
0.265239
-0.274296
0.439394
-0.170871
0.640934
-0.0176746
0.803105
0.140259
0.815113
0.25154
0.660433
0.308383
0.456356
0.325034
0.277599
0.317879
0.149596
0.299421
0.070753
0.277456
0.0284091
0.256397
0.00869326
0.23834
0.000712895
0.224035
-0.00254398
0.213479
-0.00483628
0.206162
-0.00790154
0.201164
-0.0128025
0.197347
-0.0211711
0.19359
-0.0358232
0.188726
-0.060174
0.181264
-0.0967269
0.169204
-0.144658
0.15024
-0.196636
0.123431
-0.238812
0.0913067
-0.255265
0.0629976
-0.24525
0.0432299
-0.259754
0.0295488
-0.288906
0.0179739
-0.311671
0.00687054
-0.323389
-0.00431745
-0.321262
-0.0161478
-0.305483
-0.0302956
-0.279533
-0.0512254
-0.248699
-0.0768397
-0.237846
-0.104598
-0.244023
-0.129102
-0.220121
-0.148365
-0.1738
-0.162915
-0.122201
-0.174061
-0.0782851
-0.183125
-0.0469285
-0.191308
-0.0272664
-0.199836
-0.0160267
-0.210042
-0.0098096
-0.223094
-0.00637023
-0.239667
-0.00434691
-0.00183047
-0.409147
0.0265989
-0.429814
0.0442212
-0.443768
0.0782747
-0.441434
0.138512
-0.40927
0.233075
-0.331699
0.361823
-0.197343
0.506578
-0.0141162
0.619877
0.173013
0.627984
0.313788
0.519657
0.396793
0.373351
0.432937
0.241455
0.438323
0.14421
0.427027
0.0820485
0.408885
0.0465517
0.389829
0.0277489
0.372945
0.0175967
0.35951
0.0108908
0.349723
0.00495139
0.343047
-0.00122569
0.338289
-0.0080447
0.333844
-0.0167256
0.328043
-0.030023
0.318991
-0.0511218
0.304183
-0.0819184
0.280569
-0.121044
0.24497
-0.161037
0.196393
-0.190236
0.140371
-0.199243
0.0954605
-0.200339
0.0684201
-0.232714
0.0465678
-0.267054
0.0259129
-0.291016
0.00523621
-0.302713
-0.015458
-0.300568
-0.0362164
-0.284725
-0.0588942
-0.256856
-0.0888079
-0.218785
-0.133697
-0.192957
-0.186453
-0.191267
-0.231097
-0.175477
-0.264234
-0.140663
-0.287438
-0.0989971
-0.30335
-0.0623733
-0.314574
-0.035704
-0.323265
-0.0185751
-0.331298
-0.00799377
-0.34058
-0.000527994
-0.352689
0.0057384
-0.368407
0.0113713
0.0174068
-0.480179
0.0442004
-0.4956
0.0596417
-0.502131
0.0848061
-0.489274
0.125656
-0.443206
0.187007
-0.349725
0.268342
-0.201051
0.357904
-0.00802339
0.42685
0.188234
0.431726
0.342226
0.365666
0.44054
0.275037
0.490512
0.191484
0.506628
0.128094
0.503024
0.0856527
0.490323
0.0592518
0.475227
0.0428458
0.461323
0.0315004
0.450162
0.0220515
0.442097
0.0130168
0.436649
0.00422159
0.432429
-0.00382395
0.427396
-0.0116931
0.419436
-0.0220634
0.40609
-0.0377756
0.384245
-0.0600727
0.350697
-0.087497
0.302544
-0.112884
0.239471
-0.127162
0.1747
-0.134471
0.129357
-0.154997
0.0976461
-0.201003
0.067191
-0.236598
0.0357054
-0.25953
0.00348231
-0.27049
-0.0286152
-0.268471
-0.0597901
-0.25355
-0.0901359
-0.22651
-0.121916
-0.187005
-0.170853
-0.14402
-0.237197
-0.124923
-0.295552
-0.117122
-0.338875
-0.0973401
-0.368923
-0.0689487
-0.38859
-0.0427065
-0.401164
-0.0231299
-0.40955
-0.0101887
-0.416178
-0.00136652
-0.423475
0.00676877
-0.43331
0.0155735
-0.446434
0.0244957
0.0335504
-0.474933
0.0545117
-0.482245
0.0669533
-0.480614
0.0831755
-0.460647
0.105688
-0.410154
0.136514
-0.317205
0.175392
-0.176464
0.217164
0.00133526
0.24905
0.181905
0.251157
0.327276
0.220294
0.424671
0.177643
0.478885
0.137269
0.501938
0.105041
0.506188
0.0814023
0.501115
0.064325
0.492678
0.0512826
0.48398
0.0401986
0.476282
0.0297502
0.469872
0.0194266
0.464478
0.0096156
0.459076
0.00157807
0.451934
-0.00455154
0.441039
-0.0111682
0.423603
-0.0203401
0.396268
-0.0327374
0.35695
-0.0481781
0.306774
-0.0627088
0.250966
-0.0713537
0.202947
-0.0864526
0.169198
-0.121248
0.132184
-0.163988
0.091005
-0.19542
0.046973
-0.215498
0.00159136
-0.225108
-0.0434949
-0.223384
-0.0866627
-0.210382
-0.12633
-0.186842
-0.161769
-0.151567
-0.198938
-0.106851
-0.248923
-0.074938
-0.30239
-0.0636553
-0.347823
-0.0519068
-0.381403
-0.0353686
-0.403479
-0.0206304
-0.417156
-0.00945311
-0.425859
-0.00148614
-0.432212
0.00498702
-0.438304
0.0128602
-0.445555
0.0228247
-0.454412
0.0333531
0.0437598
-0.385069
0.0520875
-0.378959
0.0608441
-0.365903
0.0701195
-0.34029
0.0800744
-0.294458
0.0906827
-0.220606
0.101541
-0.115032
0.11159
0.0154722
0.118546
0.148026
0.118603
0.257043
0.111277
0.334122
0.100563
0.382389
0.0890023
0.409642
0.0777887
0.423686
0.0673577
0.430276
0.0577347
0.432796
0.0487626
0.432777
0.0402185
0.430648
0.0318788
0.426487
0.0235874
0.420591
0.015512
0.413651
0.00851778
0.406157
0.00294228
0.397302
-0.00231337
0.384889
-0.00792716
0.366123
-0.0139707
0.33865
-0.020705
0.305047
-0.0291061
0.27426
-0.040567
0.24658
-0.0587728
0.212313
-0.0869806
0.166932
-0.118607
0.114484
-0.142972
0.0580034
-0.159018
-0.000350283
-0.166754
-0.0582975
-0.165437
-0.113578
-0.155102
-0.163991
-0.136429
-0.20632
-0.109237
-0.237381
-0.0757902
-0.262963
-0.0493557
-0.293581
-0.0330371
-0.32339
-0.0220983
-0.344694
-0.014064
-0.357919
-0.00740599
-0.366042
-0.00132964
-0.371943
0.00441478
-0.377378
0.0104219
-0.382301
0.0177834
-0.385884
0.026407
-0.387649
0.035118
0.0436041
-0.283022
0.0288809
-0.255371
0.033193
-0.222905
0.0376538
-0.185032
0.0422005
-0.140987
0.0466386
-0.0900594
0.0506125
-0.0321126
0.053643
0.0311559
0.0552774
0.0945235
0.055235
0.152281
0.0535197
0.202485
0.0503599
0.24526
0.0462266
0.281417
0.0416327
0.311818
0.0369566
0.337147
0.0324057
0.357857
0.028052
0.374194
0.0238817
0.386236
0.0198368
0.393953
0.0158702
0.39738
0.0120852
0.397061
0.00883649
0.39388
0.00612351
0.388112
0.00345462
0.379493
0.000691569
0.367674
-0.00215158
0.352338
-0.00536897
0.333231
-0.00999837
0.31041
-0.0177466
0.28228
-0.0306423
0.243728
-0.0484291
0.192628
-0.0675077
0.132437
-0.0827805
0.0665655
-0.0931463
-0.00196428
-0.0982245
-0.069951
-0.0974503
-0.134203
-0.0908501
-0.19166
-0.0789714
-0.238734
-0.0621631
-0.272353
-0.0421713
-0.296495
-0.0252142
-0.31581
-0.0137223
-0.330962
-0.00694577
-0.342212
-0.00281458
-0.349968
0.000350149
-0.3546
0.00330228
-0.356385
0.00620031
-0.355081
0.00911764
-0.349738
0.0124408
-0.33972
0.0163891
-0.325143
0.0205408
0.0246897
-0.266783
-0.237533
-0.203485
-0.164495
-0.120614
-0.0722799
-0.0204829
0.0331688
0.0866018
0.137741
0.184955
0.227267
0.264297
0.296069
0.322808
0.344802
0.36231
0.375531
0.384626
0.389863
0.391833
0.391137
0.387951
0.382371
0.374583
0.364613
0.35174
0.333855
0.30699
0.267012
0.212681
0.146957
0.0736817
-0.00319384
-0.0793776
-0.150586
-0.21284
-0.262238
-0.29638
-0.317932
-0.33146
-0.340505
-0.346783
-0.350706
-0.352136
-0.350874
-0.346709
-0.339143
-0.327542
-0.311659
)
;

boundaryField
{
    top
    {
        type            calculated;
        value           nonuniform List<scalar> 
51
(
0.00422812
0.00394298
0.00360598
0.0032103
0.00275796
0.00227804
0.00184608
0.00162567
0.00180192
0.00238059
0.00314594
0.00391407
0.00460278
0.00518534
0.00566596
0.00605823
0.00637377
0.00661553
0.00677563
0.00684855
0.00686588
0.00682015
0.00664065
0.00627104
0.0056362
0.00460105
0.00287494
0.000138751
-0.00377807
-0.00845058
-0.0131769
-0.017056
-0.0198714
-0.0213489
-0.0212666
-0.0196414
-0.0167176
-0.0127651
-0.00802971
-0.00366218
-0.00019362
0.00209848
0.00346337
0.00427375
0.00473238
0.00493812
0.00495286
0.00487423
0.0047889
0.00465691
0.00446696
)
;
    }
    bottom
    {
        type            calculated;
        value           uniform 0;
    }
    frontAndBack
    {
        type            empty;
        value           nonuniform 0();
    }
    left_cyc
    {
        type            cyclic;
        value           nonuniform List<scalar> 
15
(
-0.325568
-0.578727
-0.609334
-0.538868
-0.416847
-0.259504
-0.081578
0.0977545
0.259849
0.387644
0.462578
0.464622
0.387493
0.306229
0.291436
)
;
    }
    right_cyc
    {
        type            cyclic;
        value           nonuniform List<scalar> 
15
(
0.325568
0.578727
0.609334
0.538868
0.416847
0.259504
0.081578
-0.0977545
-0.259849
-0.387644
-0.462578
-0.464622
-0.387493
-0.306229
-0.291436
)
;
    }
}


// ************************************************************************* //
