/*--------------------------------*- C++ -*----------------------------------*\
| =========                 |                                                 |
| \\      /  F ield         | OpenFOAM: The Open Source CFD Toolbox           |
|  \\    /   O peration     | Version:  2.3.0                                 |
|   \\  /    A nd           | Web:      www.OpenFOAM.org                      |
|    \\/     M anipulation  |                                                 |
\*---------------------------------------------------------------------------*/
FoamFile
{
    version     2.0;
    format      ascii;
    class       surfaceScalarField;
    location    "3000";
    object      phi;
}
// * * * * * * * * * * * * * * * * * * * * * * * * * * * * * * * * * * * * * //

dimensions      [0 3 -1 0 0 0 0];

internalField   nonuniform List<scalar> 
5988
(
0.00151206
-0.00132618
0.00282087
-0.00130881
0.00409731
-0.00127645
0.00532594
-0.00122863
0.00649023
-0.00116429
0.00757187
-0.00108164
0.00855041
-0.000978547
0.00940396
-0.000853546
0.0101112
-0.000707243
0.0106541
-0.000542907
0.0110192
-0.000365039
0.0111965
-0.000177333
0.01118
1.65135e-05
0.0109706
0.000209424
0.0105797
0.000390851
0.0100277
0.000552041
0.00933944
0.000688224
0.00854251
0.000796936
0.00766428
0.000878223
0.00672948
0.000934807
0.00575839
0.000971088
0.0047663
0.000992095
0.00376381
0.00100248
0.00275792
0.0010059
0.00175314
0.00100478
0.000752668
0.00100047
-0.000240829
0.000993497
-0.00122466
0.000983828
-0.0021957
0.000971049
-0.00314994
0.000954233
-0.00408168
0.000931746
-0.00498275
0.000901074
-0.00584159
0.000858835
-0.00664267
0.000801084
-0.00736662
0.000723949
-0.00799111
0.000624494
-0.0084926
0.000501487
-0.00884862
0.000356027
-0.00903991
0.000191286
-0.0090522
1.22897e-05
-0.00887913
-0.000173071
-0.00852393
-0.000355196
-0.00799786
-0.000526076
-0.00731668
-0.000681183
-0.00649828
-0.0008184
-0.00556191
-0.000936363
-0.00452796
-0.00103396
-0.00341733
-0.00111063
-0.00225075
-0.00116658
-0.00104826
-0.00120249
0.000170721
-0.00121898
0.00138701
-0.00121629
0.0025814
-0.00119439
0.00373434
-0.00115294
0.00482558
-0.00109124
0.00583427
-0.00100869
0.00673958
-0.000905312
0.00752142
-0.000781837
0.00816089
-0.000639469
0.00864056
-0.000479673
0.0089456
-0.000305047
0.00906669
-0.000121085
0.00900326
6.34239e-05
0.00876421
0.000239053
0.00836541
0.000398796
0.00782721
0.000538209
0.00717259
0.000654617
0.00642498
0.000747607
0.00560603
0.00081896
0.00473407
0.000871959
0.00382349
0.000910578
0.00288484
0.000938653
0.0019255
0.000959338
0.000950611
0.000974892
-3.61203e-05
0.000986732
-0.00103174
0.000995618
-0.0020336
0.00100186
-0.00303895
0.00100536
-0.00404433
0.00100538
-0.00504464
0.00100031
-0.006032
0.000987362
-0.00699458
0.000962582
-0.0079157
0.000921123
-0.00877373
0.00085803
-0.009543
0.000769267
-0.0101958
0.000652785
-0.0107051
0.000509324
-0.011047
0.000341908
-0.0112033
0.000156268
-0.0111654
-3.78608e-05
-0.0109349
-0.000230491
-0.0105192
-0.000415747
-0.00992893
-0.000590244
-0.00917895
-0.000749978
-0.0082884
-0.000890553
-0.00727901
-0.00100939
-0.00617242
-0.00110659
-0.00498847
-0.00118395
-0.00374489
-0.00124358
-0.00245781
-0.00128708
-0.00114253
-0.00131529
-0.00132841
0.00262866
-0.00363196
0.00491215
-0.00359229
0.00715363
-0.00351793
0.00933274
-0.00340774
0.0114277
-0.00325929
0.0134145
-0.00306837
0.0152652
-0.00282928
0.0169479
-0.00253626
0.0184271
-0.00218644
0.0196661
-0.0017819
0.0206293
-0.00132823
0.0212829
-0.000830949
0.0215967
-0.000297207
0.0215497
0.000256331
0.0211384
0.000802223
0.0203762
0.00131424
0.0192906
0.00177383
0.0179203
0.00216722
0.0163111
0.00248745
0.0145101
0.00273579
0.0125616
0.00291952
0.0105044
0.00304928
0.00837078
0.00313616
0.00618713
0.00318955
0.00397572
0.00321618
0.0017561
0.00322009
-0.000453532
0.00320312
-0.00263521
0.00316551
-0.00477045
0.00310628
-0.00683925
0.00302304
-0.00881905
0.00291155
-0.0106835
0.00276552
-0.0124016
0.00257695
-0.0139378
0.00233728
-0.0152532
0.00203934
-0.0163084
0.00167973
-0.0170676
0.00126069
-0.0175028
0.000791197
-0.0175972
0.000285632
-0.0173468
-0.00023808
-0.0167624
-0.000757491
-0.0158686
-0.00124894
-0.0146998
-0.0016949
-0.0132937
-0.00208733
-0.0116876
-0.00242442
-0.00991761
-0.0027064
-0.00801738
-0.00293419
-0.00601828
-0.00310973
-0.00394887
-0.00323599
-0.00183516
-0.0033162
0.000298646
-0.00335279
0.00242918
-0.00334683
0.00453295
-0.00329816
0.00658533
-0.00320532
0.00855968
-0.00306558
0.0104266
-0.00287566
0.0121542
-0.00263284
0.0137078
-0.00233551
0.0150513
-0.00198293
0.0161468
-0.00157518
0.0169571
-0.00111532
0.0174499
-0.000613915
0.0176042
-9.08861e-05
0.0174135
0.000429753
0.0168855
0.000926801
0.0160403
0.0013834
0.0149086
0.00178638
0.0135275
0.00212864
0.0119368
0.00240971
0.0101745
0.00263423
0.00827505
0.00281002
0.00626808
0.00294563
0.00417875
0.00304866
0.0020288
0.00312484
-0.000162308
0.00317784
-0.00237632
0.00320963
-0.0045953
0.00322084
-0.00680078
0.00321083
-0.00897262
0.00317723
-0.0110876
0.00311527
-0.0131177
0.00301745
-0.0150289
0.00287376
-0.0167807
0.00267297
-0.0183278
0.00240509
-0.0196228
0.00206428
-0.0206214
0.00165141
-0.0212878
0.00117571
-0.0215981
0.000652219
-0.0215432
0.000101322
-0.0211319
-0.00044908
-0.0203887
-0.000973726
-0.0193451
-0.00145932
-0.0180355
-0.00189983
-0.016496
-0.00228956
-0.014763
-0.00262351
-0.0128714
-0.00290102
-0.0108519
-0.00312608
-0.00873117
-0.00330468
-0.00653256
-0.00344219
-0.00427733
-0.0035423
-0.00198564
-0.00360698
-0.00363693
0.00255548
-0.00587365
0.00477944
-0.00581625
0.00697006
-0.00570855
0.00911227
-0.00554995
0.0111919
-0.00533888
0.0131956
-0.00507212
0.0151106
-0.00474425
0.016922
-0.00434765
0.0186093
-0.00387378
0.0201425
-0.0033151
0.02148
-0.00266576
0.0225706
-0.0019215
0.0233574
-0.00108403
0.0237855
-0.000171735
0.0238113
0.000776425
0.0234104
0.0017151
0.0225799
0.0026044
0.0213388
0.00340825
0.0197252
0.00410108
0.0177886
0.00467236
0.0155839
0.00512422
0.0131655
0.00546767
0.0105844
0.00571729
0.00788711
0.00588684
0.00511643
0.00598686
0.00231248
0.00602405
-0.000486146
0.00600175
-0.00324143
0.00592079
-0.00591526
0.00578012
-0.00846864
0.00557642
-0.0108608
0.00530375
-0.0130488
0.00495345
-0.014987
0.00451521
-0.0166294
0.00397959
-0.0179318
0.00334175
-0.0188575
0.00260551
-0.0193824
0.00178558
-0.0194995
0.000908305
-0.0192216
7.65361e-06
-0.018579
-0.00088068
-0.0176156
-0.00172087
-0.0163831
-0.00248141
-0.0149339
-0.00314414
-0.013315
-0.00370624
-0.0115659
-0.00417352
-0.00971815
-0.00455411
-0.0077964
-0.00485594
-0.00581987
-0.00508626
-0.00380448
-0.00525138
-0.00176442
-0.00535626
0.000286907
-0.00540412
0.00233639
-0.00539631
0.00437088
-0.00533264
0.0063768
-0.00521125
0.00833963
-0.0050284
0.0102427
-0.00477872
0.0120654
-0.00445559
0.0137815
-0.00405156
0.0153571
-0.00355856
0.0167506
-0.00296869
0.0179131
-0.00227776
0.0187916
-0.00149244
0.019336
-0.000635313
0.0195058
0.000259999
0.019275
0.00115755
0.0186365
0.00202192
0.0176024
0.0028205
0.0162009
0.00353011
0.0144714
0.00413924
0.0124588
0.0046468
0.0102095
0.00505935
0.00776823
0.0053869
0.00517741
0.00563948
0.0024772
0.00582505
-0.000293733
0.00594878
-0.00309739
0.00601329
-0.00589569
0.00601913
-0.00864969
0.00596484
-0.0113187
0.00584622
-0.0138589
0.00565553
-0.0162227
0.00538119
-0.0183578
0.00500888
-0.0202094
0.00452453
-0.0217234
0.0039191
-0.0228528
0.00319368
-0.0235643
0.00236292
-0.0238447
0.00145617
-0.0237033
0.000510788
-0.02317
-0.000431928
-0.0222927
-0.00132643
-0.0211277
-0.00213875
-0.0197308
-0.00285622
-0.0181509
-0.00347969
-0.0164265
-0.00401402
-0.0145845
-0.00446548
-0.0126434
-0.00484206
-0.0106173
-0.00515223
-0.0085189
-0.00540306
-0.00636176
-0.00559933
-0.00416037
-0.00574369
-0.00192999
-0.00583737
-0.00588071
0.00236404
-0.00794711
0.00441233
-0.00786454
0.00641369
-0.00770991
0.00834743
-0.00748369
0.0101948
-0.00718621
0.0119399
-0.00681727
0.0135713
-0.00637561
0.015082
-0.00585838
0.0164689
-0.00526072
0.0177296
-0.0045758
0.0188596
-0.00379573
0.0198507
-0.00291263
0.0206868
-0.0019201
0.021332
-0.000816889
0.0217227
0.000385653
0.0217812
0.00165659
0.0214417
0.00294399
0.0206678
0.00418213
0.0194564
0.00531244
0.017833
0.00629579
0.0158435
0.00711367
0.0135455
0.00776572
0.0110008
0.00826198
0.00827198
0.00861566
0.00542048
0.00883836
0.00250652
0.00893801
-0.000410707
0.00891897
-0.00327279
0.00878288
-0.00602203
0.00852935
-0.00860131
0.00815569
-0.0109541
0.00765658
-0.0130253
0.00702459
-0.0147627
0.00625259
-0.0161212
0.00533811
-0.0170685
0.00428909
-0.0175921
0.00312907
-0.0177042
0.00189771
-0.0174439
0.000648037
-0.016873
-0.000563279
-0.0160621
-0.00169156
-0.0150724
-0.00271062
-0.0139439
-0.00360992
-0.0126974
-0.00439061
-0.011344
-0.00505966
-0.00989226
-0.00562522
-0.00835147
-0.0060949
-0.00673214
-0.00647527
-0.00504666
-0.00677174
-0.00330966
-0.00698838
-0.00153793
-0.00712799
0.000250151
-0.0071922
0.00203555
-0.00718171
0.00379933
-0.00709642
0.00552347
-0.00693539
0.00719174
-0.00669667
0.00879016
-0.00637714
0.0103069
-0.00597234
0.0117319
-0.00547653
0.0130562
-0.00488282
0.0142709
-0.00418339
0.0153632
-0.00337011
0.0163078
-0.00243706
0.0170583
-0.00138584
0.0175493
-0.000231005
0.0177108
0.000996111
0.0174863
0.00224636
0.0168444
0.00346246
0.0157799
0.00459462
0.0143116
0.00560752
0.0124761
0.00648227
0.010321
0.00721448
0.00789946
0.00780843
0.00526722
0.00827172
0.00248096
0.00861131
-0.000402062
0.0088318
-0.00332396
0.00893519
-0.00622613
0.0089213
-0.00904913
0.00878784
-0.0117324
0.00852952
-0.0142142
0.00813733
-0.0164319
0.00759889
-0.0183244
0.00690131
-0.0198364
0.0060366
-0.0209269
0.00500959
-0.0215778
0.00384452
-0.0218011
0.00258622
-0.0216422
0.00129726
-0.0211727
4.12801e-05
-0.020469
-0.00113563
-0.0195871
-0.00220831
-0.0185561
-0.00316975
-0.017389
-0.00402327
-0.0160928
-0.0047759
-0.0146712
-0.00543565
-0.0131264
-0.00601024
-0.0114625
-0.00650599
-0.00968754
-0.00692718
-0.00781443
-0.00727617
-0.00585991
-0.00755385
-0.00384339
-0.00776021
-0.00178594
-0.00789482
-0.00795723
0.00223689
-0.00990892
0.00417185
-0.0097995
0.00605673
-0.0095948
0.007869
-0.00929595
0.00958713
-0.00890435
0.0111911
-0.00842126
0.0126629
-0.00784744
0.0139872
-0.0071826
0.0151515
-0.00642508
0.0161479
-0.00557215
0.0169732
-0.00462105
0.0176305
-0.00356994
0.0181279
-0.00241751
0.0184738
-0.00116275
0.0186682
0.00019119
0.018694
0.00163078
0.0185076
0.00313045
0.0180394
0.00465037
0.0172203
0.00613153
0.0160136
0.00750246
0.0144226
0.00870468
0.0124813
0.00970697
0.010244
0.0104993
0.00777608
0.0110836
0.0051486
0.0114658
0.00243523
0.0116514
-0.000289606
0.0116438
-0.00295203
0.0114453
-0.00547996
0.0110573
-0.00780447
0.0104802
-0.00986166
0.00971377
-0.0115957
0.00875859
-0.0129638
0.00762073
-0.013944
0.00631832
-0.0145427
0.00488778
-0.0147999
0.00338633
-0.0147819
0.00187967
-0.0145558
0.000421902
-0.0141676
-0.000951501
-0.0136392
-0.00221987
-0.0129767
-0.00337317
-0.0121773
-0.00440928
-0.0112376
-0.00533032
-0.0101583
-0.00613897
-0.008946
-0.00683754
-0.00761252
-0.00742838
-0.00617374
-0.00791405
-0.00464843
-0.00829705
-0.00305745
-0.00857937
-0.00142308
-0.00876236
0.000231532
-0.00884681
0.00188283
-0.00883301
0.00350734
-0.00872093
0.00508209
-0.00851014
0.00658515
-0.00819973
0.00799617
-0.00778816
0.00929711
-0.00727328
0.0104731
-0.00665253
0.0115137
-0.00592339
0.0124139
-0.00508356
0.0131744
-0.00413066
0.0137993
-0.00306193
0.0142895
-0.00187601
0.0146354
-0.000576939
0.014809
0.000822506
0.0147572
0.00229812
0.0144103
0.00380934
0.0137075
0.00529741
0.0126182
0.00669685
0.0111446
0.00795585
0.00931546
0.00904365
0.00717771
0.00994618
0.0047899
0.0106595
0.00221757
0.0111836
-0.000469337
0.0115187
-0.00319811
0.011664
-0.00589463
0.0116178
-0.00848453
0.0113777
-0.0108947
0.0109397
-0.0130552
0.0102979
-0.0149032
0.00944681
-0.0163889
0.00838706
-0.0174859
0.00713359
-0.0182014
0.00572512
-0.0185832
0.00422632
-0.0187042
0.0027072
-0.0186281
0.00122121
-0.0183905
-0.000196346
-0.0180029
-0.00152329
-0.0174618
-0.00274938
-0.0167583
-0.00387327
-0.0158853
-0.00489623
-0.0148416
-0.00581961
-0.0136317
-0.00664555
-0.012265
-0.00737694
-0.0107547
-0.00801629
-0.009117
-0.00856485
-0.00737059
-0.00902259
-0.00553591
-0.00938853
-0.0036348
-0.00966132
-0.00169002
-0.0098396
-0.00992232
0.00209271
-0.0117442
0.00390133
-0.0116081
0.00566019
-0.0113537
0.00734671
-0.0109825
0.00893907
-0.0104967
0.0104165
-0.00989872
0.0117598
-0.0091907
0.0129516
-0.00837438
0.0139775
-0.00745096
0.0148267
-0.00642137
0.0154926
-0.005287
0.015973
-0.00405031
0.0162703
-0.0027148
0.0163928
-0.00128525
0.0163531
0.000230837
0.0161612
0.00182271
0.0158151
0.0034766
0.015297
0.00516846
0.0145739
0.00685464
0.0135994
0.00847697
0.0123313
0.00997276
0.0107572
0.0112811
0.00890047
0.012356
0.00681039
0.0131737
0.00455216
0.0137241
0.00220016
0.0140034
-0.000166969
0.0140109
-0.00247017
0.0137485
-0.00463361
0.0132207
-0.00658847
0.0124351
-0.00827767
0.011403
-0.00966212
0.010143
-0.0107292
0.00868784
-0.0114997
0.00708883
-0.0120199
0.00540792
-0.0123379
0.00370435
-0.0124877
0.00202948
-0.012487
0.000421223
-0.0123397
-0.00109882
-0.0120408
-0.00251878
-0.0115838
-0.00383019
-0.0109656
-0.00502746
-0.0101885
-0.00610747
-0.00925925
-0.00706819
-0.00818886
-0.00790794
-0.00699161
-0.00862562
-0.00568489
-0.00922077
-0.00428858
-0.00969336
-0.00282446
-0.0100435
-0.00131562
-0.0102712
0.000214063
-0.0103765
0.00174033
-0.0103593
0.00323901
-0.0102196
0.0046864
-0.00995752
0.00605971
-0.00957304
0.00733763
-0.00906609
0.00850093
-0.00843658
0.00953305
-0.00768465
0.0104206
-0.00681092
0.0111537
-0.00581667
0.0117267
-0.00470367
0.0121389
-0.00347415
0.0123947
-0.00213175
0.0125007
-0.000682945
0.0124601
0.000863053
0.0122657
0.00249258
0.0118952
0.00417979
0.0113103
0.00588237
0.0104608
0.00754635
0.00930561
0.009111
0.0078335
0.0105158
0.00606538
0.0117143
0.00404609
0.0126788
0.00183654
0.0133932
-0.00049206
0.0138473
-0.00286264
0.0140345
-0.00519592
0.0139511
-0.00741403
0.0135959
-0.00944462
0.0129703
-0.0112262
0.0120794
-0.0127155
0.0109361
-0.0138985
0.00957009
-0.0147977
0.00803278
-0.0154592
0.00638663
-0.0159266
0.00469365
-0.0162285
0.00300911
-0.0163783
0.001371
-0.0163739
-0.000200742
-0.0162037
-0.00169347
-0.0158559
-0.0030972
-0.0153238
-0.00440539
-0.0146063
-0.0056137
-0.013707
-0.00671891
-0.0126336
-0.00771891
-0.0113981
-0.00861251
-0.0100156
-0.00939875
-0.00850413
-0.0100763
-0.00688342
-0.0106433
-0.00517454
-0.0110974
-0.00339953
-0.0114363
-0.00158114
-0.011658
-0.0117609
0.00192197
-0.0134297
0.00358159
-0.0132677
0.00519295
-0.012965
0.00673416
-0.0125237
0.00818406
-0.0119466
0.00952259
-0.0112373
0.0107311
-0.0103992
0.0117931
-0.00943634
0.0126945
-0.00835233
0.0134244
-0.00715132
0.0139756
-0.00583821
0.0143444
-0.00441908
0.014531
-0.00290139
0.0145399
-0.00129415
0.0143791
0.000391661
0.0140587
0.00214306
0.0135911
0.00394416
0.0129868
0.00577282
0.0122423
0.00759908
0.011336
0.00938325
0.01024
0.0110688
0.00893343
0.0125876
0.00741263
0.0138768
0.00569916
0.0148871
0.00383932
0.0155839
0.00189592
0.0159468
-6.00778e-05
0.0159669
-0.00195625
0.0156447
-0.00372485
0.0149893
-0.00530955
0.0140198
-0.00667349
0.0127669
-0.00780583
0.0112754
-0.00871969
0.0096017
-0.00944157
0.00781071
-0.0100006
0.005967
-0.0104177
0.00412139
-0.0106971
0.00230894
-0.0108321
0.000556136
-0.0108139
-0.00111703
-0.0106365
-0.0026961
-0.010297
-0.00416968
-0.00979584
-0.00552864
-0.00913752
-0.0067658
-0.00833042
-0.00787529
-0.00738613
-0.00885222
-0.0063191
-0.00969266
-0.00514632
-0.0103936
-0.00388701
-0.0109527
-0.00256215
-0.0113683
-0.00119402
-0.0116393
0.000194283
-0.0117648
0.00157929
-0.0117443
0.00293758
-0.0115779
0.00424625
-0.0112662
0.00548334
-0.0108101
0.00662832
-0.0102111
0.00766254
-0.00947081
0.00856971
-0.00859182
0.00933615
-0.00757736
0.00995114
-0.00643166
0.0104073
-0.00515985
0.0107013
-0.00376811
0.0108336
-0.0022641
0.0108082
-0.000657567
0.0106319
0.00103936
0.0103136
0.00281096
0.00985796
0.00463539
0.00925602
0.0064843
0.00848348
0.0083189
0.00751089
0.0100836
0.00631434
0.0117123
0.00488655
0.0131421
0.00324592
0.0143194
0.0014356
0.0152035
-0.000484159
0.0157671
-0.00244368
0.0159941
-0.00437035
0.0158778
-0.00619477
0.0154203
-0.00785786
0.0146334
-0.00931957
0.0135411
-0.0105658
0.0121824
-0.0116062
0.0106104
-0.0124643
0.00889089
-0.013168
0.00709034
-0.0137345
0.0052602
-0.0141622
0.00343677
-0.0144391
0.00164789
-0.0145534
-8.64342e-05
-0.0144955
-0.00175134
-0.0142583
-0.0033344
-0.0138385
-0.00482522
-0.0132369
-0.00621528
-0.0124583
-0.00749754
-0.0115109
-0.00866626
-0.0104066
-0.00971683
-0.00916009
-0.0106453
-0.00778861
-0.0114478
-0.00631121
-0.0121207
-0.00474831
-0.0126603
-0.00312128
-0.0130634
-0.00145218
-0.0133271
-0.0134495
0.00173007
-0.0149469
0.00322274
-0.0147604
0.00466973
-0.014412
0.00605032
-0.0139043
0.00734459
-0.0132409
0.00853368
-0.0124263
0.00960023
-0.0114658
0.0105288
-0.0103649
0.0113065
-0.00913
0.0119232
-0.00776804
0.0123721
-0.0062871
0.0126496
-0.00469658
0.0127555
-0.00300733
0.0126932
-0.00123182
0.0124691
0.000615725
0.012093
0.00251922
0.0115772
0.00445992
0.010935
0.00641502
0.0101776
0.00835654
0.00931174
0.0102491
0.00833416
0.0120464
0.00723009
0.0136917
0.00598786
0.015119
0.00461374
0.0162612
0.0031349
0.0170627
0.00159547
0.0174862
5.00829e-05
0.0175123
-0.00144444
0.0171392
-0.00283794
0.0163828
-0.00409467
0.0152765
-0.0051981
0.0138703
-0.00615154
0.0122288
-0.00697178
0.0104219
-0.00767421
0.00851314
-0.00826224
0.00655504
-0.00873044
0.00458958
-0.00907036
0.00264887
-0.00927264
0.000758411
-0.0093289
-0.00106077
-0.00923362
-0.00279137
-0.00898465
-0.00441866
-0.00858324
-0.00593005
-0.00803415
-0.00731489
-0.0073454
-0.00856404
-0.00652795
-0.00966967
-0.00559539
-0.0106252
-0.00456367
-0.0114253
-0.00345078
-0.0120656
-0.00227636
-0.0125428
-0.00106131
-0.0128544
0.000172697
-0.0129988
0.0014036
-0.0129752
0.00260942
-0.0127837
0.00376864
-0.0124254
0.00486068
-0.0119022
0.00586633
-0.0112167
0.00676812
-0.0103726
0.00755075
-0.00937444
0.00820134
-0.00822795
0.00870973
-0.00694005
0.00906878
-0.0055189
0.0092747
-0.00397403
0.0093272
-0.0023166
0.00922939
-0.000559757
0.00898768
0.00128108
0.00861095
0.00318769
0.00810847
0.00513788
0.00748814
0.00710463
0.00675368
0.00905335
0.00589815
0.0109391
0.00490417
0.0127063
0.00375751
0.0142888
0.00246014
0.0156168
0.00103426
0.0166294
-0.000479763
0.0172811
-0.00202903
0.0175433
-0.00355646
0.0174052
-0.00500961
0.0168734
-0.00634853
0.0159723
-0.00755169
0.0147443
-0.0086186
0.0132493
-0.00956369
0.0115555
-0.0103994
0.00972657
-0.0111255
0.00781645
-0.0117335
0.00586822
-0.0122115
0.0039148
-0.0125463
0.00198262
-0.0127259
9.32202e-05
-0.0127417
-0.00173552
-0.0125881
-0.00348807
-0.0122626
-0.00515072
-0.0117663
-0.00671149
-0.0111039
-0.00815997
-0.010283
-0.00948714
-0.00931459
-0.0106853
-0.00821227
-0.0117476
-0.00699206
-0.012668
-0.0056718
-0.013441
-0.00427068
-0.0140614
-0.00280886
-0.0145252
-0.00130723
-0.0148287
-0.0149697
0.00152124
-0.0162808
0.00283262
-0.0160718
0.00410185
-0.0156812
0.00530988
-0.0151123
0.00643845
-0.0143694
0.00747035
-0.0134582
0.00838985
-0.0123853
0.00918308
-0.0111582
0.00983843
-0.00978536
0.0103469
-0.00827655
0.0107025
-0.00664268
0.0109021
-0.00489614
0.0109457
-0.0030509
0.0108364
-0.00112256
0.0105806
0.000871571
0.0101873
0.00291245
0.00966875
0.0049785
0.00903891
0.00704486
0.00831299
0.00908246
0.00750549
0.0110566
0.00662727
0.0129246
0.00568441
0.0146345
0.0046786
0.0161249
0.00361076
0.0173291
0.00248956
0.0181839
0.00133687
0.0186389
0.000184938
0.0186643
-0.000931919
0.0182561
-0.00198634
0.0174372
-0.00296414
0.0162543
-0.0038635
0.0147697
-0.00468721
0.0130525
-0.00543511
0.0111698
-0.00610224
0.00918027
-0.00667933
0.00713213
-0.00715446
0.00506471
-0.00751567
0.00301008
-0.00775257
0.000995315
-0.00785706
-0.000956281
-0.0078239
-0.00282454
-0.00765098
-0.00459157
-0.0073394
-0.00624164
-0.0068934
-0.00776089
-0.00632022
-0.00913722
-0.00562979
-0.0103601
-0.00483446
-0.0114205
-0.00394876
-0.012311
-0.00298906
-0.0130253
-0.00197325
-0.0135586
-0.000920384
-0.0139073
0.000149778
-0.014069
0.00121711
-0.0140425
0.00226155
-0.0138282
0.0032635
-0.0134274
0.00420419
-0.0128429
0.00506612
-0.0120786
0.00583341
-0.0111399
0.00649212
-0.0100332
0.00703054
-0.00876637
0.00743948
-0.00734899
0.00771252
-0.00579194
0.00784629
-0.0041078
0.0078406
-0.00231091
0.00769842
-0.000417579
0.00742583
0.00155367
0.00703165
0.00358187
0.00652678
0.00564274
0.00592339
0.00770802
0.00523294
0.0097438
0.00446357
0.0117085
0.00361895
0.0135509
0.00269799
0.0152097
0.00169826
0.0166165
0.000624471
0.0177032
-0.000505235
0.0184108
-0.00166074
0.0186988
-0.00280737
0.0185518
-0.00391509
0.0179812
-0.00496581
0.017023
-0.00595388
0.0157324
-0.00687889
0.0141743
-0.00773805
0.0124147
-0.00852394
0.0105125
-0.00922445
0.00851695
-0.0098246
0.00646837
-0.0103094
0.00439962
-0.0106653
0.00233848
-0.0108809
0.000308835
-0.0109479
-0.00166851
-0.0108609
-0.00357505
-0.0106177
-0.00539398
-0.010219
-0.00711019
-0.00966876
-0.00871018
-0.00897394
-0.010182
-0.00814424
-0.011515
-0.00719194
-0.0126999
-0.00613145
-0.0137285
-0.00497897
-0.0145934
-0.00375202
-0.0152884
-0.00246911
-0.0158081
-0.00114946
-0.0161484
-0.0163064
0.00129967
-0.0174204
0.00241903
-0.0171912
0.00350061
-0.0167628
0.00452737
-0.0161391
0.00548305
-0.0153251
0.00635244
-0.0143276
0.00712172
-0.0131546
0.00777878
-0.0118152
0.00831361
-0.0103202
0.00871856
-0.0086815
0.00898854
-0.00691267
0.00912123
-0.00502883
0.00911713
-0.0030468
0.00897965
-0.000985082
0.00871512
0.0011361
0.00833274
0.00329482
0.0078445
0.00546675
0.00726471
0.00762465
0.00660952
0.00973764
0.00589609
0.01177
0.00514106
0.0136797
0.00435874
0.0154169
0.00355948
0.0169241
0.00274986
0.0181387
0.00193471
0.0189991
0.00111956
0.019454
0.000311438
0.0194724
-0.000482561
0.0190501
-0.00125722
0.0182119
-0.00200939
0.0170065
-0.00273598
0.0154963
-0.00343138
0.0137479
-0.00408597
0.0118244
-0.00468671
0.00978102
-0.00521908
0.0076645
-0.00566871
0.00551433
-0.00602273
0.0033641
-0.00627046
0.00124305
-0.00640377
-0.00082298
-0.0064173
-0.00281101
-0.00630866
-0.00470021
-0.0060784
-0.00647189
-0.00572994
-0.00810934
-0.00526942
-0.00959774
-0.00470542
-0.0109241
-0.00404874
-0.0120772
-0.00331216
-0.0130476
-0.00251011
-0.0138273
-0.00165841
-0.0144103
-0.000773882
-0.0147918
0.000125954
-0.0149688
0.00102329
-0.0149399
0.00190035
-0.0147052
0.00273978
-0.0142668
0.00352501
-0.0136281
0.00424057
-0.0127942
0.00487246
-0.0117718
0.00540845
-0.0105691
0.00583832
-0.00919625
0.00615416
-0.00766482
0.00635058
-0.00598836
0.00642495
-0.00418217
0.00637755
-0.00226351
0.0062116
-0.000251633
0.00593323
0.00183204
0.00555132
0.00396378
0.0050772
0.00611686
0.00452426
0.00826097
0.00390705
0.010361
0.00323989
0.0123756
0.00253503
0.0142558
0.00180093
0.0159438
0.00104228
0.0173752
0.000261911
0.0184836
-0.000536565
0.0192093
-0.0013473
0.0195096
-0.00216298
0.0193675
-0.00297696
0.0187951
-0.00378408
0.0178301
-0.00457928
0.0165276
-0.00535509
0.0149501
-0.00609996
0.0131595
-0.00679872
0.0112112
-0.00743444
0.00915267
-0.0079901
0.00702404
-0.00845002
0.00485953
-0.00880047
0.00268893
-0.00903024
0.0005386
-0.00913092
-0.00156783
-0.009097
-0.00360896
-0.00892589
-0.00556509
-0.00861788
-0.00741821
-0.00817607
-0.00915199
-0.00760627
-0.0107518
-0.00691682
-0.0122044
-0.00611834
-0.0134984
-0.00522344
-0.0146234
-0.00424637
-0.0155705
-0.00320267
-0.0163321
-0.00210883
-0.0169019
-0.000982054
-0.0172751
-0.0174485
0.00106904
-0.0183578
0.00198881
-0.0181109
0.00287582
-0.0176498
0.00371535
-0.0169786
0.00449341
-0.0161032
0.00519703
-0.0150312
0.00581447
-0.013772
0.0063356
-0.0123363
0.00675215
-0.0107367
0.00705794
-0.00898729
0.00724911
-0.00710383
0.00732423
-0.00510395
0.00728445
-0.00300703
0.00713358
-0.00083421
0.00687811
0.00139157
0.00652727
0.00364566
0.00609292
0.0059011
0.00558932
0.00812825
0.00503271
0.0102943
0.00444063
0.0123621
0.00383075
0.0142895
0.0032192
0.0160284
0.00261861
0.0175247
0.00203638
0.0187209
0.00147405
0.0195614
0.000927822
0.0200003
0.000390417
0.0200098
-0.000146538
0.019587
-0.000689664
0.018755
-0.00124145
0.0175583
-0.00179891
0.0160537
-0.00235356
0.0143026
-0.00289259
0.0123634
-0.00340078
0.0102892
-0.00386242
0.00812614
-0.00426262
0.00591453
-0.00458831
0.0036898
-0.00482871
0.00148345
-0.00497558
-0.00067611
-0.00502335
-0.00276324
-0.00496916
-0.0047544
-0.00481283
-0.00662823
-0.00455674
-0.00836543
-0.0042057
-0.00994878
-0.00376673
-0.0113631
-0.00324885
-0.0125951
-0.0026628
-0.0136336
-0.00202085
-0.0144693
-0.00133645
-0.0150947
-0.000623982
-0.0155042
0.000101581
-0.0156944
0.000825002
-0.0156633
0.00153109
-0.0154113
0.00220499
-0.0149407
0.00283258
-0.0142557
0.00340068
-0.0133623
0.00389744
-0.0122685
0.00431258
-0.0109843
0.00463761
-0.00952128
0.00486612
-0.00789334
0.00499397
-0.00611621
0.00501949
-0.00420769
0.0049436
-0.00218762
0.00476993
-7.79602e-05
0.00450476
0.0020972
0.00415707
0.00431147
0.0037383
0.00653563
0.00326212
0.00873715
0.00274374
0.0108794
0.00219892
0.0129205
0.00164238
0.0148123
0.00108592
0.0165003
0.000536545
0.0179246
-4.34379e-06
0.0190244
-0.000540578
0.0197455
-0.00107955
0.0200485
-0.00162959
0.0199175
-0.00219723
0.0193628
-0.0027849
0.0184178
-0.00338945
0.0171321
-0.00400189
0.0155626
-0.00460841
0.0137661
-0.00519226
0.0117951
-0.00573568
0.00969609
-0.00622139
0.00750975
-0.00663365
0.00527179
-0.00695884
0.00301412
-0.00718583
0.000765588
-0.00730616
-0.0014475
-0.00731408
-0.00360104
-0.00720654
-0.00567263
-0.00698311
-0.00764163
-0.00664592
-0.00948919
-0.00619947
-0.0111982
-0.00565055
-0.0127533
-0.00500799
-0.014141
-0.00428238
-0.015349
-0.00348583
-0.0163671
-0.00263163
-0.0171863
-0.00173399
-0.0177995
-0.000807795
-0.0182013
-0.018388
0.000832542
-0.0190877
0.00154784
-0.0188262
0.00223591
-0.0183379
0.00288458
-0.0176273
0.00348233
-0.016701
0.00401857
-0.0155675
0.00448383
-0.0142373
0.00487008
-0.0127226
0.00517087
-0.0110375
0.00538164
-0.00919806
0.00549982
-0.00722201
0.00552499
-0.00512912
0.005459
-0.00294104
0.00530606
-0.000681273
0.00507279
0.00162484
0.00476824
0.00395021
0.00440384
0.0062655
0.00399316
0.00853894
0.00355152
0.0107359
0.00309536
0.0128183
0.00264101
0.0147439
0.00220314
0.0164663
0.00179261
0.0179352
0.00141449
0.0190991
0.0010668
0.0199091
0.00074075
0.0203263
0.000422826
0.0203277
9.83507e-05
0.0199115
-0.000244473
0.0190979
-0.000611556
0.0179253
-0.00100183
0.016444
-0.00140792
0.0147087
-0.00181789
0.0127734
-0.00221738
0.0106887
-0.00259145
0.00850021
-0.00292592
0.00624901
-0.00320823
0.0039721
-0.00342789
0.00170311
-0.00357672
-0.000527285
-0.00364894
-0.00269101
-0.0036412
-0.00476215
-0.00355248
-0.00671695
-0.00338402
-0.00853388
-0.00313919
-0.0101936
-0.00282327
-0.011679
-0.00244331
-0.0129751
-0.00200787
-0.014069
-0.00152682
-0.0149503
-0.00101111
-0.0156104
-0.000472442
-0.0160429
7.6942e-05
-0.0162437
0.000624573
-0.0162109
0.00115802
-0.0159447
0.00166516
-0.0154478
0.00213447
-0.014725
0.0025553
-0.0137831
0.0029181
-0.0126313
0.00321471
-0.0112809
0.00343858
-0.00974514
0.00358493
-0.00803969
0.00365098
-0.00618227
0.00363613
-0.00419284
0.00354204
-0.00209353
0.00337275
9.13314e-05
0.00313467
0.00233528
0.00283664
0.0046095
0.00248977
0.0068825
0.00210713
0.00911979
0.00170322
0.0112833
0.00129299
0.0133307
0.000890308
0.015215
0.000506051
0.0168845
0.000145971
0.0182846
-0.000190814
0.0193612
-0.000512052
0.0200667
-0.00083072
0.0203672
-0.00116157
0.0202484
-0.0015171
0.0197183
-0.00190433
0.018805
-0.00232322
0.017551
-0.0027669
0.0160062
-0.00322324
0.0142224
-0.00367691
0.0122488
-0.00411143
0.0101306
-0.00451056
0.00790889
-0.00485944
0.00562067
-0.00514505
0.00329974
-0.00535663
0.000977166
-0.00548579
-0.00131834
-0.00552661
-0.00356022
-0.00547553
-0.00572371
-0.00533135
-0.00778581
-0.00509509
-0.00972545
-0.0047699
-0.0115234
-0.00436088
-0.0131624
-0.00387494
-0.0146269
-0.00332054
-0.0159034
-0.00270748
-0.0169801
-0.00204664
-0.0178471
-0.00134974
-0.0184964
-0.000629088
-0.018922
-0.0191197
0.000592913
-0.0196075
0.00110121
-0.0193345
0.00158817
-0.0188248
0.00204433
-0.0180834
0.00246079
-0.0171174
0.00282946
-0.0159362
0.00314325
-0.0145511
0.00339626
-0.0129756
0.00358399
-0.0112253
0.00370351
-0.00931758
0.0037536
-0.00727209
0.00373486
-0.00511038
0.00364982
-0.002856
0.00350301
-0.000534465
0.00330101
0.00182684
0.00305247
0.00419875
0.00276797
0.00655
0.00245982
0.00884709
0.00214161
0.0110541
0.0018275
0.0131324
0.00153113
0.0150403
0.00126407
0.0167334
0.00103392
0.0181654
0.000842551
0.0192904
0.000685033
0.0200666
0.000549987
0.0204614
0.000421666
0.020456
0.000283402
0.0200497
0.000121385
0.0192599
-7.2521e-05
0.0181192
-0.000299722
0.0166712
-0.000555478
0.0149644
-0.000830497
0.0130484
-0.00111284
0.010971
-0.0013896
0.00877698
-0.00164822
0.00650763
-0.00187727
0.00420115
-0.00206696
0.00189279
-0.0022094
-0.000384838
-0.00229876
-0.00260165
-0.0023312
-0.00472971
-0.00230489
-0.00674327
-0.00221987
-0.0086189
-0.00207798
-0.0103355
-0.00188272
-0.0118743
-0.00163904
-0.0132187
-0.00135321
-0.0143549
-0.00103259
-0.0152709
-0.000685439
-0.0159575
-0.000320696
-0.0164077
5.22689e-05
-0.0166167
0.000423889
-0.0165825
0.000784628
-0.0163055
0.00112521
-0.0157884
0.00143688
-0.0150367
0.00171159
-0.0140578
0.00194226
-0.012862
0.00212299
-0.0114616
0.0022492
-0.00987136
0.00231787
-0.00810835
0.00232763
-0.00619203
0.00227897
-0.00414417
0.00217428
-0.00198884
0.00201795
0.00024766
0.00181639
0.00253684
0.00157802
0.00484787
0.00131313
0.0071474
0.00103352
0.0093994
0.000751961
0.0115649
0.000481226
0.0136014
0.0002327
0.0154635
1.45901e-05
0.0171026
-0.000169955
0.0184692
-0.000324225
0.0195155
-0.000458125
0.0202006
-0.00058661
0.0204957
-0.000726471
0.0203883
-0.000892532
0.0198844
-0.0010945
0.019007
-0.00133537
0.0177919
-0.00161152
0.0162824
-0.00191405
0.0145249
-0.00223064
0.0125653
-0.00254737
0.0104473
-0.00285015
0.00821167
-0.00312571
0.00589622
-0.00336217
0.0035362
-0.00354949