/*--------------------------------*- C++ -*----------------------------------*\
| =========                 |                                                 |
| \\      /  F ield         | OpenFOAM: The Open Source CFD Toolbox           |
|  \\    /   O peration     | Version:  2.3.0                                 |
|   \\  /    A nd           | Web:      www.OpenFOAM.org                      |
|    \\/     M anipulation  |                                                 |
\*---------------------------------------------------------------------------*/
FoamFile
{
    version     2.0;
    format      ascii;
    class       volScalarField;
    location    "3000";
    object      T;
}
// * * * * * * * * * * * * * * * * * * * * * * * * * * * * * * * * * * * * * //

dimensions      [0 0 0 1 0 0 0];

internalField   nonuniform List<scalar> 
765
(
31.4744
31.5958
31.8095
32.1039
32.4693
32.8968
33.3674
33.8046
34.2292
34.6393
35.0107
35.2987
35.4422
35.382
35.1485
34.8063
34.4077
33.986
33.5514
33.0813
32.6308
32.2388
31.9173
31.6756
31.5249
31.4795
31.5516
31.725
31.9865
32.3253
32.732
33.1919
33.6513
34.0838
34.5026
34.8923
35.215
35.4144
35.4259
35.2434
34.9315
34.5479
34.1329
33.7049
33.2568
32.7947
32.3807
32.0307
31.7537
31.5596
31.4609
23.1132
23.4018
23.9072
24.6014
25.4636
26.4772
27.6216
28.8543
30.086
31.266
32.319
33.1342
33.5512
33.3743
32.7078
31.7417
30.6016
29.3836
28.1469
26.9345
25.8567
24.9312
24.1736
23.603
23.2457
23.1374
23.309
23.7198
24.3367
25.1351
26.0966
27.2035
28.4286
29.6686
30.8754
31.9858
32.896
33.469
33.5027
32.9763
32.0957
31.0048
29.8095
28.5759
27.3529
26.235
25.2544
24.4289
23.7753
23.316
23.081
17.1876
17.5766
18.2545
19.1789
20.3206
21.6631
23.1969
24.9076
26.7218
28.5269
30.1517
31.4005
32.037
31.7666
30.7484
29.2597
27.5026
25.6688
23.8971
22.2761
20.8488
19.625
18.6186
17.8552
17.3742
17.2283
17.4598
18.0122
18.8361
19.8955
21.1676
22.64
24.3014
26.0959
27.9256
29.6381
31.0373
31.9114
31.9627
31.1595
29.8072
28.1239
26.3049
24.5077
22.8332
21.3417
20.044
18.9498
18.0781
17.4612
17.1442
13.4578
13.9172
14.7114
15.7783
17.0743
18.5807
20.302
22.2556
24.3907
26.562
28.5513
30.0858
30.8533
30.53
29.2864
27.4537
25.3225
23.1399
21.0841
19.2675
17.6702
16.2876
15.1325
14.2424
13.6756
13.5039
13.777
14.4269
15.3845
16.5959
18.0297
19.6793
21.5544
23.6481
25.8348
27.9191
29.6421
30.7045
30.7654
29.7912
28.1263
26.0731
23.8941
21.7906
19.8921
18.2212
16.7624
15.5159
14.5062
13.7815
13.4069
11.2587
11.7913
12.7036
13.9034
15.3211
16.9259
18.7288
20.7752
23.0242
25.3306
27.4615
29.1059
29.9119
29.5762
28.2497
26.2824
24.0096
21.7024
19.5443
17.6432
15.9526
14.4536
13.166
12.15
11.4947
11.2967
11.6125
12.3628
13.4508
14.7928
16.3377
18.0769
20.0397
22.2402
24.5559
26.7827
28.6319
29.7591
29.822
28.7915
27.005
24.8093
22.4997
20.288
18.3017
16.5468
14.9843
13.6119
12.4699
11.6345
11.2002
9.95105
10.575
11.6358
13.0013
14.5639
16.2677
18.1177
20.1702
22.3935
24.664
26.7585
28.3641
29.1349
28.8167
27.5286
25.5976
23.3609
21.0853
18.9373
16.9987
15.2236
13.5911
12.1402
10.9666
10.2007
9.97071
10.3391
11.2149
12.4659
13.9668
15.6345
17.4452
19.4336
21.6177
23.8999
26.0906
27.9027
28.9918
29.0514
28.0593
26.3107
24.1516
21.8773
19.6873
17.6857
15.8721
14.1989
12.6741
11.3664
10.3919
9.8833
9.08909
9.82229
11.0633
12.6337
14.3802
16.2121
18.1135
20.1276
22.2415
24.3659
26.3056
27.7751
28.4665
28.1822
27.0098
25.2279
23.1431
20.9945
18.9165
16.9532
15.0718
13.2695
11.6158
10.2504
9.35192
9.08373
9.51462
10.5415
11.9916
13.6912
15.5155
17.4136
19.4028
21.5013
23.6486
25.6859
27.3534
28.3402
28.3939
27.4988
25.8934
23.8893
21.7555
19.6624
17.6785
15.795
13.979
12.2619
10.7504
9.60762
9.01035
8.40916
9.26152
10.6975
12.4922
14.4468
16.4332
18.4067
20.3633
22.3257
24.242
25.9594
27.244
27.844
27.5954
26.5715
25.0007
23.1334
21.1613
19.1782
17.1869
15.1744
13.1779
11.301
9.728
8.68541
8.37489
8.87466
10.0653
11.7314
13.6512
15.6572
17.6668
19.6516
21.6332
23.591
25.4078
26.8736
27.7344
27.7826
27.0047
25.5977
23.817
21.8816
19.9211
17.9656
15.9885
14.0038
12.0712
10.3375
9.01247
8.31812
7.76722
8.73858
10.3573
12.3578
14.5057
16.6362
18.6637
20.5619
22.3755
24.083
25.577
26.6799
27.1936
26.9775
26.0969
24.7356
23.0862
21.2882
19.3973
17.3909
15.2638
13.0873
11.0058
9.24024
8.05698
7.7006
8.27302
9.62101
11.4862
13.6086
15.7837
17.8863
19.8589
21.7264
23.4959
25.0919
26.3585
27.0989
27.1423
26.4765
25.2659
23.7099
21.9731
20.143
18.2219
16.1685
14.0242
11.8919
9.95382
8.45616
7.66247
7.0646
8.12464
9.86854
12.0066
14.2872
16.5243
18.5991
20.4617
22.1621
23.6981
25.0016
25.9471
26.3854
26.1971
25.4401
24.2581
22.79
21.129
19.3023
17.2781
15.062
12.7597
10.5414
8.64604
7.36127
6.96789
7.59751
9.05672
11.0553
13.3139
15.6095
17.7883
19.7575
21.5419
23.1608
24.5713
25.6669
26.3035
26.3432
25.775
24.7343
23.3689
21.7933
20.0605
18.1593
16.0397
13.7792
11.5108
9.43606
7.81835
6.94848
6.23376
7.32172
9.09306
11.2568
13.5668
15.8345
17.9233
19.7645
21.3922
22.8082
23.9708
24.7958
25.1749
25.0076
24.3452
23.297
21.9583
20.3884
18.6018
16.576
14.3334
12.0018
9.7582
7.83717
6.52417
6.11615
6.76703
8.25454
10.2782
12.5631
14.8889
17.0915
19.0531
20.7852
22.3021
23.5786
24.5457
25.1025
25.1401
24.6481
23.7367
22.5108
21.046
19.3744
17.4875
15.3455
13.0528
10.7557
8.65516
7.00901
6.11284
5.23107
6.25985
7.9216
9.95048
12.13
14.2929
16.3085
18.0989
19.6638
20.9935
22.0565
22.7952
23.1311
22.9785
22.3836
21.4298
20.183
18.6849
16.9531
14.9921
12.8457
10.6398
8.53392
6.73382
5.49648
5.10718
5.7264
7.12537
9.02111
11.1686
13.3745
15.4887
17.3918
19.0671
20.5071
21.6891
22.5653
23.0651
23.1016
22.6651
21.8458
20.7183
19.3345
17.7204
15.8834
13.823
11.6427
9.47974
7.51134
5.96533
5.1153
4.02739
4.89045
6.27495
7.96554
9.79652
11.6447
13.4153
15.0394
16.473
17.6856
18.6434
19.3008
19.5973
19.4592
18.9281
18.0704
16.9369
15.5655
13.9882
12.2448
10.3967
8.53568
6.77832
5.27988
4.24489
3.91583
4.43794
5.60598
7.18361
8.9785
10.8461
12.6773
14.3845
15.9152
17.2327
18.3049
19.0911
19.5373
19.5721
19.1863
18.4553
17.4362
16.1713
14.6926
13.0313
11.2365
9.3834
7.57188
5.93328
4.64413
3.92924
2.60501
3.19058
4.12196
5.25512
6.48793
7.75471
9.01827
10.2436
11.354
12.3045
13.0578
13.5743
13.8067
13.6968
13.2782
12.6026
11.7122
10.645
9.44328
8.17232
6.89272
5.63483
4.45662
3.4505
2.7505
2.52572
2.88157
3.66981
4.72776
5.93163
7.19796
8.4757
9.74038
10.915
11.9439
12.7872
13.4065
13.7585
13.7872
13.4845
12.91
12.1084
11.1184
9.97718
8.73214
7.46859
6.20696
4.99049
3.89236
3.02395
2.53778
0.953196
1.16648
1.49972
1.89752
2.32486
2.7676
3.23704
3.74189
4.21857
4.63697
4.97391
5.20693
5.31207
5.26209
5.07273
4.76939
4.37498
3.91255
3.40978
2.91694
2.46435
2.02862
1.61719
1.25948
1.00591
0.923371
1.05373
1.33803
1.71232
2.13101
2.56945
3.02542
3.53107
4.02798
4.47664
4.85169
5.13047
5.2899
5.30308
5.16617
4.90731
4.54983
4.11601
3.62924
3.12145
2.66453
2.22685
1.80493
1.41807
1.10609
0.92843
)
;

boundaryField
{
    top
    {
        type            fixedValue;
        value           uniform 0;
    }
    bottom
    {
        type            fixedValue;
        value           uniform 36.5;
    }
    frontAndBack
    {
        type            empty;
    }
    left_cyc
    {
        type            cyclic;
    }
    right_cyc
    {
        type            cyclic;
    }
}


// ************************************************************************* //
