/*--------------------------------*- C++ -*----------------------------------*\
| =========                 |                                                 |
| \\      /  F ield         | OpenFOAM: The Open Source CFD Toolbox           |
|  \\    /   O peration     | Version:  2.3.0                                 |
|   \\  /    A nd           | Web:      www.OpenFOAM.org                      |
|    \\/     M anipulation  |                                                 |
\*---------------------------------------------------------------------------*/
FoamFile
{
    version     2.0;
    format      ascii;
    class       volScalarField;
    location    "3000";
    object      T;
}
// * * * * * * * * * * * * * * * * * * * * * * * * * * * * * * * * * * * * * //

dimensions      [0 0 0 1 0 0 0];

internalField   nonuniform List<scalar> 
3060
(
35.3812
35.3866
35.3965
35.4108
35.4295
35.4523
35.479
35.5095
35.5434
35.5805
35.6201
35.6619
35.7049
35.7479
35.7905
35.8323
35.8729
35.9119
35.9487
35.9829
36.014
36.0415
36.0649
36.0837
36.0975
36.1061
36.109
36.1062
36.0979
36.0845
36.0663
36.0439
36.0178
35.9885
35.9565
35.9224
35.8866
35.8497
35.812
35.7738
35.7357
35.6989
35.6641
35.6321
35.6033
35.578
35.5566
35.5393
35.5262
35.5177
35.5136
35.5143
35.5196
35.5295
35.5437
35.5622
35.5847
35.611
35.6407
35.6736
35.709
35.7463
35.7845
35.8226
35.8601
35.8968
35.9321
35.9656
35.9969
36.0254
36.0505
36.0718
36.0887
36.1008
36.1075
36.1087
36.1042
36.0942
36.0789
36.0588
36.0342
36.0057
35.9737
35.9387
35.9012
35.8618
35.8208
35.7788
35.736
35.6929
35.6501
35.6089
35.5699
35.5337
35.5007
35.4712
35.4455
35.4239
35.4064
35.3932
35.3846
35.3805
33.1608
33.1766
33.2058
33.248
33.3029
33.3699
33.4485
33.5381
33.6379
33.7469
33.8638
33.9873
34.1154
34.2455
34.3741
34.5002
34.6227
34.7401
34.8511
34.9543
35.048
35.1309
35.2013
35.2581
35.2999
35.3256
35.3344
35.326
35.3009
35.2602
35.2052
35.1375
35.0586
34.9702
34.8737
34.7707
34.6628
34.5512
34.4373
34.322
34.2083
34.0991
33.9965
33.9022
33.8173
33.7431
33.6801
33.6293
33.591
33.5657
33.5539
33.5558
33.5714
33.6004
33.6422
33.6965
33.7627
33.84
33.9276
34.0244
34.129
34.2397
34.3543
34.4693
34.5827
34.6933
34.8
34.9013
34.9957
35.0817
35.1576
35.2219
35.273
35.3094
35.33
35.3336
35.32
35.2897
35.2437
35.183
35.1089
35.0229
34.9264
34.8209
34.708
34.5891
34.4655
34.3386
34.2095
34.0795
33.9524
33.8306
33.7157
33.6092
33.5122
33.4255
33.3501
33.2863
33.2349
33.1962
33.1707
33.1586
30.9872
31.0131
31.061
31.1301
31.2199
31.3294
31.4578
31.6039
31.7665
31.944
32.1345
32.336
32.5458
32.7609
32.9753
33.1853
33.3893
33.585
33.7699
33.9417
34.0977
34.2355
34.3528
34.4471
34.5165
34.5592
34.5738
34.5596
34.5175
34.4494
34.3576
34.2446
34.1129
33.9652
33.8041
33.6321
33.4519
33.2657
33.0757
32.8841
32.6973
32.5188
32.3515
32.1977
32.0595
31.9385
31.8359
31.753
31.6906
31.6494
31.6301
31.6332
31.6587
31.7059
31.7742
31.8627
31.9705
32.0965
32.2392
32.397
32.5677
32.7488
32.9371
33.1289
33.3182
33.5029
33.6811
33.8502
34.0079
34.1514
34.2781
34.3855
34.4708
34.5318
34.5663
34.5725
34.55
34.4997
34.4231
34.3222
34.199
34.0558
33.8952
33.7196
33.5315
33.3333
33.1275
32.9161
32.7007
32.4868
32.279
32.0803
31.8932
31.7197
31.5616
31.4203
31.297
31.1928
31.1087
31.0453
31.0035
30.9838
28.8849
28.9206
28.9864
29.0815
29.2049
29.3554
29.5316
29.7318
29.9543
30.1969
30.4571
30.7321
31.0183
31.3121
31.6086
31.8998
32.183
32.4548
32.7117
32.9502
33.1667
33.3578
33.5202
33.6508
33.7468
33.8056
33.8254
33.8053
33.7465
33.6517
33.5239
33.3665
33.1831
32.9772
32.7527
32.5131
32.2621
32.003
31.7386
31.4762
31.2209
30.9771
30.7486
30.5384
30.3494
30.1837
30.0432
29.9294
29.8438
29.7873
29.7608
29.7651
29.8001
29.8648
29.9585
30.0798
30.2275
30.4
30.5952
30.8108
31.0439
31.2913
31.5492
31.8132
32.0761
32.3332
32.5814
32.8171
33.0367
33.2366
33.4131
33.5626
33.6815
33.7665
33.8148
33.8238
33.7929
33.7235
33.6176
33.4779
33.3072
33.1087
32.8857
32.6418
32.3804
32.1052
31.8195
31.5269
31.23
30.9378
30.6543
30.3831
30.1275
29.8903
29.6738
29.48
29.3109
29.1677
29.052
28.9649
28.9074
28.8804
26.8717
26.9165
26.9993
27.119
27.2743
27.4635
27.685
27.9364
28.2156
28.5196
28.8454
29.1893
29.547
29.9139
30.2846
30.6513
31.0091
31.3531
31.6785
31.9804
32.2543
32.4957
32.7006
32.865
32.9855
33.0591
33.0835
33.0574
32.9826
32.8622
32.7001
32.5003
32.2673
32.0058
31.7205
31.4162
31.0978
30.7701
30.4379
30.1092
29.7898
29.4846
29.1984
28.935
28.6978
28.4896
28.3131
28.1701
28.0623
27.9912
27.9579
27.9634
28.0073
28.0888
28.2066
28.3591
28.5448
28.7613
29.0061
29.2763
29.5683
29.8779
30.2005
30.5307
30.8623
31.1879
31.5028
31.8023
32.0814
32.3354
32.5595
32.7492
32.9001
33.0081
33.0696
33.0815
33.0432
32.9563
32.8232
32.6472
32.4317
32.1808
31.8988
31.5899
31.2588
30.9105
30.5497
30.1812
29.8112
29.4463
29.092
28.7527
28.4326
28.1352
27.8635
27.6202
27.4075
27.2275
27.0819
26.9723
26.9
26.866
24.9598
25.0132
25.1118
25.2544
25.4393
25.6647
25.9283
26.2274
26.5593
26.9204
27.3069
27.7144
28.138
28.5719
29.0098
29.4448
29.8706
30.281
30.6695
31.0301
31.357
31.6448
31.8885
32.0837
32.2262
32.3127
32.3408
32.3089
32.2191
32.0749
31.8806
31.6412
31.3619
31.0482
30.706
30.3414
29.9607
29.5703
29.1765
28.7869
28.408
28.046
27.706
27.3929
27.1107
26.863
26.6527
26.4822
26.3538
26.2691
26.2294
26.2359
26.2883
26.3854
26.5258
26.7076
26.9286
27.1863
27.4775
27.7986
28.1452
28.5126
28.8951
29.2866
29.6801
30.0684
30.4452
30.8041
31.1389
31.4435
31.7122
31.9395
32.1202
32.2496
32.3236
32.3387
32.2942
32.1917
32.0341
31.825
31.5685
31.2693
30.9325
30.5636
30.1684
29.7531
29.3242
28.8878
28.4503
28.0187
27.5991
27.1969
26.817
26.4637
26.1407
25.8512
25.598
25.3836
25.2102
25.0796
24.9935
24.9531
23.1568
23.2179
23.331
23.4945
23.7067
23.9652
24.2674
24.6103
24.9903
25.4035
25.8454
26.3108
26.7941
27.2886
27.7872
28.2833
28.7698
29.2391
29.6838
30.0966
30.4708
30.8
31.0783
31.3005
31.4623
31.5598
31.5904
31.5529
31.4492
31.2833
31.0597
30.7842
30.4626
30.1015
29.7078
29.2888
28.852
28.4051
27.9555
27.5103
27.0772
26.663
26.2738
25.9151
25.5915
25.3072
25.0658
24.8701
24.7226
24.6253
24.5798
24.5873
24.6474
24.7589
24.9201
25.1288
25.3826
25.6782
26.012
26.3798
26.7766
27.1968
27.634
28.0813
28.5308
28.9755
29.408
29.8206
30.2059
30.5566
30.8659
31.1275
31.3354
31.4844
31.57
31.5884
31.5389
31.4231
31.2441
31.0058
30.7127
30.3704
29.9848
29.5624
29.1101
28.6354
28.1457
27.6484
27.15
26.6579
26.179
25.7196
25.2852
24.8809
24.5108
24.179
23.8886
23.6428
23.4439
23.2942
23.1955
23.1491
21.4654
21.5336
21.6596
21.842
22.0787
22.367
22.704
23.0862
23.5096
23.9696
24.4611
24.9784
25.5149
26.0634
26.616
27.1661
27.7055
28.226
28.7193
29.1773
29.5922
29.9568
30.2646
30.5098
30.6875
30.7939
30.8262
30.7833
30.6672
30.4818
30.2324
29.9248
29.5659
29.163
28.7239
28.257
27.7706
27.2734
26.7736
26.2785
25.7966
25.3353
24.9016
24.5016
24.1405
23.8232
23.5535
23.3349
23.1702
23.0615
23.0108
23.0191
23.0862
23.2107
23.3908
23.6239
23.9073
24.2373
24.6098
25.0198
25.4618
25.9296
26.4161
26.9135
27.4132
27.9082
28.3899
28.8498
29.2795
29.6708
30.0161
30.308
30.54
30.7065
30.8025
30.8244
30.7712
30.6446
30.4476
30.1844
29.8602
29.4808
29.0532
28.5846
28.0829
27.5564
27.0132
26.4618
25.9095
25.3636
24.8318
24.3212
23.8379
23.3877
22.9754
22.6054
22.2816
22.0073
21.7855
21.6185
21.5085
21.4569
19.8847
19.959
20.0964
20.2955
20.5538
20.8686
21.2364
21.6534
22.115
22.6163
23.1515
23.7143
24.2974
24.8931
25.4927
26.0894
26.6742
27.2382
27.7724
28.268
28.7167
29.1105
29.4425
29.7062
29.8966
30.0097
30.0427
29.9947
29.8676
29.6655
29.3938
29.0589
28.668
28.2292
27.7511
27.2427
26.7132
26.1718
25.6278
25.0887
24.5635
24.0605
23.5873
23.1506
22.7562
22.4093
22.1146
21.8756
21.6955
21.5768
21.5214
21.5304
21.6037
21.7398
21.9366
22.1916
22.5013
22.8619
23.2687
23.7163
24.1985
24.7085
25.2385
25.7801
26.3241
26.8629
27.3874
27.8881
28.3561
28.7822
29.1582
29.4761
29.729
29.9105
30.0159
30.0412
29.9857
29.8507
29.6394
29.356
29.0061
28.5962
28.1336
27.6264
27.083
26.5123
25.9233
25.3248
24.7257
24.1328
23.5547
22.9991
22.4728
21.9821
21.5324
21.1287
20.7753
20.4759
20.2338
20.0517
19.9317
19.8754
18.4105
18.49
18.6373
18.8508
19.1279
19.4655
19.86
20.3071
20.8019
21.3388
21.9116
22.5133
23.1364
23.7722
24.4118
25.0477
25.6703
26.2701
26.8377
27.3637
27.8393
28.2561
28.6068
28.8847
29.0845
29.202
29.2349
29.1822
29.0457
28.8296
28.5394
28.1817
27.7643
27.2956
26.7847
26.2413
25.6751
25.0959
24.5137
23.9365
23.3739
22.8347
22.3272
21.8584
21.435
21.0625
20.7459
20.4891
20.2957
20.1683
20.1088
20.1185
20.1972
20.3433
20.5547
20.8286
21.1613
21.5485
21.9852
22.4655
22.9826
23.5292
24.0969
24.6766
25.2587
25.8351
26.3959
26.9311
27.4311
27.8863
28.2878
28.6273
28.8974
29.0917
29.2051
29.2339
29.1772
29.0363
28.8143
28.5155
28.1456
27.7116
27.2211
26.6826
26.105
25.4979
24.8705
24.2325
23.5934
22.9604
22.3427
21.7484
21.185
20.6594
20.1774
19.7445
19.3655
19.0444
18.7847
18.5894
18.4608
18.4006
17.0365
17.1204
17.276
17.5016
17.7945
18.1515
18.5685
19.041
19.5636
20.1304
20.7346
21.3689
22.025
22.694
23.3664
24.0341
24.6871
25.3153
25.909
26.4583
26.9543
27.3883
27.7525
28.0404
28.2463
28.3665
28.3983
28.3413
28.197
27.9696
27.6645
27.2886
26.8498
26.3569
25.8194
25.2472
24.6506
24.0401
23.426
22.8167
22.2226
21.6529
21.1163
20.6205
20.1725
19.7782
19.443
19.1713
18.9666
18.8318
18.7689
18.7792
18.8623
19.0169
19.2407
19.5306
19.8828
20.2926
20.7546
21.2625
21.8091
22.3865
22.9858
23.5975
24.2115
24.8191
25.4099
25.9734
26.4993
26.978
27.4
27.7568
28.0408
28.2455
28.3657
28.3979
28.3412
28.1968
27.9675
27.6577
27.2732
26.8211
26.3094
25.7467
25.1424
24.5062
23.848
23.1779
22.5058
21.8397
21.189
20.5625
19.9681
19.413
18.9039
18.4464
18.0457
17.7062
17.4317
17.2254
17.0896
17.0261
15.7549
15.8424
16.0047
16.2402
16.5461
16.9188
17.3541
17.8472
18.3924
18.9833
19.6128
20.2731
20.9555
21.6507
22.3488
23.041
23.7171
24.3666
24.9793
25.5455
26.0558
26.5013
26.8745
27.1685
27.3778
27.4987
27.5288
27.4678
27.3172
27.0808
26.7643
26.3744
25.9192
25.4075
24.8492
24.2545
23.6339
22.9983
22.3585
21.7234
21.1038
20.5093
19.9491
19.4313
18.9631
18.5511
18.2008
17.9168
17.7029
17.5621
17.4965
17.5072
17.594
17.7555
17.9893
18.2923
18.6604
19.0887
19.5713
20.1017
20.6723
21.2746
21.8994
22.5367
23.1765
23.8091
24.4235
25.0091
25.5554
26.0522
26.49
26.8601
27.1548
27.3677
27.4935
27.5291
27.4734
27.3275
27.0941
26.7774
26.3833
25.9188
25.392
24.8119
24.1878
23.5298
22.8481
22.1531
21.4552
20.7628
20.0858
19.4335
18.8141
18.2353
17.7041
17.2266
16.8083
16.4538
16.1673
15.9519
15.8103
15.744
14.5572
14.6474
14.815
15.0581
15.374
15.7589
16.2083
16.7173
17.2798
17.8891
18.5377
19.2175
19.9194
20.6339
21.3506
22.0603
22.7524
23.4162
24.0416
24.6184
25.1373
25.5895
25.9673
26.264
26.4743
26.5944
26.6221
26.5574
26.4017
26.1588
25.8339
25.4339
24.9669
24.4417
23.8683
23.2569
22.6186
21.9642
21.305
20.6504
20.0114
19.398
18.8196
18.2848
17.8012
17.3755
17.0134
16.7199
16.499
16.3536
16.2858
16.2969
16.3865
16.5533
16.7949
17.108
17.4884
17.9309
18.4295
18.9772
19.5661
20.1875
20.8316
21.4882
22.1475
22.7987
23.4307
24.0325
24.5935
25.1033
25.5524
25.9321
26.2347
26.4537
26.5842
26.6231
26.5694
26.4239
26.189
25.869
25.4697
24.9981
24.4621
23.8707
23.2336
22.5607
21.8626
21.1498
20.433
19.7212
19.0247
18.3529
17.7146
17.1177
16.5696
16.0767
15.6448
15.2787
14.9828
14.7605
14.6143
14.5461
13.4347
13.5268
13.6981
13.9467
14.2696
14.6631
15.1226
15.6426
16.217
16.8389
17.5005
18.1932
18.908
19.6348
20.3632
21.0834
21.7847
22.4565
23.0881
23.6699
24.1922
24.6465
25.0252
25.3217
25.5308
25.6488
25.6738
25.6056
25.4459
25.1983
24.868
24.4617
23.9873
23.4536
22.8703
22.2483
21.5982
20.9314
20.2591
19.5913
18.939
18.3126
17.7218
17.1752
16.6807
16.2454
15.8751
15.5749
15.349
15.2003
15.1311
15.1424
15.234
15.4045
15.6516
15.9718
16.3609
16.8134
17.3231
17.8828
18.4844
19.1188
19.7762
20.446
21.1182
21.7816
22.425
23.0373
23.6078
24.1259
24.5821
24.9678
25.2756
25.499
25.6334
25.6756
25.6245
25.4807
25.2468
24.9267
24.5262
24.0521
23.5123
22.9156
22.2717
21.5906
20.8829
20.1592
19.4305
18.7062
17.9968
17.312
16.6608
16.0515
15.4917
14.988
14.5465
14.1722
13.8697
13.6424
13.4931
13.4233
12.3787
12.472
12.6455
12.8974
13.2245
13.623
14.0882
14.6145
15.1955
15.8241
16.4923
17.1916
17.9124
18.6447
19.378
20.1019
20.8059
21.4791
22.1112
22.6924
23.2134
23.6658
24.042
24.3358
24.542
24.6571
24.679
24.6077
24.445
24.1945
23.8613
23.4519
22.974
22.4365
21.849
21.222
20.5665
19.8935
19.2146
18.5399
17.8806
17.2472
16.6495
16.0964
15.5958
15.1549
14.7799
14.4759
14.247
14.0965
14.0264
14.0378
14.1306
14.3033
14.5536
14.878
15.2719
15.7301
16.2461
16.8125
17.4209
18.0624
18.7268
19.4034
20.0821
20.7515
21.4003
22.0173
22.5918
23.1136
23.5731
23.9619
24.2726
24.499
24.6363
24.6816
24.6336
24.4927
24.2616
23.9442
23.546
23.0737
22.535
21.9386
21.294
20.6111
19.9005
19.1728
18.4389
17.709
16.9934
16.302
15.6441
15.0281
14.4617
13.952
13.5049
13.1258
12.8194
12.5891
12.4378
12.3672
11.381
11.4748
11.6491
11.902
12.2305
12.6304
13.0971
13.6247
14.2068
14.8362
15.5048
16.2039
16.9239
17.6547
18.3855
19.1065
19.8066
20.4754
21.1026
21.6785
22.194
22.6409
23.0118
23.3007
23.5025
23.6139
23.6327
23.5588
23.3943
23.1426
22.8089
22.3994
21.9219
21.385
20.7981
20.1717
19.5165
18.8435
18.1643
17.4893
16.8295
16.1953
15.5967
15.0425
14.5407
14.0987
13.7224
13.4173
13.1875
13.0364
12.9659
12.9774
13.0706
13.2441
13.4953
13.8208
14.216
14.6754
15.1925
15.76
16.3694
17.0115
17.6765
18.3535
19.0323
19.7015
20.3498
20.9663
21.5401
22.0614
22.5206
22.9096
23.2209
23.4487
23.5881
23.6361
23.5913
23.4544
23.2278
22.9154
22.5226
22.0558
21.5225
20.9314
20.2916
19.613
18.906
18.1812
17.4494
16.7208
16.0058
15.3145
14.6561
14.0391
13.4716
12.9604
12.5119
12.1314
11.8237
11.5924
11.4404
11.3695
10.4337
10.5271
10.7008
10.9526
11.2793
11.6769
12.1405
12.6644
13.242
13.8662
14.5287
15.2209
15.9333
16.6558
17.3778
18.0894
18.7798
19.4386
20.0558
20.6218
21.1278
21.5659
21.9289
22.2109
22.407
22.5139
22.5296
22.4538
22.2886
22.0376
21.7058
21.2994
20.826
20.2939
19.7125
19.0919
18.4427
17.7758
17.1025
16.4335
15.7795
15.1507
14.557
14.0071
13.5091
13.0702
12.6964
12.3932
12.1647
12.0143
11.9442
11.9556
12.0484
12.221
12.4708
12.7942
13.1867
13.6429
14.1561
14.719
15.3234
15.9601
16.6193
17.2904
17.9631
18.6261
19.2684
19.8791
20.4476
20.9642
21.4196
21.8058
22.1156
22.343
22.4834
22.5337
22.4924
22.3603
22.1397
21.8346
21.45
20.9922
20.4685
19.8873
19.2576
18.589
17.8916
17.1761
16.453
15.7324
15.0248
14.3401
13.6875
13.0757
12.5124
12.0048
11.559
11.1808
10.8746
10.6443
10.4929
10.4222
9.52954
9.62175
9.79302
10.0412
10.363
10.7543
11.2104
11.7254
12.2929
12.9057
13.5558
14.2346
14.9327
15.6404
16.3473
17.0434
17.7183
18.3618
18.9641
19.5159
20.0088
20.4349
20.7875
21.0606
21.2498
21.3516
21.3642
21.2871
21.1226
20.8742
20.5469
20.1467
19.681
19.1581
18.587
17.9775
17.3399
16.685
16.0238
15.3671
14.725
14.1078
13.5247
12.9846
12.4953
12.0639
11.6964
11.3981
11.1731
11.025
10.9559
10.9672
11.0586
11.2285
11.4744
11.7926
12.1785
12.6268
13.131
13.6839
14.2774
14.9025
15.5497
16.2086
16.8691
17.5202
18.1509
18.7507
19.3092
19.817
20.265
20.6455
20.9512
21.1766
21.3169
21.369
21.3313
21.2048
20.9917
20.6959
20.3222
19.8767
19.3665
18.7997
18.1851
17.5319
16.8501
16.1499
15.4419
14.736
14.0424
13.3708
12.7303
12.1295
11.576
11.0769
10.6384
10.266
9.96433
9.73734
9.58798
9.5182
8.66192
8.75197
8.9191
9.16107
9.47463
9.85573
10.2995
10.8004
11.3521
11.9475
12.5788
13.2377
13.9152
14.6015
15.2871
15.9618
16.6156
17.2385
17.8212
18.3547
18.8308
19.242
19.5816
19.8442
20.0252
20.1215
20.1311
20.0535
19.891
19.6472
19.327
18.9363
18.4822
17.9727
17.4166
16.8235
16.2032
15.5663
14.9233
14.285
13.6611
13.0613
12.4948
11.9699
11.4943
11.0748
10.7173
10.427
10.208
10.0636
9.9963
10.0073
10.0964
10.2619
10.5013
10.8109
11.1863
11.6221
12.1122
12.6496
13.2263
13.8337
14.4626
15.1032
15.7454
16.3787
16.9923
17.576
18.1199
18.6147
19.0518
19.4234
19.7227
19.9441
20.0831
20.1364
20.1024
19.9822
19.778
19.4934
19.1332
18.7032
18.2103
17.6623
17.0675
16.435
15.7745
15.0958
14.4092
13.7244
13.0513
12.3992
11.7772
11.1933
10.6551
10.1696
9.7428
9.38011
9.08616
8.86478
8.71901
8.65085
7.82513
7.91201
8.07316
8.3063
8.60823
8.97496
9.4018
9.88334
10.4135
10.9854
11.5916
12.2242
12.8743
13.533
14.191
14.8384
15.4655
16.0629
16.6213
17.1324
17.5881
17.9812
18.3056
18.5558
18.7276
18.8179
18.8247
18.7475
18.5886
18.3516
18.0412
17.6633
17.2247
16.7331
16.197
15.6254
15.0281
14.4151
13.7965
13.1828
12.5832
12.007
11.4627
10.9585
10.5016
10.0984
9.75479
9.4756
9.26493
9.12598
9.06111
9.07172
9.15754
9.31686
9.54709
9.84478
10.2056
10.6244
11.0953
11.6115
12.1655
12.7492
13.3537
13.9696
14.5875
15.1971
15.7881
16.3506
16.8751
17.3526
17.7749
18.1345
18.4248
18.6404
18.7767
18.8305
18.8002
18.6869
18.4928
18.2214
17.8772
17.4659
16.994
16.469
15.8988
15.2923
14.6587
14.0075
13.3485
12.6913
12.0452
11.4192
10.8218
10.2608
9.74368
9.27685
8.8663
8.51723
8.23414
8.0208
7.88022
7.81444
7.01417
7.09687
7.25017
7.4718
7.75864
8.10688
8.51202
8.9689
9.47173
10.0141
10.5889
11.1886
11.8051
12.4297
13.0539
13.668
14.2629
14.8295
15.359
15.8435
16.2752
16.6474
16.9542
17.1903
17.3518
17.4356
17.4399
17.364
17.2104
16.9825
16.6849
16.3233
15.9042
15.4351
14.9239
14.3794
13.8107
13.2276
12.6396
12.0567
11.4876
10.9409
10.4248
9.94665
9.51335
9.13102
8.80506
8.54015
8.34016
8.2082
8.14656
8.15665
8.23819
8.38948
8.60801
8.89046
9.23271
9.6299
10.0764
10.5659
11.0914
11.6452
12.219
12.8042
13.3917
13.9716
14.5344
15.0704
15.5706
16.0264
16.4301
16.7743
17.0528
17.2603
17.3925
17.446
17.4193
17.3135
17.1308
16.8745
16.5489
16.1594
15.7123
15.2146
14.6739
14.0986
13.4976
12.8798
12.2547
11.6315
11.0189
10.4254
9.85893
9.32698
8.83639
8.39342
8.0037
7.67219
7.40321
7.20038
7.06662
7.004
6.22477
6.30227
6.44583
6.65327
6.9216
7.24724
7.62595
8.05292
8.52275
9.02946
9.56654
10.127
10.7032
11.2874
11.8715
12.4464
13.0035
13.5341
14.03
14.4835
14.8876
15.2359
15.5225
15.7428
15.8929
15.9699
15.9721
15.8987
15.752
15.5357
15.254
14.9124
14.5171
14.0751
13.594
13.0821
12.548
12.0007
11.4495
10.9037
10.3713
9.86026
9.37794
8.93126
8.52652
8.16939
7.86488
7.61734
7.4304
7.30699
7.24931
7.25876
7.33505
7.47652
7.68077
7.94468
8.26441
8.63542
9.05251
9.50984
10.0009
10.5188
11.0557
11.6039
12.1548
12.6991
13.2278
13.7319
14.2027
14.6323
15.0132
15.3386
15.6024
15.7996
15.926
15.9783
15.9551
15.8574
15.6873
15.4481
15.1437
14.7793
14.3607
13.8946
13.3883
12.8496
12.2868
11.7085
11.1237
10.5409
9.96834
9.41374
8.88449
8.38748
7.92907
7.51508
7.15075
6.84074
6.58908
6.39921
6.27393
6.21524
5.45329
5.52458
5.65657
5.84718
6.09365
6.39264
6.74029
7.13219
7.5634
8.02851
8.5216
9.0363
9.56587
10.1032
10.6409
11.1706
11.6841
12.1733
12.6307
13.0491
13.4218
13.7429
14.0069
14.2096
14.3472
14.4171
14.4174
14.3476
14.21
14.0078
13.7454
13.4277
13.0606
12.6506
12.205
11.7313
11.2377
10.7325
10.2243
9.72179
9.23224
8.76271
8.31987
7.90993
7.53856
7.21091
6.93153
6.70438
6.53279
6.41948
6.36649
6.37518
6.44525
6.57514
6.76261
7.00477
7.29811
7.63851
8.02123
8.441
8.89197
9.36782
9.86174
10.3666
10.8747
11.3774
11.8661
12.3327
12.769
13.1675
13.5213
13.8241
14.0701
14.2545
14.3734
14.4236
14.4037
14.3147
14.1585
13.9383
13.6578
13.3218
12.9358
12.5059
12.0389
11.5422
11.0235
10.4908
9.9525
9.41665
8.89056
8.38127
7.89541
7.43923
7.0185
6.63851
6.30405
6.01937
5.7882
5.61371
5.49852
5.44452
4.69668
4.76079
4.87943
5.05068
5.27205
5.54053
5.85265
6.20448
6.59165
7.00935
7.45234
7.91504
8.39151
8.87553
9.36059
9.83896
10.3031
10.7455
11.1594
11.538
11.8754
12.166
12.4049
12.588
12.7119
12.7742
12.7733
12.7084
12.5818
12.3967
12.1568
11.8671
11.5329
11.1601
10.7554
10.3258
9.87869
9.42171
8.96275
8.50976
8.06909
7.64691
7.24906
6.88095
6.54761
6.25356
6.00284
5.79897
5.64494
5.54319
5.49559
5.5034
5.56634
5.68296
5.85124
6.06858
6.33184
6.63734
6.98092
7.3579
7.76315
8.19113
8.63591
9.09123
9.5503
10.0052
10.4481
10.8713
11.2677
11.6302
11.9525
12.2287
12.4536
12.6227
12.7323
12.7793
12.7624
12.6826
12.5418
12.3428
12.089
11.7849
11.4354
11.0463
10.6239
10.1747
9.70601
9.22511
8.73967
8.25716
7.78396
7.32622
6.88978
6.48013
6.10239
5.76125
5.46097
5.20533
4.99769
4.84091
4.73736
4.6888
3.95239
4.00841
4.11203
4.26156
4.45479
4.6891
4.96149
5.26856
5.60652
5.97127
6.35833
6.76293
7.18005
7.60447
8.03062
8.45151
8.86031
9.25043
9.61559
9.94986
10.2478
10.5044
10.7153
10.8768
10.9859
11.0403
11.0385
10.9799
10.8665
10.7013
10.4878
10.2303
9.93368
9.60336
9.24524
8.8656
8.47107
8.0685
7.66494
7.26752
6.88161
6.51238
6.16476
5.84335
5.55242
5.29584
5.0771
4.89923
4.76482
4.67601
4.63445
4.64127
4.69623
4.79802
4.94485
5.13448
5.36416
5.63075
5.93065
6.25987
6.61405
6.98848
7.37817
7.77789
8.18176
8.58267
8.97361
9.34779
9.69866
10.02
10.3062
10.5517
10.7521
10.9031
11.0013
11.044
11.03
10.9601
10.8361
10.6605
10.4364
10.1678
9.85922
9.51579
9.14312
8.74721
8.33445
7.91149
7.48521
7.06234
6.64824
6.24807
5.86681
5.50914
5.17943
4.88172
4.61966
4.39655
4.2153
4.0784
3.98794
3.94551
3.21834
3.26543
3.35252
3.47816
3.64049
3.83731
4.06611
4.32408
4.6081
4.91475
5.24039
5.58114
5.93295
6.29164
6.65273
7.01005
7.35762
7.68971
8.00086
8.28592
8.54012
8.75916
8.93919
9.07698
9.16987
9.21587
9.21368
9.16272
9.06483
8.92257
8.73914
8.51828
8.26423
7.98173
7.67589
7.35218
7.01631
6.67425
6.3321
5.9961
5.67053
5.35953
5.06704
4.79682
4.55234
4.33681
4.15308
4.00369
3.89079
3.81618
3.78125
3.78699
3.83317
3.91868
4.04202
4.20129
4.39421
4.61818
4.87022
5.14707
5.44516
5.76068
6.08963
6.42784
6.77046
7.11129
7.44425
7.76344
8.06321
8.33817
8.58332
8.79405
8.96625
9.09633
9.18128
9.2186
9.2072
9.14791
9.04223
8.89234
8.70106
8.47182
8.20857
7.91577
7.5983
7.26139
6.91059
6.55169
6.19073
5.83358
5.48448
5.14758
4.82689
4.52623
4.24919
3.99909
3.77896
3.59156
3.43929
3.32426
3.24823
3.21255
2.49279
2.53024
2.59948
2.69934
2.82834
2.98475
3.16658
3.37163
3.59746
3.84142
4.10069
4.37231
4.65324
4.94041
5.2305
5.51826
5.7987
6.06706
6.31881
6.54969
6.75575
6.93341
7.07948
7.19126
7.26653
7.30364
7.30147
7.25955
7.17943
7.06328
6.91376
6.73399
6.52752
6.29826
6.05044
5.78856
5.51735
5.24172
4.96674
4.69766
4.43762
4.18965
3.95674
3.74173
3.54732
3.37598
3.22995
3.11122
3.02149
2.96218
2.93441
2.93897
2.97569
3.04366
3.14169
3.26828
3.42162
3.59968
3.80015
4.02047
4.25792
4.50961
4.77253
5.04366
5.31923
5.59403
5.86303
6.12137
6.36437
6.5876
6.78692
6.9585
7.09892
7.20519
7.27478
7.30557
7.29666
7.24873
7.16305
7.04144
6.88626
6.70034
6.48699
6.2499
5.99312
5.72099
5.43809
5.14925
4.85953
4.57383
4.29521
4.02676
3.77149
3.53234
3.31208
3.1133
2.93837
2.78945
2.66844
2.57702
2.51658
2.4882
1.77438
1.80158
1.85187
1.92439
2.01806
2.13163
2.26367
2.41261
2.57669
2.75404
2.94268
3.14055
3.3456
3.55587
3.76939
3.98184
4.18936
4.3883
4.57522
4.74688
4.90026
5.03261
5.14151
5.22486
5.28097
5.30856
5.30678
5.27526
5.21519
5.12826
5.01652
4.88234
4.72845
4.55783
4.3737
4.17946
3.9787
3.77515
3.57273
3.37558
3.18568
3.00497
2.83546
2.67912
2.53782
2.41333
2.30725
2.22101
2.15583
2.11274
2.09256
2.09588
2.12256
2.17194
2.24315
2.3351
2.4465
2.57588
2.7216
2.88185
3.05472
3.23824
3.43041
3.62932
3.83237
4.03544
4.23468
4.42638
4.60702
4.77322
4.92183
5.04995
5.15493
5.23449
5.28669
5.30988
5.30337
5.26769
5.20381
5.11312
4.99745
4.85897
4.70022
4.52401
4.33344
4.1318
3.92261
3.70957
3.49662
3.2876
3.08435
2.88886
2.70318
2.52936
2.36934
2.22497
2.09794
1.98981
1.90195
1.83556
1.79166
1.77105
1.06194
1.07845
1.10896
1.15296
1.20978
1.27868
1.35878
1.44915
1.54874
1.65642
1.77104
1.8914
2.0164
2.14508
2.27688
2.40855
2.53754
2.66149
2.77818
2.88552
2.98158
3.06459
3.13295
3.18532
3.2206
3.23795
3.23682
3.21697
3.17919
3.12455
3.05439
2.97025
2.87387
2.76719
2.65226
2.53126
2.40648
2.28031
2.15533
2.03445
1.91857
1.80858
1.70554
1.61057
1.52477
1.44921
1.38482
1.33247
1.29291
1.26676
1.25451
1.25652
1.27272
1.30269
1.34592
1.40173
1.46935
1.54789
1.63638
1.73374
1.83885
1.95062
2.06801
2.19024
2.31576
2.44174
2.56565
2.68514
2.79794
2.90191
2.99501
3.07538
3.14131
3.19133
3.22417
3.23877
3.23468
3.21224
3.17208
3.11511
3.04251
2.9557
2.85631
2.74617
2.62727
2.50173
2.37181
2.23994
2.10883
1.98103
1.8572
1.73832
1.62553
1.52
1.42289
1.33529
1.25824
1.19264
1.13934
1.09907
1.07244
1.05993
0.354526
0.360058
0.370281
0.385014
0.404036
0.427092
0.453891
0.48411
0.5174
0.553387
0.591686
0.631918
0.673765
0.7171
0.762458
0.808275
0.853394
0.896917
0.938032
0.975973
1.01002
1.03952
1.06387
1.08256
1.09519
1.10143
1.10109
1.09408
1.08069
1.06131
1.03644
1.00665
0.972591
0.934976
0.894559
0.852131
0.808519
0.764593
0.721335
0.680115
0.641199
0.604403
0.569964
0.538224
0.509545
0.484276
0.462739
0.445224
0.431982
0.423226
0.419125
0.419799
0.425223
0.435258
0.449724
0.468397
0.491014
0.517277
0.546854
0.579392
0.61453
0.651936
0.691429
0.733385
0.776919
0.820831
0.864181
0.906115
0.945814
0.982494
1.01541
1.04388
1.06725
1.08499
1.09663
1.10177
1.10025
1.09219
1.07783
1.05751
1.03166
1.00083
0.965632
0.926737
0.88488
0.840842
0.795458
0.749682
0.704876
0.661919
0.620482
0.58075
0.54306
0.507791
0.475325
0.446031
0.420251
0.398298
0.380455
0.366968
0.35805
0.35386
)
;

boundaryField
{
    top
    {
        type            fixedValue;
        value           uniform 0;
    }
    bottom
    {
        type            fixedValue;
        value           uniform 36.5;
    }
    frontAndBack
    {
        type            empty;
    }
    left_cyc
    {
        type            cyclic;
    }
    right_cyc
    {
        type            cyclic;
    }
}


// ************************************************************************* //
