/*--------------------------------*- C++ -*----------------------------------*\
| =========                 |                                                 |
| \\      /  F ield         | OpenFOAM: The Open Source CFD Toolbox           |
|  \\    /   O peration     | Version:  2.3.0                                 |
|   \\  /    A nd           | Web:      www.OpenFOAM.org                      |
|    \\/     M anipulation  |                                                 |
\*---------------------------------------------------------------------------*/
FoamFile
{
    version     2.0;
    format      ascii;
    class       volVectorField;
    location    "3000";
    object      U;
}
// * * * * * * * * * * * * * * * * * * * * * * * * * * * * * * * * * * * * * //

dimensions      [0 1 -1 0 0 0 0];

internalField   nonuniform List<vector> 
3060
(
(0.255392 0 -0.125247)
(0.651709 0 -0.124037)
(1.04057 0 -0.121686)
(1.41745 0 -0.117924)
(1.77759 0 -0.112344)
(2.1158 0 -0.10444)
(2.42629 0 -0.0937153)
(2.7026 0 -0.0798951)
(2.93808 0 -0.0631701)
(3.1267 0 -0.0442631)
(3.26372 0 -0.0241343)
(3.34569 0 -0.00356562)
(3.37007 0 0.0168214)
(3.3358 0 0.0361227)
(3.24468 0 0.0531476)
(3.10169 0 0.0670766)
(2.91384 0 0.0776609)
(2.68913 0 0.0849428)
(2.43601 0 0.0892322)
(2.16245 0 0.0910939)
(1.8753 0 0.0912099)
(1.57989 0 0.0902573)
(1.28006 0 0.0888047)
(0.978381 0 0.0872602)
(0.676488 0 0.0858706)
(0.375476 0 0.0847525)
(0.0761734 0 0.083936)
(-0.220648 0 0.0833994)
(-0.514149 0 0.0830949)
(-0.803301 0 0.0829276)
(-1.0867 0 0.082723)
(-1.36234 0 0.0821961)
(-1.62729 0 0.0809368)
(-1.87753 0 0.0784286)
(-2.10776 0 0.0741079)
(-2.31164 0 0.0674586)
(-2.48215 0 0.0581059)
(-2.61221 0 0.045908)
(-2.69543 0 0.0309522)
(-2.72666 0 0.0135674)
(-2.70261 0 -0.00546204)
(-2.6228 0 -0.025009)
(-2.48961 0 -0.044049)
(-2.30732 0 -0.0619122)
(-2.08108 0 -0.0781696)
(-1.81648 0 -0.0924509)
(-1.5195 0 -0.104425)
(-1.19637 0 -0.113882)
(-0.853382 0 -0.120781)
(-0.496661 0 -0.125196)
(-0.132108 0 -0.127218)
(0.23451 0 -0.126888)
(0.59745 0 -0.124202)
(0.950922 0 -0.119101)
(1.28897 0 -0.11149)
(1.6054 0 -0.101317)
(1.89392 0 -0.0886697)
(2.14836 0 -0.0737994)
(2.36283 0 -0.0570551)
(2.53187 0 -0.0388135)
(2.65048 0 -0.0195484)
(2.71481 0 -2.96924e-05)
(2.7232 0 0.0186417)
(2.67699 0 0.0353966)
(2.58009 0 0.0496002)
(2.43805 0 0.0610023)
(2.2575 0 0.0695724)
(2.04557 0 0.075524)
(1.80916 0 0.0792816)
(1.55436 0 0.0813841)
(1.28608 0 0.0823906)
(1.00805 0 0.0827916)
(0.722893 0 0.0829623)
(0.432429 0 0.0831544)
(0.137933 0 0.0835166)
(-0.159635 0 0.0841273)
(-0.459465 0 0.0850273)
(-0.760785 0 0.0862266)
(-1.06272 0 0.0876753)
(-1.36404 0 0.0892245)
(-1.66291 0 0.0905842)
(-1.95642 0 0.0913001)
(-2.24035 0 0.0907654)
(-2.50891 0 0.0882906)
(-2.75489 0 0.0832137)
(-2.97011 0 0.0750294)
(-3.14618 0 0.0635096)
(-3.27532 0 0.0486766)
(-3.35094 0 0.0309151)
(-3.36889 0 0.0111989)
(-3.32824 0 -0.00931005)
(-3.23064 0 -0.0298165)
(-3.07884 0 -0.0496931)
(-2.87663 0 -0.0680845)
(-2.62913 0 -0.0840504)
(-2.34264 0 -0.0970026)
(-2.02382 0 -0.1069)
(-1.67895 0 -0.114105)
(-1.31365 0 -0.119137)
(-0.932951 0 -0.122481)
(-0.541526 0 -0.124503)
(-0.143886 0 -0.125408)
(0.443656 0 -0.674455)
(1.1335 0 -0.665008)
(1.8137 0 -0.647555)
(2.4783 0 -0.622141)
(3.12104 0 -0.588571)
(3.7351 0 -0.546324)
(4.31279 0 -0.494647)
(4.84515 0 -0.432971)
(5.32199 0 -0.3615)
(5.73232 0 -0.28138)
(6.06522 0 -0.194017)
(6.31021 0 -0.100349)
(6.45738 0 -0.00159477)
(6.49846 0 0.0988567)
(6.42949 0 0.195369)
(6.25204 0 0.282922)
(5.97252 0 0.358468)
(5.60104 0 0.420206)
(5.15068 0 0.467727)
(4.63576 0 0.502098)
(4.07027 0 0.52536)
(3.4668 0 0.539977)
(2.83599 0 0.548307)
(2.18659 0 0.55224)
(1.52578 0 0.553072)
(0.859724 0 0.551538)
(0.193986 0 0.547944)
(-0.466071 0 0.542294)
(-1.11504 0 0.534373)
(-1.74722 0 0.523693)
(-2.35632 0 0.509394)
(-2.93508 0 0.490178)
(-3.47493 0 0.464327)
(-3.96583 0 0.429881)
(-4.39646 0 0.384988)
(-4.75481 0 0.328348)
(-5.02929 0 0.259611)
(-5.21001 0 0.179685)
(-5.29009 0 0.0906049)
(-5.26633 0 -0.00460781)
(-5.13968 0 -0.101519)
(-4.91566 0 -0.195053)
(-4.60354 0 -0.281232)
(-4.21452 0 -0.358085)
(-3.76004 0 -0.425019)
(-3.25114 0 -0.481868)
(-2.6983 0 -0.528524)
(-2.11129 0 -0.565012)
(-1.4991 0 -0.591586)
(-0.869871 0 -0.608629)
(-0.23107 0 -0.616455)
(0.410232 0 -0.615177)
(1.04707 0 -0.604786)
(1.67229 0 -0.585108)
(2.27826 0 -0.555791)
(2.85662 0 -0.516471)
(3.39815 0 -0.466956)
(3.89287 0 -0.407272)
(4.33014 0 -0.337542)
(4.69878 0 -0.257984)
(4.9873 0 -0.169468)
(5.18485 0 -0.0745149)
(5.28307 0 0.0224264)
(5.27766 0 0.116292)
(5.16895 0 0.203056)
(4.96117 0 0.280008)
(4.66215 0 0.345388)
(4.28241 0 0.398652)
(3.83377 0 0.440455)
(3.32813 0 0.472294)
(2.7765 0 0.496096)
(2.18851 0 0.513779)
(1.57233 0 0.526953)
(0.934911 0 0.536791)
(0.282348 0 0.54404)
(-0.379771 0 0.549101)
(-1.04608 0 0.552129)
(-1.71118 0 0.553046)
(-2.36939 0 0.551441)
(-3.01431 0 0.546433)
(-3.63836 0 0.536558)
(-4.23231 0 0.519773)
(-4.78495 0 0.493646)
(-5.28322 0 0.455777)
(-5.71291 0 0.404344)
(-6.05987 0 0.338652)
(-6.31173 0 0.259544)
(-6.45934 0 0.169136)
(-6.49753 0 0.0709545)
(-6.4262 0 -0.0295212)
(-6.2508 0 -0.127064)
(-5.98027 0 -0.219039)
(-5.62471 0 -0.304488)
(-5.19473 0 -0.382336)
(-4.70135 0 -0.45115)
(-4.15539 0 -0.510015)
(-3.56673 0 -0.558993)
(-2.94396 0 -0.598762)
(-2.29448 0 -0.630043)
(-1.62491 0 -0.653263)
(-0.941414 0 -0.668519)
(-0.249934 0 -0.675666)
(0.431137 0 -1.49765)
(1.10218 0 -1.48304)
(1.76554 0 -1.45548)
(2.41656 0 -1.41444)
(3.05082 0 -1.35889)
(3.66421 0 -1.28711)
(4.25289 0 -1.19659)
(4.81293 0 -1.08441)
(5.33943 0 -0.948232)
(5.82513 0 -0.787567)
(6.25927 0 -0.603898)
(6.62755 0 -0.399623)
(6.9133 0 -0.178395)
(7.0993 0 0.0523491)
(7.17017 0 0.281392)
(7.11515 0 0.498451)
(6.92997 0 0.696189)
(6.61717 0 0.868535)
(6.1857 0 1.01178)
(5.64923 0 1.12555)
(5.02392 0 1.21206)
(4.3265 0 1.27512)
(3.57291 0 1.31891)
(2.77781 0 1.34709)
(1.95452 0 1.36235)
(1.11539 0 1.36636)
(0.272137 0 1.35989)
(-0.563798 0 1.3431)
(-1.38105 0 1.31561)
(-2.1681 0 1.2765)
(-2.91307 0 1.22412)
(-3.60341 0 1.15604)
(-4.22578 0 1.06926)
(-4.76626 0 0.960692)
(-5.211 0 0.827989)
(-5.54749 0 0.670537)
(-5.76617 0 0.490132)
(-5.86213 0 0.291334)
(-5.83617 0 0.0805815)
(-5.69508 0 -0.134869)
(-5.45051 0 -0.346583)
(-5.11726 0 -0.5456)
(-4.71135 0 -0.725047)
(-4.24795 0 -0.881728)
(-3.74017 0 -1.01501)
(-3.19865 0 -1.12528)
(-2.63172 0 -1.21338)
(-2.04577 0 -1.28062)
(-1.44594 0 -1.32862)
(-0.836636 0 -1.35896)
(-0.221968 0 -1.37276)
(0.394105 0 -1.37051)
(1.00767 0 -1.35215)
(1.61472 0 -1.31699)
(2.21111 0 -1.26376)
(2.79227 0 -1.19083)
(3.35277 0 -1.09663)
(3.88574 0 -0.979992)
(4.38225 0 -0.84018)
(4.83094 0 -0.676998)
(5.21808 0 -0.491607)
(5.5281 0 -0.288212)
(5.74507 0 -0.0745522)
(5.85492 0 0.140353)
(5.84719 0 0.348428)
(5.71674 0 0.542657)
(5.46439 0 0.71696)
(5.09653 0 0.867537)
(4.62372 0 0.993323)
(4.05897 0 1.0955)
(3.41627 0 1.17672)
(2.70941 0 1.24011)
(1.95152 0 1.28857)
(1.15492 0 1.32429)
(0.331384 0 1.34872)
(-0.507655 0 1.36261)
(-1.35083 0 1.36618)
(-2.18665 0 1.35913)
(-3.00325 0 1.34047)
(-3.78805 0 1.30824)
(-4.5274 0 1.25948)
(-5.20625 0 1.19029)
(-5.80836 0 1.09651)
(-6.317 0 0.974646)
(-6.7165 0 0.82312)
(-6.99428 0 0.643204)
(-7.14306 0 0.439455)
(-7.16222 0 0.218272)
(-7.05788 0 -0.0123883)
(-6.84237 0 -0.241483)
(-6.53184 0 -0.458503)
(-6.14359 0 -0.657286)
(-5.69378 0 -0.83474)
(-5.19578 0 -0.988643)
(-4.65934 0 -1.11798)
(-4.0909 0 -1.22384)
(-3.49496 0 -1.30885)
(-2.87537 0 -1.3759)
(-2.23601 0 -1.42728)
(-1.58111 0 -1.46451)
(-0.915163 0 -1.48843)
(-0.242857 0 -1.49946)
(0.399246 0 -2.08494)
(1.01916 0 -2.06445)
(1.62821 0 -2.02602)
(2.21998 0 -1.96963)
(2.78846 0 -1.89514)
(3.32839 0 -1.80214)
(3.83558 0 -1.68979)
(4.30725 0 -1.55667)
(4.74204 0 -1.40069)
(5.13936 0 -1.21896)
(5.49828 0 -1.00791)
(5.81691 0 -0.763606)
(6.09225 0 -0.483351)
(6.31805 0 -0.168899)
(6.47965 0 0.170321)
(6.55301 0 0.518558)
(6.5148 0 0.857997)
(6.34938 0 1.17138)
(6.05077 0 1.44631)
(5.62279 0 1.67687)
(5.07689 0 1.86238)
(4.42922 0 2.00594)
(3.69811 0 2.11229)
(2.90242 0 2.18611)
(2.06081 0 2.23104)
(1.19152 0 2.24946)
(0.312426 0 2.24258)
(-0.558831 0 2.21075)
(-1.40483 0 2.15371)
(-2.20837 0 2.07042)
(-2.95239 0 1.95895)
(-3.62005 0 1.81651)
(-4.19502 0 1.63989)
(-4.66236 0 1.42642)
(-5.00995 0 1.17538)
(-5.23054 0 0.889518)
(-5.32381 0 0.575723)
(-5.2977 0 0.24546)
(-5.1677 0 -0.0863935)
(-4.95497 0 -0.404674)
(-4.68093 0 -0.696495)
(-4.3613 0 -0.953328)
(-4.00432 0 -1.17267)
(-3.61384 0 -1.35652)
(-3.1925 0 -1.50858)
(-2.74292 0 -1.6325)
(-2.26805 0 -1.73131)
(-1.77131 0 -1.80739)
(-1.25674 0 -1.86246)
(-0.729084 0 -1.89773)
(-0.193686 0 -1.91389)
(0.343779 0 -1.91125)
(0.877568 0 -1.88977)
(1.40207 0 -1.84903)
(1.91207 0 -1.7882)
(2.40305 0 -1.70594)
(2.87113 0 -1.60036)
(3.31306 0 -1.46891)
(3.72598 0 -1.30834)
(4.10733 0 -1.11491)
(4.45433 0 -0.885153)
(4.76229 0 -0.618033)
(5.02106 0 -0.317732)
(5.21288 0 0.0057433)
(5.31574 0 0.338673)
(5.30971 0 0.665696)
(5.18126 0 0.97259)
(4.92481 0 1.24918)
(4.54278 0 1.48979)
(4.04401 0 1.69275)
(3.44159 0 1.85947)
(2.75097 0 1.99291)
(1.98868 0 2.09624)
(1.17164 0 2.17203)
(0.316926 0 2.22195)
(-0.558187 0 2.24679)
(-1.43622 0 2.24667)
(-2.29949 0 2.221)
(-3.13003 0 2.16829)
(-3.90948 0 2.08581)
(-4.61909 0 1.96957)
(-5.24004 0 1.81475)
(-5.75442 0 1.61686)
(-6.1471 0 1.37367)
(-6.40847 0 1.08718)
(-6.53731 0 0.765048)
(-6.54241 0 0.421377)
(-6.44182 0 0.073962)
(-6.26015 0 -0.259711)
(-6.01951 0 -0.565193)
(-5.73167 0 -0.835303)
(-5.40155 0 -1.06993)
(-5.03178 0 -1.27239)
(-4.62396 0 -1.44659)
(-4.17883 0 -1.59593)
(-3.69708 0 -1.72307)
(-3.18044 0 -1.82992)
(-2.63208 0 -1.91771)
(-2.05656 0 -1.98715)
(-1.45937 0 -2.03854)
(-0.846649 0 -2.07197)
(-0.224904 0 -2.08745)
(0.377919 0 -2.67379)
(0.964187 0 -2.64523)
(1.53888 0 -2.5918)
(2.0951 0 -2.51381)
(2.62622 0 -2.41159)
(3.12597 0 -2.28539)
(3.5886 0 -2.13521)
(4.00905 0 -1.96056)
(4.38312 0 -1.7603)
(4.70766 0 -1.5327)
(4.98091 0 -1.27597)
(5.20283 0 -0.98872)
(5.37527 0 -0.669927)
(5.50124 0 -0.318536)
(5.58256 0 0.0653828)
(5.61725 0 0.477335)
(5.59754 0 0.905419)
(5.50578 0 1.33084)
(5.3173 0 1.73283)
(5.0147 0 2.09328)
(4.59348 0 2.40027)
(4.06013 0 2.64945)
(3.42871 0 2.84185)
(2.71772 0 2.98079)
(1.94794 0 3.06977)
(1.14124 0 3.1113)
(0.319921 0 3.10682)
(-0.493669 0 3.05698)
(-1.27753 0 2.96181)
(-2.01042 0 2.82068)
(-2.67224 0 2.63222)
(-3.24473 0 2.39467)
(-3.71261 0 2.10692)
(-4.06552 0 1.77041)
(-4.30054 0 1.39122)
(-4.42448 0 0.981641)
(-4.45446 0 0.559017)
(-4.41333 0 0.142621)
(-4.31909 0 -0.250774)
(-4.18095 0 -0.610968)
(-4.0024 0 -0.934391)
(-3.78348 0 -1.22135)
(-3.5228 0 -1.47349)
(-3.21966 0 -1.69243)
(-2.8752 0 -1.87959)
(-2.49228 0 -2.03637)
(-2.07513 0 -2.1642)
(-1.62903 0 -2.26438)
(-1.15996 0 -2.33789)
(-0.674459 0 -2.3854)
(-0.179364 0 -2.40729)
(0.318279 0 -2.40371)
(0.811389 0 -2.37465)
(1.29296 0 -2.31988)
(1.75622 0 -2.23897)
(2.19477 0 -2.13115)
(2.60282 0 -1.99535)
(2.97533 0 -1.8302)
(3.30842 0 -1.63429)
(3.59967 0 -1.40622)
(3.84852 0 -1.14452)
(4.05598 0 -0.847523)
(4.22333 0 -0.51375)
(4.34971 0 -0.143695)
(4.43033 0 0.257431)
(4.45375 0 0.677409)
(4.39971 0 1.09825)
(4.24599 0 1.50086)
(3.97825 0 1.86902)
(3.59256 0 2.19223)
(3.09417 0 2.4659)
(2.49507 0 2.68952)
(1.81152 0 2.86455)
(1.06239 0 2.9927)
(0.268133 0 3.07515)
(-0.549754 0 3.11233)
(-1.36914 0 3.10404)
(-2.16765 0 3.04944)
(-2.92308 0 2.9468)
(-3.61377 0 2.79331)
(-4.21943 0 2.58536)
(-4.72254 0 2.31999)
(-5.11081 0 1.99736)
(-5.3805 0 1.62383)
(-5.53965 0 1.21336)
(-5.60885 0 0.785141)
(-5.61209 0 0.35996)
(-5.56388 0 -0.0449579)
(-5.47007 0 -0.419952)
(-5.33142 0 -0.762126)
(-5.14546 0 -1.07198)
(-4.90933 0 -1.35057)
(-4.6217 0 -1.59899)
(-4.28312 0 -1.81875)
(-3.89577 0 -2.0117)
(-3.4631 0 -2.17944)
(-2.9896 0 -2.32291)
(-2.48051 0 -2.44245)
(-1.94176 0 -2.53797)
(-1.37972 0 -2.60917)
(-0.801113 0 -2.6557)
(-0.212878 0 -2.67729)
(0.353638 0 -3.25922)
(0.901965 0 -3.22223)
(1.43879 0 -3.15303)
(1.95726 0 -3.05205)
(2.45068 0 -2.9198)
(2.91265 0 -2.75683)
(3.33712 0 -2.56363)
(3.71856 0 -2.34049)
(4.05216 0 -2.08753)
(4.33408 0 -1.80471)
(4.56171 0 -1.49207)
(4.7337 0 -1.14975)
(4.84999 0 -0.777882)
(4.91209 0 -0.376704)
(4.9234 0 0.0524441)
(4.88814 0 0.506322)
(4.80814 0 0.980581)
(4.68024 0 1.46776)
(4.49692 0 1.95181)
(4.24642 0 2.40947)
(3.91279 0 2.82021)
(3.48605 0 3.17085)
(2.96849 0 3.45385)
(2.37197 0 3.66606)
(1.71435 0 3.80699)
(1.01699 0 3.87714)
(0.303131 0 3.8772)
(-0.403309 0 3.80786)
(-1.07881 0 3.66994)
(-1.7014 0 3.4644)
(-2.25177 0 3.19265)
(-2.7149 0 2.85734)
(-3.08227 0 2.46383)
(-3.35481 0 2.0217)
(-3.5442 0 1.54572)
(-3.66689 0 1.05613)
(-3.73532 0 0.573944)
(-3.75696 0 0.113332)
(-3.73498 0 -0.319261)
(-3.66864 0 -0.720638)
(-3.55569 0 -1.08853)
(-3.39444 0 -1.42195)
(-3.18477 0 -1.72092)
(-2.92813 0 -1.98565)
(-2.62724 0 -2.21623)
(-2.2859 0 -2.41272)
(-1.90891 0 -2.57527)
(-1.5019 0 -2.70409)
(-1.07116 0 -2.79938)
(-0.623458 0 -2.8613)
(-0.165883 0 -2.88991)
(0.294316 0 -2.88523)
(0.749846 0 -2.84727)
(1.19349 0 -2.776)
(1.61824 0 -2.67131)
(2.01744 0 -2.53305)
(2.38497 0 -2.36101)
(2.71541 0 -2.15499)
(3.00424 0 -1.91486)
(3.24794 0 -1.64057)
(3.44412 0 -1.332)
(3.59175 0 -0.988931)
(3.69143 0 -0.611528)
(3.74514 0 -0.201183)
(3.75497 0 0.23958)
(3.72073 0 0.707082)
(3.63804 0 1.19309)
(3.49819 0 1.68105)
(3.28721 0 2.14932)
(2.98891 0 2.57904)
(2.59442 0 2.95698)
(2.10576 0 3.27486)
(1.53354 0 3.52825)
(0.894152 0 3.71496)
(0.207787 0 3.83378)
(-0.503036 0 3.88378)
(-1.21458 0 3.86419)
(-1.90302 0 3.77432)
(-2.54551 0 3.61352)
(-3.12147 0 3.38143)
(-3.61444 0 3.07909)
(-4.01483 0 2.71073)
(-4.32369 0 2.28532)
(-4.55387 0 1.818)
(-4.72073 0 1.33095)
(-4.83463 0 0.84628)
(-4.90203 0 0.377252)
(-4.92462 0 -0.0700671)
(-4.89955 0 -0.491611)
(-4.82257 0 -0.884625)
(-4.69082 0 -1.24821)
(-4.50325 0 -1.58223)
(-4.2603 0 -1.88653)
(-3.96366 0 -2.16099)
(-3.6163 0 -2.40563)
(-3.22236 0 -2.62043)
(-2.78686 0 -2.80525)
(-2.31551 0 -2.95972)
(-1.81446 0 -3.08332)
(-1.2902 0 -3.17551)
(-0.749477 0 -3.23578)
(-0.199191 0 -3.26375)
(0.32485 0 -3.78768)
(0.828304 0 -3.74292)
(1.32061 0 -3.65924)
(1.7951 0 -3.53721)
(2.24531 0 -3.37759)
(2.66502 0 -3.18124)
(3.0484 0 -2.94902)
(3.39013 0 -2.68173)
(3.68555 0 -2.3801)
(3.93092 0 -2.04485)
(4.12351 0 -1.67695)
(4.26163 0 -1.27773)
(4.34476 0 -0.849004)
(4.37361 0 -0.393083)
(4.35016 0 0.0872182)
(4.27716 0 0.588742)
(4.15794 0 1.10755)
(3.99655 0 1.63693)
(3.79521 0 2.16679)
(3.54978 0 2.6843)
(3.25135 0 3.17073)
(2.89213 0 3.60256)
(2.46765 0 3.96133)
(1.97994 0 4.23725)
(1.43969 0 4.42521)
(0.864031 0 4.52212)
(0.273591 0 4.52653)
(-0.309647 0 4.43871)
(-0.864155 0 4.26074)
(-1.37077 0 3.99639)
(-1.81485 0 3.65117)
(-2.18894 0 3.23304)
(-2.49416 0 2.75496)
(-2.73731 0 2.23736)
(-2.92736 0 1.70302)
(-3.07281 0 1.16865)
(-3.17761 0 0.645049)
(-3.2405 0 0.140687)
(-3.25856 0 -0.338365)
(-3.22956 0 -0.78837)
(-3.15213 0 -1.20658)
(-3.02585 0 -1.59078)
(-2.85144 0 -1.93924)
(-2.63088 0 -2.25061)
(-2.3672 0 -2.52384)
(-2.06433 0 -2.75813)
(-1.727 0 -2.95297)
(-1.36068 0 -3.10804)
(-0.971441 0 -3.22312)
(-0.565797 0 -3.29806)
(-0.150592 0 -3.33273)
(0.267157 0 -3.32706)
(0.680384 0 -3.28107)
(1.08211 0 -3.19486)
(1.46556 0 -3.06854)
(1.82433 0 -2.90229)
(2.15252 0 -2.69635)
(2.44485 0 -2.45109)
(2.6968 0 -2.16711)
(2.90469 0 -1.84525)
(3.06577 0 -1.48666)
(3.17839 0 -1.09278)
(3.24216 0 -0.665448)
(3.25783 0 -0.20705)
(3.22695 0 0.279487)
(3.15203 0 0.789909)
(3.0359 0 1.31738)
(2.87864 0 1.85292)
(2.67469 0 2.38453)
(2.41503 0 2.89339)
(2.09111 0 3.35637)
(1.69725 0 3.75507)
(1.23462 0 4.07829)
(0.712969 0 4.31892)
(0.148438 0 4.47196)
(-0.438946 0 4.5341)
(-1.02735 0 4.50379)
(-1.59499 0 4.38123)
(-2.12199 0 4.16832)
(-2.59268 0 3.86865)
(-2.9987 0 3.48822)
(-3.34028 0 3.03895)
(-3.62295 0 2.5416)
(-3.85523 0 2.01915)
(-4.04528 0 1.48835)
(-4.19527 0 0.961097)
(-4.30194 0 0.446665)
(-4.36139 0 -0.0492127)
(-4.37048 0 -0.522962)
(-4.32661 0 -0.971498)
(-4.22815 0 -1.39214)
(-4.07473 0 -1.78274)
(-3.86721 0 -2.14161)
(-3.60757 0 -2.46754)
(-3.29882 0 -2.75965)
(-2.945 0 -3.01723)
(-2.55094 0 -3.23954)
(-2.12213 0 -3.42575)
(-1.66452 0 -3.57499)
(-1.18441 0 -3.68642)
(-0.688321 0 -3.75932)
(-0.182968 0 -3.79316)
(0.292475 0 -4.26956)
(0.745545 0 -4.21718)
(1.18806 0 -4.11927)
(1.61371 0 -3.97655)
(2.01639 0 -3.79003)
(2.39025 0 -3.56087)
(2.72983 0 -3.2904)
(3.03016 0 -2.98006)
(3.28695 0 -2.63136)
(3.49674 0 -2.246)
(3.65697 0 -1.82595)
(3.76607 0 -1.37354)
(3.82346 0 -0.891535)
(3.82962 0 -0.38318)
(3.78606 0 0.147682)
(3.6952 0 0.696593)
(3.56044 0 1.25831)
(3.38583 0 1.82649)
(3.17513 0 2.39321)
(2.93136 0 2.9476)
(2.65565 0 3.47463)
(2.34474 0 3.9563)
(1.99312 0 4.37233)
(1.59935 0 4.70242)
(1.16869 0 4.93143)
(0.712172 0 5.05123)
(0.245138 0 5.05852)
(-0.215001 0 4.95335)
(-0.651503 0 4.73891)
(-1.05104 0 4.42208)
(-1.40559 0 4.01514)
(-1.7132 0 3.53675)
(-1.97775 0 3.00855)
(-2.20535 0 2.45001)
(-2.3991 0 1.87746)
(-2.55811 0 1.30436)
(-2.68001 0 0.740576)
(-2.76203 0 0.193462)
(-2.80133 0 -0.331124)
(-2.79577 0 -0.828411)
(-2.74418 0 -1.2944)
(-2.6464 0 -1.7258)
(-2.50335 0 -2.1199)
(-2.31696 0 -2.47446)
(-2.09011 0 -2.78756)
(-1.82651 0 -3.0576)
(-1.5306 0 -3.28331)
(-1.2075 0 -3.46369)
(-0.86289 0 -3.59797)
(-0.502879 0 -3.6856)
(-0.133885 0 -3.7262)
(0.237499 0 -3.71956)
(0.604633 0 -3.66573)
(0.960962 0 -3.56496)
(1.30014 0 -3.41768)
(1.61616 0 -3.2245)
(1.9035 0 -2.98625)
(2.15722 0 -2.70402)
(2.37306 0 -2.37915)
(2.54756 0 -2.01333)
(2.67808 0 -1.60857)
(2.76297 0 -1.16723)
(2.80162 0 -0.692155)
(2.79447 0 -0.186833)
(2.74296 0 0.344528)
(2.64949 0 0.896888)
(2.51694 0 1.46403)
(2.34801 0 2.03805)
(2.14484 0 2.60809)
(1.90742 0 3.15982)
(1.63147 0 3.67611)
(1.31093 0 4.13661)
(0.943378 0 4.5199)
(0.532499 0 4.80901)
(0.0879161 0 4.99338)
(-0.375846 0 5.06726)
(-0.841573 0 5.02839)
(-1.29218 0 4.87758)
(-1.71335 0 4.61926)
(-2.09554 0 4.26338)
(-2.43531 0 3.82694)
(-2.73578 0 3.33072)
(-3.00242 0 2.79442)
(-3.23716 0 2.23532)
(-3.43808 0 1.66735)
(-3.60194 0 1.10032)
(-3.7248 0 0.541664)
(-3.80272 0 -0.00263317)
(-3.83259 0 -0.527573)
(-3.81222 0 -1.02886)
(-3.74039 0 -1.50285)
(-3.61693 0 -1.94643)
(-3.44268 0 -2.35698)
(-3.21949 0 -2.73226)
(-2.95017 0 -3.07041)
(-2.63844 0 -3.36978)
(-2.28879 0 -3.62887)
(-1.90634 0 -3.84629)
(-1.49666 0 -4.02073)
(-1.06569 0 -4.15107)
(-0.619593 0 -4.23637)
(-0.164726 0 -4.27598)
(0.257224 0 -4.69827)
(0.655497 0 -4.63879)
(1.04403 0 -4.52765)
(1.41702 0 -4.36572)
(1.76883 0 -4.15421)
(2.09413 0 -3.89463)
(2.38795 0 -3.58876)
(2.64581 0 -3.23859)
(2.86387 0 -2.84635)
(3.03901 0 -2.41457)
(3.16897 0 -1.9461)
(3.25235 0 -1.44426)
(3.2887 0 -0.91278)
(3.27849 0 -0.355886)
(3.22314 0 0.221679)
(3.12498 0 0.814635)
(2.98722 0 1.41689)
(2.81386 0 2.02123)
(2.6094 0 2.6191)
(2.37844 0 3.20033)
(2.12497 0 3.75228)
(1.85156 0 4.25901)
(1.55926 0 4.70134)
(1.24796 0 5.05885)
(0.918445 0 5.31267)
(0.575217 0 5.44805)
(0.226889 0 5.45658)
(-0.115882 0 5.33713)
(-0.443221 0 5.09617)
(-0.748624 0 4.74706)
(-1.03004 0 4.3082)
(-1.28828 0 3.80026)
(-1.52416 0 3.24375)
(-1.73692 0 2.65696)
(-1.92436 0 2.05474)
(-2.08309 0 1.44877)
(-2.20938 0 0.848398)
(-2.2998 0 0.261472)
(-2.35152 0 -0.305329)
(-2.3625 0 -0.846353)
(-2.33163 0 -1.35669)
(-2.25876 0 -1.83207)
(-2.14469 0 -2.2688)
(-1.99118 0 -2.66366)
(-1.8008 0 -3.0139)
(-1.57693 0 -3.31714)
(-1.32363 0 -3.57145)
(-1.04553 0 -3.77523)
(-0.747829 0 -3.92725)
(-0.436077 0 -4.02659)
(-0.116131 0 -4.07265)
(0.205994 0 -4.06512)
(0.524244 0 -4.00406)
(0.832635 0 -3.88985)
(1.12539 0 -3.72321)
(1.39703 0 -3.50512)
(1.64252 0 -3.23693)
(1.85738 0 -2.92031)
(2.03773 0 -2.55734)
(2.18042 0 -2.15048)
(2.28308 0 -1.70262)
(2.34423 0 -1.2171)
(2.36333 0 -0.697758)
(2.3408 0 -0.149037)
(2.27802 0 0.423951)
(2.17726 0 1.0153)
(2.04154 0 1.61801)
(1.87441 0 2.22387)
(1.67959 0 2.82299)
(1.46021 0 3.40288)
(1.21809 0 3.94768)
(0.953507 0 4.43832)
(0.665428 0 4.85404)
(0.353536 0 5.17452)
(0.0210901 0 5.38253)
(-0.324262 0 5.46649)
(-0.672142 0 5.42207)
(-1.0122 0 5.25246)
(-1.33683 0 4.96799)
(-1.64276 0 4.58483)
(-1.92976 0 4.12253)
(-2.19773 0 3.60143)
(-2.4452 0 3.03993)
(-2.66917 0 2.45299)
(-2.86538 0 1.85244)
(-3.02919 0 1.24795)
(-3.15624 0 0.647691)
(-3.2427 0 0.0585271)
(-3.28561 0 -0.513701)
(-3.28291 0 -1.06388)
(-3.23344 0 -1.58742)
(-3.13697 0 -2.08024)
(-2.99423 0 -2.53873)
(-2.80685 0 -2.95972)
(-2.57735 0 -3.34045)
(-2.30905 0 -3.67847)
(-2.00599 0 -3.97163)
(-1.67278 0 -4.21799)
(-1.31452 0 -4.41584)
(-0.936631 0 -4.56375)
(-0.544795 0 -4.66058)
(-0.144863 0 -4.70556)
(0.219807 0 -5.07002)
(0.559973 0 -5.00409)
(0.891404 0 -4.8809)
(1.2089 0 -4.70148)
(1.50744 0 -4.46729)
(1.78229 0 -4.18015)
(2.02906 0 -3.84226)
(2.24384 0 -3.45616)
(2.42328 0 -3.02474)
(2.56472 0 -2.55126)
(2.66623 0 -2.03942)
(2.7267 0 -1.49336)
(2.74584 0 -0.917731)
(2.72424 0 -0.317654)
(2.66335 0 0.30122)
(2.56552 0 0.932736)
(2.43394 0 1.57001)
(2.27259 0 2.20523)
(2.0861 0 2.82941)
(1.87955 0 3.43194)
(1.65816 0 4.00011)
(1.42667 0 4.51882)
(1.18885 0 4.97046)
(0.947125 0 5.33564)
(0.703011 0 5.59523)
(0.457931 0 5.73329)
(0.213812 0 5.74013)
(-0.027055 0 5.61438)
(-0.262698 0 5.36362)
(-0.491921 0 5.00272)
(-0.713993 0 4.551)
(-0.927807 0 4.02911)
(-1.13112 0 3.45651)
(-1.32043 0 2.85006)
(-1.49148 0 2.22387)
(-1.6398 0 1.58974)
(-1.76123 0 0.957532)
(-1.8522 0 0.335689)
(-1.90987 0 -0.268416)
(-1.93219 0 -0.848306)
(-1.91799 0 -1.39816)
(-1.86701 0 -1.9128)
(-1.77985 0 -2.3876)
(-1.65795 0 -2.81852)
(-1.50355 0 -3.20201)
(-1.31957 0 -3.53501)
(-1.10957 0 -3.81496)
(-0.877641 0 -4.03975)
(-0.628359 0 -4.2077)
(-0.366641 0 -4.31757)
(-0.0976675 0 -4.36853)
(0.173237 0 -4.3602)
(0.440708 0 -4.29264)
(0.69945 0 -4.16637)
(0.944347 0 -3.98233)
(1.17056 0 -3.74189)
(1.37366 0 -3.44684)
(1.54968 0 -3.09942)
(1.69524 0 -2.70234)
(1.80759 0 -2.25878)
(1.88472 0 -1.77243)
(1.92543 0 -1.2475)
(1.92934 0 -0.688733)
(1.89698 0 -0.1015)
(1.82977 0 0.508201)
(1.72997 0 1.13366)
(1.60064 0 1.76724)
(1.44553 0 2.40014)
(1.26893 0 3.022)
(1.07531 0 3.62042)
(0.868763 0 4.18057)
(0.652487 0 4.68479)
(0.428356 0 5.1131)
(0.197282 0 5.44494)
(-0.0399477 0 5.66193)
(-0.281919 0 5.75096)
(-0.526498 0 5.70691)
(-0.771441 0 5.53361)
(-1.01498 0 5.24276)
(-1.25575 0 4.85149)
(-1.49207 0 4.37929)
(-1.72114 0 3.84518)
(-1.93885 0 3.26607)
(-2.14029 0 2.6564)
(-2.32022 0 2.02823)
(-2.47366 0 1.39165)
(-2.59615 0 0.755316)
(-2.68392 0 0.126743)
(-2.73401 0 -0.487397)
(-2.74433 0 -1.08111)
(-2.71367 0 -1.6489)
(-2.64168 0 -2.18579)
(-2.52887 0 -2.68727)
(-2.3766 0 -3.14933)
(-2.18701 0 -3.5684)
(-1.96295 0 -3.94132)
(-1.70794 0 -4.2653)
(-1.42603 0 -4.5379)
(-1.12172 0 -4.75701)
(-0.799827 0 -4.92091)
(-0.465435 0 -5.02824)
(-0.12378 0 -5.0781)
(0.180848 0 -5.38207)
(0.460557 0 -5.31043)
(0.732689 0 -5.17662)
(0.992741 0 -4.9818)
(1.23639 0 -4.72764)
(1.45956 0 -4.41629)
(1.65854 0 -4.05035)
(1.83001 0 -3.63286)
(1.9712 0 -3.16728)
(2.07993 0 -2.65757)
(2.15467 0 -2.10813)
(2.19462 0 -1.52392)
(2.19973 0 -0.91036)
(2.17075 0 -0.273436)
(2.10921 0 0.380364)
(2.01747 0 1.04403)
(1.89872 0 1.70986)
(1.75689 0 2.36931)
(1.59659 0 3.01281)
(1.42297 0 3.62946)
(1.24142 0 4.20658)
(1.05714 0 4.72946)
(0.87459 0 5.18129)
(0.696847 0 5.544)
(0.525243 0 5.79995)
(0.35935 0 5.93444)
(0.197363 0 5.93856)
(0.0367496 0 5.81124)
(-0.124923 0 5.55976)
(-0.289162 0 5.19821)
(-0.455953 0 4.74464)
(-0.623546 0 4.21825)
(-0.788636 0 3.63732)
(-0.946873 0 3.0181)
(-1.09349 0 2.37457)
(-1.22381 0 1.71869)
(-1.33359 0 1.06082)
(-1.41921 0 0.410074)
(-1.47782 0 -0.225401)
(-1.50734 0 -0.838293)
(-1.50649 0 -1.42193)
(-1.47483 0 -1.97028)
(-1.4127 0 -2.47792)
(-1.32119 0 -2.94002)
(-1.20209 0 -3.35234)
(-1.05783 0 -3.71118)
(-0.891378 0 -4.01342)
(-0.706218 0 -4.25648)
(-0.506226 0 -4.43829)
(-0.295601 0 -4.55733)
(-0.078769 0 -4.61257)
(0.139715 0 -4.60354)
(0.355261 0 -4.53032)
(0.563342 0 -4.39354)
(0.759585 0 -4.19437)
(0.939871 0 -3.93448)
(1.10043 0 -3.6161)
(1.23791 0 -3.24194)
(1.34949 0 -2.81531)
(1.43292 0 -2.34004)
(1.48659 0 -1.82053)
(1.50962 0 -1.26178)
(1.50189 0 -0.669376)
(1.46408 0 -0.0495196)
(1.39768 0 0.590942)
(1.30499 0 1.24448)
(1.18908 0 1.90269)
(1.05376 0 2.55614)
(0.90342 0 3.19407)
(0.742803 0 3.80399)
(0.576619 0 4.3713)
(0.40899 0 4.87914)
(0.242824 0 5.30882)
(0.0793882 0 5.64122)
(-0.0817677 0 5.85909)
(-0.242484 0 5.95001)
(-0.405308 0 5.90897)
(-0.572644 0 5.73936)
(-0.745967 0 5.45196)
(-0.925237 0 5.06257)
(-1.10862 0 4.58917)
(-1.2926 0 4.04961)
(-1.47244 0 3.46014)
(-1.64284 0 2.83488)
(-1.79844 0 2.18597)
(-1.93423 0 1.5239)
(-2.04578 0 0.857931)
(-2.12934 0 0.19635)
(-2.18197 0 -0.453331)
(-2.20154 0 -1.08427)
(-2.18673 0 -1.69012)
(-2.13702 0 -2.26509)
(-2.05268 0 -2.80385)
(-1.93471 0 -3.30163)
(-1.78483 0 -3.75415)
(-1.60538 0 -4.15759)
(-1.3993 0 -4.50859)
(-1.17003 0 -4.80425)
(-0.921391 0 -5.04209)
(-0.65753 0 -5.22007)
(-0.382831 0 -5.33667)
(-0.101829 0 -5.39084)
(0.140886 0 -5.63246)
(0.358618 0 -5.55598)
(0.570047 0 -5.41313)
(0.771441 0 -5.20523)
(0.959229 0 -4.93416)
(1.13008 0 -4.60234)
(1.28095 0 -4.21275)
(1.40922 0 -3.76887)
(1.51269 0 -3.2747)
(1.58969 0 -2.73476)
(1.63914 0 -2.15414)
(1.66058 0 -1.53846)
(1.65423 0 -0.893887)
(1.62099 0 -0.22715)
(1.56247 0 0.454487)
(1.48104 0 1.14323)
(1.37976 0 1.83063)
(1.26242 0 2.50742)
(1.13338 0 3.16345)
(0.997481 0 3.78743)
(0.85974 0 4.36668)
(0.724946 0 4.88695)
(0.597085 0 5.3326)
(0.478671 0 5.68723)
(0.370208 0 5.93519)
(0.269994 0 6.06371)
(0.174471 0 6.06524)
(0.0791209 0 5.93908)
(-0.0202963 0 5.69173)
(-0.126593 0 5.33562)
(-0.240511 0 4.88684)
(-0.36069 0 4.36278)
(-0.484087 0 3.78038)
(-0.606606 0 3.15514)
(-0.72373 0 2.50089)
(-0.831012 0 1.82986)
(-0.924391 0 1.15294)
(-1.00038 0 0.479914)
(-1.05618 0 -0.180315)
(-1.08968 0 -0.819667)
(-1.09951 0 -1.4307)
(-1.08504 0 -2.00662)
(-1.04629 0 -2.54128)
(-0.983976 0 -3.02917)
(-0.899405 0 -3.46541)
(-0.794441 0 -3.84577)
(-0.671443 0 -4.16662)
(-0.533196 0 -4.42495)
(-0.382838 0 -4.61836)
(-0.223787 0 -4.74507)
(-0.059659 0 -4.8039)
(0.105821 0 -4.79428)
(0.268898 0 -4.71632)
(0.425868 0 -4.57074)
(0.573163 0 -4.35891)
(0.707435 0 -4.08278)
(0.825637 0 -3.74492)
(0.925099 0 -3.34853)
(1.00359 0 -2.89738)
(1.05941 0 -2.39591)
(1.09139 0 -1.84917)
(1.09903 0 -1.26283)
(1.08247 0 -0.643223)
(1.04258 0 0.00268469)
(0.980901 0 0.667285)
(0.89974 0 1.34227)
(0.802101 0 2.01851)
(0.691642 0 2.68592)
(0.572558 0 3.33326)
(0.449355 0 3.94789)
(0.326486 0 4.51551)
(0.207822 0 5.02017)
(0.0959927 0 5.44468)
(-0.00820411 0 5.77181)
(-0.106115 0 5.98625)
(-0.201044 0 6.07703)
(-0.297436 0 6.0396)
(-0.399653 0 5.87668)
(-0.510803 0 5.5975)
(-0.63198 0 5.21585)
(-0.762081 0 4.74779)
(-0.898117 0 4.20959)
(-1.03581 0 3.61657)
(-1.17027 0 2.9825)
(-1.29648 0 2.31967)
(-1.40972 0 1.63901)
(-1.50578 0 0.950426)
(-1.58108 0 0.262921)
(-1.63272 0 -0.415222)
(-1.65858 0 -1.07638)
(-1.65722 0 -1.71345)
(-1.62794 0 -2.31987)
(-1.57072 0 -2.88961)
(-1.48619 0 -3.41722)
(-1.37561 0 -3.89777)
(-1.24079 0 -4.32688)
(-1.08406 0 -4.70069)
(-0.908172 0 -5.01586)
(-0.716244 0 -5.26956)
(-0.511686 0 -5.45951)
(-0.298121 0 -5.58399)
(-0.0793153 0 -5.64182)
(0.100388 0 -5.82004)
(0.255339 0 -5.73963)
(0.405348 0 -5.58948)
(0.5475 0 -5.37102)
(0.679025 0 -5.08631)
(0.79736 0 -4.73805)
(0.900212 0 -4.32953)
(0.985618 0 -3.86462)
(1.05201 0 -3.34778)
(1.09825 0 -2.78405)
(1.12371 0 -2.17906)
(1.12829 0 -1.53904)
(1.11246 0 -0.870786)
(1.07727 0 -0.18169)
(1.02438 0 0.520313)
(0.956079 0 1.22675)
(0.875267 0 1.9285)
(0.785401 0 2.61574)
(0.690405 0 3.27783)
(0.594511 0 3.90322)
(0.501987 0 4.47931)
(0.416743 0 4.99243)
(0.341797 0 5.42809)
(0.278682 0 5.77169)
(0.226971 0 6.00972)
(0.184128 0 6.13146)
(0.145872 0 6.13076)
(0.107059 0 6.00722)
(0.0628598 0 5.76646)
(0.00983479 0 5.41912)
(-0.0534608 0 4.97917)
(-0.126439 0 4.46208)
(-0.20686 0 3.88338)
(-0.2914 0 3.25783)
(-0.376222 0 2.59903)
(-0.457429 0 1.91938)
(-0.531371 0 1.2302)
(-0.594841 0 0.541858)
(-0.645174 0 -0.136119)
(-0.680307 0 -0.794975)
(-0.69879 0 -1.4266)
(-0.699777 0 -2.02353)
(-0.683007 0 -2.57901)
(-0.648775 0 -3.08694)
(-0.59789 0 -3.54191)
(-0.531633 0 -3.93918)
(-0.4517 0 -4.2747)
(-0.36015 0 -4.54512)
(-0.259345 0 -4.74774)
(-0.15188 0 -4.88055)
(-0.0405199 0 -4.94222)
(0.0718784 0 -4.93214)
(0.182432 0 -4.8504)
(0.288302 0 -4.69784)
(0.386764 0 -4.47597)
(0.475281 0 -4.18699)
(0.551571 0 -3.83379)
(0.61367 0 -3.41993)
(0.659993 0 -2.94965)
(0.689386 0 -2.42786)
(0.701182 0 -1.86018)
(0.69524 0 -1.25289)
(0.671982 0 -0.612936)
(0.632425 0 0.0520435)
(0.578188 0 0.733781)
(0.5115 0 1.42329)
(0.435185 0 2.11082)
(0.352589 0 2.78574)
(0.267454 0 3.43646)
(0.183698 0 4.05023)
(0.105065 0 4.61313)
(0.0346361 0 5.11014)
(-0.0257592 0 5.52563)
(-0.076077 0 5.84439)
(-0.118346 0 6.05319)
(-0.15648 0 6.14267)
(-0.195515 0 6.10883)
(-0.240463 0 5.95375)
(-0.295184 0 5.68502)
(-0.361637 0 5.3143)
(-0.43967 0 4.85558)
(-0.527277 0 4.32352)
(-0.621134 0 3.73241)
(-0.717186 0 3.09562)
(-0.81114 0 2.42547)
(-0.89883 0 1.73323)
(-0.976453 0 1.02929)
(-1.0407 0 0.323282)
(-1.08884 0 -0.375849)
(-1.11875 0 -1.0598)
(-1.12896 0 -1.72079)
(-1.11856 0 -2.35161)
(-1.08725 0 -2.94563)
(-1.03529 0 -3.49677)
(-0.963461 0 -3.99958)
(-0.873008 0 -4.44917)
(-0.765621 0 -4.84125)
(-0.643362 0 -5.17211)
(-0.508605 0 -5.43861)
(-0.363976 0 -5.63823)
(-0.212293 0 -5.76908)
(-0.0565003 0 -5.82989)
(0.0597613 0 -5.94433)
(0.151752 0 -5.86097)
(0.240218 0 -5.70532)
(0.323094 0 -5.47894)
(0.398439 0 -5.18405)
(0.464488 0 -4.82356)
(0.5197 0 -4.40104)
(0.562807 0 -3.92069)
(0.592863 0 -3.38735)
(0.609283 0 -2.8065)
(0.611885 0 -2.18421)
(0.600916 0 -1.52723)
(0.577079 0 -0.842876)
(0.541554 0 -0.139077)
(0.496004 0 0.575675)
(0.442583 0 1.29235)
(0.383913 0 2.00132)
(0.32302 0 2.69232)
(0.263228 0 3.3544)
(0.207991 0 3.97594)
(0.160633 0 4.54457)
(0.123988 0 5.04729)
(0.0999508 0 5.47083)
(0.0890054 0 5.80223)
(0.0898809 0 6.02993)
(0.0994921 0 6.14501)
(0.1133 0 6.14252)
(0.126078 0 6.02229)
(0.13289 0 5.78914)