/*--------------------------------*- C++ -*----------------------------------*\
| =========                 |                                                 |
| \\      /  F ield         | OpenFOAM: The Open Source CFD Toolbox           |
|  \\    /   O peration     | Version:  2.3.0                                 |
|   \\  /    A nd           | Web:      www.OpenFOAM.org                      |
|    \\/     M anipulation  |                                                 |
\*---------------------------------------------------------------------------*/
FoamFile
{
    version     2.0;
    format      ascii;
    class       volVectorField;
    location    "3000";
    object      U;
}
// * * * * * * * * * * * * * * * * * * * * * * * * * * * * * * * * * * * * * //

dimensions      [0 1 -1 0 0 0 0];

internalField   nonuniform List<vector> 
3060
(
(1.88067e-06 0 -6.81798e-07)
(4.83936e-06 0 -6.6916e-07)
(7.72647e-06 0 -6.4522e-07)
(1.04978e-05 0 -6.09385e-07)
(1.31081e-05 0 -5.61135e-07)
(1.55117e-05 0 -5.00456e-07)
(1.7664e-05 0 -4.28289e-07)
(1.95238e-05 0 -3.467e-07)
(2.10553e-05 0 -2.58496e-07)
(2.22293e-05 0 -1.66503e-07)
(2.3023e-05 0 -7.32897e-08)
(2.34215e-05 0 1.83234e-08)
(2.34217e-05 0 1.04654e-07)
(2.30368e-05 0 1.81786e-07)
(2.22948e-05 0 2.4756e-07)
(2.12329e-05 0 3.01557e-07)
(1.98931e-05 0 3.43943e-07)
(1.83202e-05 0 3.75463e-07)
(1.65583e-05 0 3.9755e-07)
(1.46479e-05 0 4.12011e-07)
(1.26243e-05 0 4.20746e-07)
(1.05167e-05 0 4.25503e-07)
(8.34907e-06 0 4.27665e-07)
(6.14082e-06 0 4.28185e-07)
(3.90846e-06 0 4.2761e-07)
(1.6668e-06 0 4.26167e-07)
(-5.70049e-07 0 4.23869e-07)
(-2.78795e-06 0 4.20634e-07)
(-4.97245e-06 0 4.16334e-07)
(-7.10826e-06 0 4.1065e-07)
(-9.17836e-06 0 4.02978e-07)
(-1.11629e-05 0 3.92369e-07)
(-1.30381e-05 0 3.77525e-07)
(-1.47755e-05 0 3.56887e-07)
(-1.63418e-05 0 3.28839e-07)
(-1.76998e-05 0 2.91938e-07)
(-1.88102e-05 0 2.45142e-07)
(-1.9634e-05 0 1.88059e-07)
(-2.01357e-05 0 1.20866e-07)
(-2.02857e-05 0 4.43301e-08)
(-2.00633e-05 0 -3.92552e-08)
(-1.94612e-05 0 -1.26408e-07)
(-1.84871e-05 0 -2.13465e-07)
(-1.7161e-05 0 -2.97367e-07)
(-1.55117e-05 0 -3.75745e-07)
(-1.35735e-05 0 -4.46563e-07)
(-1.13854e-05 0 -5.07946e-07)
(-8.98981e-06 0 -5.58286e-07)
(-6.43198e-06 0 -5.96414e-07)
(-3.759e-06 0 -6.21609e-07)
(-1.01901e-06 0 -6.33441e-07)
(1.73913e-06 0 -6.31653e-07)
(4.46628e-06 0 -6.16295e-07)
(7.11374e-06 0 -5.8767e-07)
(9.63363e-06 0 -5.46263e-07)
(1.19792e-05 0 -4.92904e-07)
(1.4106e-05 0 -4.28885e-07)
(1.59722e-05 0 -3.55903e-07)
(1.75401e-05 0 -2.75876e-07)
(1.87766e-05 0 -1.90897e-07)
(1.96549e-05 0 -1.03483e-07)
(2.01578e-05 0 -1.68937e-08)
(2.02815e-05 0 6.51534e-08)
(2.00372e-05 0 1.39383e-07)
(1.94481e-05 0 2.03961e-07)
(1.85459e-05 0 2.58341e-07)
(1.73671e-05 0 3.02474e-07)
(1.59511e-05 0 3.36933e-07)
(1.43368e-05 0 3.62891e-07)
(1.25605e-05 0 3.81855e-07)
(1.06544e-05 0 3.95449e-07)
(8.64565e-06 0 4.05178e-07)
(6.55683e-06 0 4.12253e-07)
(4.40697e-06 0 4.1753e-07)
(2.21254e-06 0 4.2153e-07)
(-1.14624e-08 0 4.24515e-07)
(-2.25071e-06 0 4.26582e-07)
(-4.49112e-06 0 4.27806e-07)
(-6.71847e-06 0 4.2813e-07)
(-8.91763e-06 0 4.27251e-07)
(-1.10715e-05 0 4.24524e-07)
(-1.31595e-05 0 4.18885e-07)
(-1.51566e-05 0 4.08843e-07)
(-1.70319e-05 0 3.92587e-07)
(-1.87486e-05 0 3.68219e-07)
(-2.02651e-05 0 3.33995e-07)
(-2.15368e-05 0 2.88637e-07)
(-2.25194e-05 0 2.31585e-07)
(-2.31719e-05 0 1.62775e-07)
(-2.34589e-05 0 8.29513e-08)
(-2.33558e-05 0 -5.11983e-09)
(-2.28539e-05 0 -9.7438e-08)
(-2.19598e-05 0 -1.90562e-07)
(-2.06907e-05 0 -2.81814e-07)
(-1.90711e-05 0 -3.68581e-07)
(-1.71319e-05 0 -4.4798e-07)
(-1.49103e-05 0 -5.17334e-07)
(-1.24487e-05 0 -5.74854e-07)
(-9.79223e-06 0 -6.19883e-07)
(-6.98643e-06 0 -6.52616e-07)
(-4.07627e-06 0 -6.73612e-07)
(-1.10589e-06 0 -6.83328e-07)
(3.6513e-06 0 -5.26851e-06)
(9.40722e-06 0 -5.18278e-06)
(1.50529e-05 0 -5.02165e-06)
(2.05184e-05 0 -4.78413e-06)
(2.57302e-05 0 -4.4693e-06)
(3.0611e-05 0 -4.07746e-06)
(3.50804e-05 0 -3.6114e-06)
(3.90577e-05 0 -3.07682e-06)
(4.24654e-05 0 -2.48127e-06)
(4.52315e-05 0 -1.83289e-06)
(4.7291e-05 0 -1.14169e-06)
(4.85902e-05 0 -4.24042e-07)
(4.90943e-05 0 2.94363e-07)
(4.87966e-05 0 9.82932e-07)
(4.77203e-05 0 1.61733e-06)
(4.59115e-05 0 2.18312e-06)
(4.34337e-05 0 2.67145e-06)
(4.03644e-05 0 3.07902e-06)
(3.67884e-05 0 3.40865e-06)
(3.27903e-05 0 3.66749e-06)
(2.84505e-05 0 3.86507e-06)
(2.38417e-05 0 4.01139e-06)
(1.90288e-05 0 4.11517e-06)
(1.40694e-05 0 4.18299e-06)
(9.01595e-06 0 4.21909e-06)
(3.91774e-06 0 4.22563e-06)
(-1.17759e-06 0 4.20327e-06)
(-6.22273e-06 0 4.15174e-06)
(-1.11699e-05 0 4.07004e-06)
(-1.59702e-05 0 3.95587e-06)
(-2.05714e-05 0 3.8052e-06)
(-2.49175e-05 0 3.61208e-06)
(-2.89464e-05 0 3.36895e-06)
(-3.259e-05 0 3.06762e-06)
(-3.57749e-05 0 2.7008e-06)
(-3.84259e-05 0 2.26377e-06)
(-4.04702e-05 0 1.75589e-06)
(-4.18432e-05 0 1.18193e-06)
(-4.24947e-05 0 5.51688e-07)
(-4.23929e-05 0 -1.20057e-07)
(-4.15272e-05 0 -8.11015e-07)
(-3.99127e-05 0 -1.4943e-06)
(-3.75895e-05 0 -2.14465e-06)
(-3.46168e-05 0 -2.74373e-06)
(-3.10653e-05 0 -3.28042e-06)
(-2.70114e-05 0 -3.74799e-06)
(-2.25342e-05 0 -4.14171e-06)
(-1.77141e-05 0 -4.45794e-06)
(-1.26315e-05 0 -4.69418e-06)
(-7.36574e-06 0 -4.84895e-06)
(-1.99459e-06 0 -4.92124e-06)
(3.4049e-06 0 -4.91033e-06)
(8.75593e-06 0 -4.81638e-06)
(1.39813e-05 0 -4.6402e-06)
(1.90029e-05 0 -4.38285e-06)
(2.3741e-05 0 -4.04607e-06)
(2.81152e-05 0 -3.63265e-06)
(3.20453e-05 0 -3.1465e-06)
(3.54525e-05 0 -2.59273e-06)
(3.82618e-05 0 -1.97892e-06)
(4.04048e-05 0 -1.31786e-06)
(4.18264e-05 0 -6.29943e-07)
(4.24928e-05 0 5.84891e-08)
(4.23956e-05 0 7.21173e-07)
(4.15517e-05 0 1.33778e-06)
(3.99979e-05 0 1.89513e-06)
(3.77886e-05 0 2.38463e-06)
(3.49912e-05 0 2.80298e-06)
(3.16795e-05 0 3.15206e-06)
(2.79288e-05 0 3.43737e-06)
(2.38112e-05 0 3.66662e-06)
(1.93932e-05 0 3.84797e-06)
(1.47352e-05 0 3.9886e-06)
(9.89224e-06 0 4.09396e-06)
(4.91529e-06 0 4.16763e-06)
(-1.47038e-07 0 4.2115e-06)
(-5.24722e-06 0 4.22633e-06)
(-1.03379e-05 0 4.21221e-06)
(-1.53713e-05 0 4.16814e-06)
(-2.02973e-05 0 4.09147e-06)
(-2.50625e-05 0 3.97738e-06)
(-2.96075e-05 0 3.81868e-06)
(-3.38654e-05 0 3.60619e-06)
(-3.77614e-05 0 3.32984e-06)
(-4.12137e-05 0 2.98057e-06)
(-4.4137e-05 0 2.55212e-06)
(-4.64478e-05 0 2.04313e-06)
(-4.80717e-05 0 1.4585e-06)
(-4.89492e-05 0 8.08363e-07)
(-4.90397e-05 0 1.09371e-07)
(-4.83273e-05 0 -6.11592e-07)
(-4.68266e-05 0 -1.32434e-06)
(-4.45781e-05 0 -2.00556e-06)
(-4.16391e-05 0 -2.641e-06)
(-3.80766e-05 0 -3.22149e-06)
(-3.39642e-05 0 -3.739e-06)
(-2.93803e-05 0 -4.18631e-06)
(-2.4406e-05 0 -4.55842e-06)
(-1.9121e-05 0 -4.8533e-06)
(-1.36017e-05 0 -5.07107e-06)
(-7.92063e-06 0 -5.21268e-06)
(-2.14707e-06 0 -5.27865e-06)
(3.96386e-06 0 -1.21739e-05)
(1.02239e-05 0 -1.20076e-05)
(1.63935e-05 0 -1.16918e-05)
(2.24154e-05 0 -1.12201e-05)
(2.82303e-05 0 -1.05843e-05)
(3.37749e-05 0 -9.77765e-06)
(3.89803e-05 0 -8.7978e-06)
(4.37693e-05 0 -7.65066e-06)
(4.80553e-05 0 -6.35009e-06)
(5.17433e-05 0 -4.91506e-06)
(5.47332e-05 0 -3.36901e-06)
(5.69266e-05 0 -1.74575e-06)
(5.82382e-05 0 -9.46423e-08)
(5.86091e-05 0 1.52656e-06)
(5.80136e-05 0 3.06786e-06)
(5.64599e-05 0 4.49241e-06)
(5.39878e-05 0 5.76917e-06)
(5.06664e-05 0 6.87732e-06)
(4.65857e-05 0 7.8108e-06)
(4.18469e-05 0 8.57524e-06)
(3.65552e-05 0 9.18399e-06)
(3.08135e-05 0 9.65386e-06)
(2.47197e-05 0 1.0001e-05)
(1.83655e-05 0 1.02382e-05)
(1.18384e-05 0 1.03744e-05)
(5.22206e-06 0 1.04144e-05)
(-1.40137e-06 0 1.03602e-05)
(-7.95057e-06 0 1.02115e-05)
(-1.43442e-05 0 9.96651e-06)
(-2.04999e-05 0 9.62091e-06)
(-2.63335e-05 0 9.16707e-06)
(-3.17574e-05 0 8.59425e-06)
(-3.66807e-05 0 7.88962e-06)
(-4.101e-05 0 7.0407e-06)
(-4.46525e-05 0 6.03914e-06)
(-4.75219e-05 0 4.88432e-06)
(-4.95452e-05 0 3.58635e-06)
(-5.06699e-05 0 2.16825e-06)
(-5.08714e-05 0 6.62647e-07)
(-5.01555e-05 0 -8.92346e-07)
(-4.85574e-05 0 -2.45127e-06)
(-4.61391e-05 0 -3.96437e-06)
(-4.29846e-05 0 -5.38579e-06)
(-3.91896e-05 0 -6.68216e-06)
(-3.48519e-05 0 -7.8329e-06)
(-3.00652e-05 0 -8.82543e-06)
(-2.49159e-05 0 -9.65172e-06)
(-1.94831e-05 0 -1.03075e-05)
(-1.38386e-05 0 -1.07918e-05)
(-8.04897e-06 0 -1.11061e-05)
(-2.17694e-06 0 -1.12519e-05)
(3.71711e-06 0 -1.12299e-05)
(9.57345e-06 0 -1.10401e-05)
(1.53312e-05 0 -1.06815e-05)
(2.09269e-05 0 -1.01524e-05)
(2.62927e-05 0 -9.45188e-06)
(3.13549e-05 0 -8.58156e-06)
(3.60328e-05 0 -7.54675e-06)
(4.02377e-05 0 -6.35649e-06)
(4.38746e-05 0 -5.02501e-06)
(4.68455e-05 0 -3.57583e-06)
(4.90567e-05 0 -2.04598e-06)
(5.04291e-05 0 -4.8341e-07)
(5.09074e-05 0 1.06266e-06)
(5.04639e-05 0 2.54858e-06)
(4.91009e-05 0 3.93793e-06)
(4.68508e-05 0 5.19998e-06)
(4.3772e-05 0 6.31506e-06)
(3.99417e-05 0 7.27618e-06)
(3.54487e-05 0 8.08625e-06)
(3.03862e-05 0 8.7551e-06)
(2.48473e-05 0 9.29561e-06)
(1.8922e-05 0 9.72023e-06)
(1.26967e-05 0 1.00389e-05)
(6.25525e-06 0 1.02584e-05)
(-3.20541e-07 0 1.03824e-05)
(-6.94939e-06 0 1.04122e-05)
(-1.35499e-05 0 1.03474e-05)
(-2.00396e-05 0 1.01855e-05)
(-2.6334e-05 0 9.92076e-06)
(-3.23447e-05 0 9.54319e-06)
(-3.79785e-05 0 9.03893e-06)
(-4.3136e-05 0 8.39138e-06)
(-4.77134e-05 0 7.58417e-06)
(-5.16058e-05 0 6.60561e-06)
(-5.47143e-05 0 5.45264e-06)
(-5.69532e-05 0 4.13507e-06)
(-5.82604e-05 0 2.67708e-06)
(-5.86042e-05 0 1.11122e-06)
(-5.79852e-05 0 -5.2294e-07)
(-5.64378e-05 0 -2.17198e-06)
(-5.40289e-05 0 -3.77906e-06)
(-5.08482e-05 0 -5.29881e-06)
(-4.69956e-05 0 -6.7009e-06)
(-4.25704e-05 0 -7.96335e-06)
(-3.76655e-05 0 -9.06823e-06)
(-3.2365e-05 0 -1.00035e-05)
(-2.67439e-05 0 -1.07655e-05)
(-2.08694e-05 0 -1.13581e-05)
(-1.48035e-05 0 -1.17889e-05)
(-8.60505e-06 0 -1.20655e-05)
(-2.33078e-06 0 -1.21932e-05)
(3.70027e-06 0 -1.81776e-05)
(9.54038e-06 0 -1.7959e-05)
(1.52873e-05 0 -1.75449e-05)
(2.08865e-05 0 -1.6931e-05)
(2.62872e-05 0 -1.61109e-05)
(3.14428e-05 0 -1.50769e-05)
(3.63091e-05 0 -1.38208e-05)
(4.08403e-05 0 -1.23344e-05)
(4.49839e-05 0 -1.06105e-05)
(4.86774e-05 0 -8.64493e-06)
(5.18489e-05 0 -6.4432e-06)
(5.44186e-05 0 -4.03245e-06)
(5.6297e-05 0 -1.47348e-06)
(5.73824e-05 0 1.14369e-06)
(5.75719e-05 0 3.72373e-06)
(5.67894e-05 0 6.18454e-06)
(5.50038e-05 0 8.45477e-06)
(5.22332e-05 0 1.04816e-05)
(4.85374e-05 0 1.22369e-05)
(4.40063e-05 0 1.37126e-05)
(3.87492e-05 0 1.49168e-05)
(3.2885e-05 0 1.58678e-05)
(2.65344e-05 0 1.65859e-05)
(1.9817e-05 0 1.70882e-05)
(1.28501e-05 0 1.73873e-05)
(5.74855e-06 0 1.74905e-05)
(-1.37418e-06 0 1.74009e-05)
(-8.40565e-06 0 1.71189e-05)
(-1.52341e-05 0 1.66428e-05)
(-2.17479e-05 0 1.59672e-05)
(-2.78353e-05 0 1.50828e-05)
(-3.33848e-05 0 1.39769e-05)
(-3.82865e-05 0 1.26356e-05)
(-4.24356e-05 0 1.10485e-05)
(-4.57391e-05 0 9.21525e-06)
(-4.81244e-05 0 7.15075e-06)
(-4.95484e-05 0 4.88717e-06)
(-5.00057e-05 0 2.4764e-06)
(-4.95337e-05 0 -1.39394e-08)
(-4.82098e-05 0 -2.50746e-06)
(-4.61351e-05 0 -4.92257e-06)
(-4.34121e-05 0 -7.18175e-06)
(-4.01326e-05 0 -9.22745e-06)
(-3.63762e-05 0 -1.10303e-05)
(-3.22135e-05 0 -1.25828e-05)
(-2.77086e-05 0 -1.38887e-05)
(-2.29204e-05 0 -1.49557e-05)
(-1.79031e-05 0 -1.57922e-05)
(-1.27091e-05 0 -1.64058e-05)
(-7.39001e-06 0 -1.68025e-05)
(-1.99848e-06 0 -1.69861e-05)
(3.4126e-06 0 -1.69584e-05)
(8.79024e-06 0 -1.67193e-05)
(1.40816e-05 0 -1.62663e-05)
(1.92343e-05 0 -1.5595e-05)
(2.41966e-05 0 -1.4699e-05)
(2.8916e-05 0 -1.35703e-05)
(3.33371e-05 0 -1.22007e-05)
(3.73999e-05 0 -1.05828e-05)
(4.10386e-05 0 -8.71507e-06)
(4.41806e-05 0 -6.60966e-06)
(4.67434e-05 0 -4.30313e-06)
(4.8632e-05 0 -1.8597e-06)
(4.97424e-05 0 6.40604e-07)
(4.99775e-05 0 3.11682e-06)
(4.92695e-05 0 5.49482e-06)
(4.75923e-05 0 7.71023e-06)
(4.49619e-05 0 9.71637e-06)
(4.14299e-05 0 1.14859e-05)
(3.70751e-05 0 1.3008e-05)
(3.19944e-05 0 1.42864e-05)
(2.62943e-05 0 1.5333e-05)
(2.00854e-05 0 1.61616e-05)
(1.34794e-05 0 1.67844e-05)
(6.58787e-06 0 1.72095e-05)
(-4.77567e-07 0 1.74412e-05)
(-7.60502e-06 0 1.74807e-05)
(-1.46818e-05 0 1.7327e-05)
(-2.15944e-05 0 1.69759e-05)
(-2.82271e-05 0 1.64189e-05)
(-3.44621e-05 0 1.56422e-05)
(-4.01795e-05 0 1.46275e-05)
(-4.52585e-05 0 1.33544e-05)
(-4.9582e-05 0 1.18065e-05)
(-5.30445e-05 0 9.97944e-06)
(-5.55631e-05 0 7.88596e-06)
(-5.70878e-05 0 5.56045e-06)
(-5.76128e-05 0 3.06149e-06)
(-5.71817e-05 0 4.63548e-07)
(-5.58802e-05 0 -2.14748e-06)
(-5.38132e-05 0 -4.67534e-06)
(-5.10793e-05 0 -7.03593e-06)
(-4.77651e-05 0 -9.17772e-06)
(-4.39483e-05 0 -1.10805e-05)
(-3.96985e-05 0 -1.27423e-05)
(-3.50756e-05 0 -1.41683e-05)
(-3.013e-05 0 -1.53661e-05)
(-2.49065e-05 0 -1.6344e-05)
(-1.94496e-05 0 -1.711e-05)
(-1.38071e-05 0 -1.76716e-05)
(-8.03073e-06 0 -1.80346e-05)
(-2.1759e-06 0 -1.82028e-05)
(3.434e-06 0 -2.36328e-05)
(8.84751e-06 0 -2.33478e-05)
(1.41585e-05 0 -2.28105e-05)
(1.93062e-05 0 -2.20201e-05)
(2.42327e-05 0 -2.0975e-05)
(2.88836e-05 0 -1.96717e-05)
(3.32089e-05 0 -1.8105e-05)
(3.71634e-05 0 -1.62673e-05)
(4.07076e-05 0 -1.41511e-05)
(4.38094e-05 0 -1.17531e-05)
(4.64452e-05 0 -9.07975e-06)
(4.85967e-05 0 -6.15185e-06)
(5.02392e-05 0 -3.00769e-06)
(5.13239e-05 0 2.9769e-07)
(5.17696e-05 0 3.69042e-06)
(5.14801e-05 0 7.07128e-06)
(5.03632e-05 0 1.03201e-05)
(4.83463e-05 0 1.33278e-05)
(4.54034e-05 0 1.60177e-05)
(4.15666e-05 0 1.83442e-05)
(3.69156e-05 0 2.02893e-05)
(3.15594e-05 0 2.18563e-05)
(2.56234e-05 0 2.30592e-05)
(1.92414e-05 0 2.39143e-05)
(1.25501e-05 0 2.44354e-05)
(5.6871e-06 0 2.46315e-05)
(-1.21071e-06 0 2.45072e-05)
(-8.00704e-06 0 2.40641e-05)
(-1.45672e-05 0 2.33009e-05)
(-2.07585e-05 0 2.22131e-05)
(-2.64517e-05 0 2.07927e-05)
(-3.15233e-05 0 1.90311e-05)
(-3.58608e-05 0 1.69235e-05)
(-3.93702e-05 0 1.44756e-05)
(-4.19873e-05 0 1.17123e-05)
(-4.36919e-05 0 8.68369e-06)
(-4.45156e-05 0 5.466e-06)
(-4.45319e-05 0 2.16214e-06)
(-4.38336e-05 0 -1.11527e-06)
(-4.25157e-05 0 -4.27101e-06)
(-4.0662e-05 0 -7.23794e-06)
(-3.83326e-05 0 -9.97007e-06)
(-3.5564e-05 0 -1.2436e-05)
(-3.23828e-05 0 -1.46177e-05)
(-2.88176e-05 0 -1.65084e-05)
(-2.49042e-05 0 -1.81093e-05)
(-2.06861e-05 0 -1.94256e-05)
(-1.62127e-05 0 -2.04635e-05)
(-1.15384e-05 0 -2.12289e-05)
(-6.72045e-06 0 -2.17256e-05)
(-1.81882e-06 0 -2.19561e-05)
(3.10547e-06 0 -2.19214e-05)
(7.99104e-06 0 -2.16213e-05)
(1.27771e-05 0 -2.10545e-05)
(1.74042e-05 0 -2.02183e-05)
(2.18157e-05 0 -1.91081e-05)
(2.59586e-05 0 -1.7718e-05)
(2.97847e-05 0 -1.60418e-05)
(3.32526e-05 0 -1.40748e-05)
(3.63283e-05 0 -1.18178e-05)
(3.89846e-05 0 -9.2801e-06)
(4.11938e-05 0 -6.48311e-06)
(4.29143e-05 0 -3.46185e-06)
(4.40791e-05 0 -2.66983e-07)
(4.45999e-05 0 3.0272e-06)
(4.43812e-05 0 6.31911e-06)
(4.33332e-05 0 9.49587e-06)
(4.13914e-05 0 1.2461e-05)
(3.85376e-05 0 1.51452e-05)
(3.48046e-05 0 1.75055e-05)
(3.02659e-05 0 1.95224e-05)
(2.50211e-05 0 2.1194e-05)
(1.91863e-05 0 2.25265e-05)
(1.28867e-05 0 2.35288e-05)
(6.25268e-06 0 2.42082e-05)
(-5.82558e-07 0 2.45682e-05)
(-7.48387e-06 0 2.46092e-05)
(-1.43148e-05 0 2.43291e-05)
(-2.09382e-05 0 2.37223e-05)
(-2.72166e-05 0 2.27783e-05)
(-3.30138e-05 0 2.14824e-05)
(-3.81976e-05 0 1.98184e-05)
(-4.26461e-05 0 1.77741e-05)
(-4.62561e-05 0 1.53507e-05)
(-4.89588e-05 0 1.2573e-05)
(-5.07368e-05 0 9.49444e-06)
(-5.16304e-05 0 6.20014e-06)
(-5.17196e-05 0 2.80547e-06)
(-5.1099e-05 0 -5.72697e-07)
(-4.9863e-05 0 -3.84198e-06)
(-4.8085e-05 0 -6.93418e-06)
(-4.58061e-05 0 -9.79873e-06)
(-4.30475e-05 0 -1.24019e-05)
(-3.98283e-05 0 -1.47268e-05)
(-3.61742e-05 0 -1.67702e-05)
(-3.21194e-05 0 -1.8537e-05)
(-2.7705e-05 0 -2.00348e-05)
(-2.29776e-05 0 -2.12708e-05)
(-1.79884e-05 0 -2.22498e-05)
(-1.27927e-05 0 -2.29745e-05)
(-7.44916e-06 0 -2.34462e-05)
(-2.01931e-06 0 -2.36656e-05)
(3.14467e-06 0 -2.89163e-05)
(8.09815e-06 0 -2.85542e-05)
(1.29479e-05 0 -2.78726e-05)
(1.76319e-05 0 -2.68726e-05)
(2.20908e-05 0 -2.55554e-05)
(2.62682e-05 0 -2.39225e-05)
(3.01127e-05 0 -2.1976e-05)
(3.35787e-05 0 -1.97189e-05)
(3.66285e-05 0 -1.71572e-05)
(3.92335e-05 0 -1.43018e-05)
(4.13741e-05 0 -1.11689e-05)
(4.30379e-05 0 -7.78015e-06)
(4.42162e-05 0 -4.15994e-06)
(4.49006e-05 0 -3.39997e-07)
(4.5078e-05 0 3.62887e-06)
(4.47213e-05 0 7.66765e-06)
(4.37775e-05 0 1.16706e-05)
(4.21712e-05 0 1.55142e-05)
(3.98323e-05 0 1.90705e-05)
(3.67217e-05 0 2.22322e-05)
(3.28457e-05 0 2.49367e-05)
(2.8264e-05 0 2.71603e-05)
(2.30788e-05 0 2.88982e-05)
(1.7418e-05 0 3.0154e-05)
(1.14215e-05 0 3.0934e-05)
(5.23451e-06 0 3.1244e-05)
(-9.95295e-07 0 3.10878e-05)
(-7.12042e-06 0 3.04682e-05)
(-1.29958e-05 0 2.93874e-05)
(-1.84814e-05 0 2.7847e-05)
(-2.34454e-05 0 2.58486e-05)
(-2.7771e-05 0 2.33978e-05)
(-3.13685e-05 0 2.051e-05)
(-3.41905e-05 0 1.72193e-05)
(-3.624e-05 0 1.35952e-05)
(-3.75625e-05 0 9.74506e-06)
(-3.82304e-05 0 5.79132e-06)
(-3.83203e-05 0 1.84854e-06)
(-3.78897e-05 0 -1.98575e-06)
(-3.69718e-05 0 -5.63647e-06)
(-3.55866e-05 0 -9.05436e-06)
(-3.37506e-05 0 -1.22103e-05)
(-3.14812e-05 0 -1.50847e-05)
(-2.87994e-05 0 -1.76612e-05)
(-2.57321e-05 0 -1.99262e-05)
(-2.23139e-05 0 -2.18699e-05)
(-1.85868e-05 0 -2.34864e-05)
(-1.46e-05 0 -2.47727e-05)
(-1.04076e-05 0 -2.57272e-05)
(-6.06833e-06 0 -2.63494e-05)
(-1.64314e-06 0 -2.66387e-05)
(2.80531e-06 0 -2.65951e-05)
(7.21402e-06 0 -2.62186e-05)
(1.15206e-05 0 -2.55093e-05)
(1.56647e-05 0 -2.44679e-05)
(1.95886e-05 0 -2.3095e-05)
(2.32392e-05 0 -2.13925e-05)
(2.65693e-05 0 -1.93641e-05)
(2.95387e-05 0 -1.70166e-05)
(3.21149e-05 0 -1.43608e-05)
(3.42728e-05 0 -1.14112e-05)
(3.59924e-05 0 -8.18484e-06)
(3.7257e-05 0 -4.70284e-06)
(3.80498e-05 0 -9.98657e-07)
(3.83484e-05 0 2.87182e-06)
(3.8114e-05 0 6.82717e-06)
(3.72829e-05 0 1.07649e-05)
(3.57767e-05 0 1.45671e-05)
(3.35286e-05 0 1.81127e-05)
(3.05026e-05 0 2.13027e-05)
(2.67089e-05 0 2.40783e-05)
(2.22071e-05 0 2.64116e-05)
(1.70954e-05 0 2.82905e-05)
(1.14955e-05 0 2.9711e-05)
(5.54176e-06 0 3.06715e-05)
(-6.24225e-07 0 3.11705e-05)
(-6.85657e-06 0 3.12055e-05)
(-1.30075e-05 0 3.07736e-05)
(-1.893e-05 0 2.98704e-05)
(-2.44796e-05 0 2.84899e-05)
(-2.95187e-05 0 2.66261e-05)
(-3.39248e-05 0 2.42768e-05)
(-3.7605e-05 0 2.14504e-05)
(-4.05132e-05 0 1.81787e-05)
(-4.26562e-05 0 1.45365e-05)
(-4.40826e-05 0 1.06396e-05)
(-4.48671e-05 0 6.61654e-06)
(-4.50811e-05 0 2.5872e-06)
(-4.47703e-05 0 -1.34891e-06)
(-4.39567e-05 0 -5.12039e-06)
(-4.26516e-05 0 -8.68275e-06)
(-4.08632e-05 0 -1.20071e-05)
(-3.86006e-05 0 -1.50697e-05)
(-3.58778e-05 0 -1.78503e-05)
(-3.27169e-05 0 -2.03338e-05)
(-2.91487e-05 0 -2.25108e-05)
(-2.52132e-05 0 -2.43763e-05)
(-2.09575e-05 0 -2.59276e-05)
(-1.64347e-05 0 -2.71628e-05)
(-1.17018e-05 0 -2.80804e-05)
(-6.81918e-06 0 -2.86791e-05)
(-1.84911e-06 0 -2.8958e-05)
(2.8218e-06 0 -3.36575e-05)
(7.26374e-06 0 -3.32256e-05)
(1.16053e-05 0 -3.24135e-05)
(1.57867e-05 0 -3.1224e-05)
(1.97507e-05 0 -2.96613e-05)
(2.34437e-05 0 -2.77303e-05)
(2.68172e-05 0 -2.54372e-05)
(2.98285e-05 0 -2.27905e-05)
(3.24425e-05 0 -1.9802e-05)
(3.46316e-05 0 -1.64893e-05)
(3.63757e-05 0 -1.28769e-05)
(3.76612e-05 0 -8.99661e-06)
(3.84809e-05 0 -4.88665e-06)
(3.88344e-05 0 -5.9074e-07)
(3.87262e-05 0 3.84138e-06)
(3.81605e-05 0 8.35183e-06)
(3.71347e-05 0 1.28681e-05)
(3.56328e-05 0 1.72942e-05)
(3.36187e-05 0 2.15115e-05)
(3.10402e-05 0 2.53902e-05)
(2.78581e-05 0 2.88099e-05)
(2.4077e-05 0 3.16794e-05)
(1.97509e-05 0 3.39493e-05)
(1.49743e-05 0 3.56038e-05)
(9.8696e-06 0 3.66424e-05)
(4.57545e-06 0 3.70673e-05)
(-7.62578e-07 0 3.68812e-05)
(-5.99753e-06 0 3.6088e-05)
(-1.09865e-05 0 3.46934e-05)
(-1.55969e-05 0 3.27045e-05)
(-1.97153e-05 0 3.01335e-05)
(-2.32592e-05 0 2.70094e-05)
(-2.61869e-05 0 2.33944e-05)
(-2.85033e-05 0 1.93865e-05)
(-3.02523e-05 0 1.51064e-05)
(-3.14876e-05 0 1.06784e-05)
(-3.22488e-05 0 6.21496e-06)
(-3.25569e-05 0 1.80711e-06)
(-3.24213e-05 0 -2.47544e-06)
(-3.18448e-05 0 -6.57701e-06)
(-3.08299e-05 0 -1.04511e-05)
(-2.93837e-05 0 -1.40589e-05)
(-2.75205e-05 0 -1.73677e-05)
(-2.52617e-05 0 -2.03502e-05)
(-2.26347e-05 0 -2.2985e-05)
(-1.96737e-05 0 -2.5256e-05)
(-1.64187e-05 0 -2.7152e-05)
(-1.29162e-05 0 -2.86656e-05)
(-9.21761e-06 0 -2.97916e-05)
(-5.37836e-06 0 -3.05268e-05)
(-1.4568e-06 0 -3.08691e-05)
(2.48706e-06 0 -3.08175e-05)
(6.39281e-06 0 -3.03721e-05)
(1.02008e-05 0 -2.95343e-05)
(1.38533e-05 0 -2.83065e-05)
(1.72957e-05 0 -2.66923e-05)
(2.04779e-05 0 -2.46973e-05)
(2.33552e-05 0 -2.23299e-05)
(2.58888e-05 0 -1.96025e-05)
(2.80465e-05 0 -1.65325e-05)
(2.98023e-05 0 -1.31428e-05)
(3.11368e-05 0 -9.46219e-06)
(3.20375e-05 0 -5.52479e-06)
(3.24989e-05 0 -1.37143e-06)
(3.25191e-05 0 2.94922e-06)
(3.20938e-05 0 7.37853e-06)
(3.12115e-05 0 1.18418e-05)
(2.98466e-05 0 1.62421e-05)
(2.79549e-05 0 2.04626e-05)
(2.54821e-05 0 2.43784e-05)
(2.23924e-05 0 2.78729e-05)
(1.8693e-05 0 3.08565e-05)
(1.44371e-05 0 3.32772e-05)
(9.7165e-06 0 3.51116e-05)
(4.65053e-06 0 3.63498e-05)
(-6.24855e-07 0 3.69851e-05)
(-5.96516e-06 0 3.70123e-05)
(-1.12233e-05 0 3.64278e-05)
(-1.6255e-05 0 3.52293e-05)
(-2.09248e-05 0 3.34145e-05)
(-2.51162e-05 0 3.09864e-05)
(-2.87445e-05 0 2.79677e-05)
(-3.17676e-05 0 2.4419e-05)
(-3.41941e-05 0 2.04406e-05)
(-3.60702e-05 0 1.61574e-05)
(-3.74457e-05 0 1.16978e-05)
(-3.8351e-05 0 7.17554e-06)
(-3.8798e-05 0 2.67978e-06)
(-3.87868e-05 0 -1.72163e-06)
(-3.83125e-05 0 -5.97332e-06)
(-3.73715e-05 0 -1.00273e-05)
(-3.5966e-05 0 -1.38412e-05)
(-3.41048e-05 0 -1.73785e-05)
(-3.18031e-05 0 -2.06091e-05)
(-2.9083e-05 0 -2.35104e-05)
(-2.59739e-05 0 -2.60664e-05)
(-2.25131e-05 0 -2.82663e-05)
(-1.87449e-05 0 -3.01025e-05)
(-1.47191e-05 0 -3.15689e-05)
(-1.04906e-05 0 -3.26608e-05)
(-6.11718e-06 0 -3.33745e-05)
(-1.65917e-06 0 -3.37073e-05)
(2.47727e-06 0 -3.78523e-05)
(6.3745e-06 0 -3.73521e-05)
(1.01778e-05 0 -3.64124e-05)
(1.38314e-05 0 -3.50382e-05)
(1.72821e-05 0 -3.3237e-05)
(2.04805e-05 0 -3.10182e-05)
(2.33819e-05 0 -2.83939e-05)
(2.59477e-05 0 -2.53796e-05)
(2.8146e-05 0 -2.19947e-05)
(2.9952e-05 0 -1.82641e-05)
(3.13478e-05 0 -1.42187e-05)
(3.2322e-05 0 -9.89504e-06)
(3.28694e-05 0 -5.33562e-06)
(3.2991e-05 0 -5.89341e-07)
(3.26942e-05 0 4.28655e-06)
(3.19902e-05 0 9.22541e-06)
(3.08926e-05 0 1.41516e-05)
(2.94119e-05 0 1.89821e-05)
(2.75513e-05 0 2.36244e-05)
(2.53041e-05 0 2.79706e-05)
(2.26553e-05 0 3.18984e-05)
(1.95902e-05 0 3.52877e-05)
(1.61138e-05 0 3.80397e-05)
(1.227e-05 0 4.00863e-05)
(8.14454e-06 0 4.13899e-05)
(3.85176e-06 0 4.19349e-05)
(-4.79026e-07 0 4.17184e-05)
(-4.71507e-06 0 4.07462e-05)
(-8.73121e-06 0 3.90334e-05)
(-1.24214e-05 0 3.66097e-05)
(-1.57112e-05 0 3.35277e-05)
(-1.85673e-05 0 2.98677e-05)
(-2.09921e-05 0 2.57356e-05)
(-2.3005e-05 0 2.12531e-05)
(-2.46242e-05 0 1.65406e-05)
(-2.58598e-05 0 1.17039e-05)
(-2.67131e-05 0 6.83276e-06)
(-2.71791e-05 0 2.00685e-06)
(-2.72511e-05 0 -2.70206e-06)
(-2.6924e-05 0 -7.23052e-06)
(-2.61971e-05 0 -1.15245e-05)
(-2.50758e-05 0 -1.55389e-05)
(-2.35721e-05 0 -1.92361e-05)
(-2.17047e-05 0 -2.25838e-05)
(-1.94984e-05 0 -2.55551e-05)
(-1.69842e-05 0 -2.8128e-05)
(-1.41991e-05 0 -3.02851e-05)
(-1.11854e-05 0 -3.20132e-05)
(-7.99045e-06 0 -3.33025e-05)
(-4.66535e-06 0 -3.4146e-05)
(-1.26405e-06 0 -3.45391e-05)
(2.15793e-06 0 -3.44798e-05)
(5.5446e-06 0 -3.39684e-05)
(8.84073e-06 0 -3.30077e-05)
(1.1993e-05 0 -3.16028e-05)
(1.49512e-05 0 -2.97613e-05)
(1.76693e-05 0 -2.7494e-05)
(2.01062e-05 0 -2.48151e-05)
(2.22266e-05 0 -2.17431e-05)
(2.4001e-05 0 -1.83013e-05)
(2.54062e-05 0 -1.4518e-05)
(2.64252e-05 0 -1.04268e-05)
(2.70478e-05 0 -6.06712e-06)
(2.72704e-05 0 -1.48623e-06)
(2.70949e-05 0 3.25926e-06)
(2.6527e-05 0 8.10363e-06)
(2.55735e-05 0 1.29731e-05)
(2.42383e-05 0 1.77859e-05)
(2.25177e-05 0 2.24486e-05)
(2.03994e-05 0 2.68509e-05)
(1.78636e-05 0 3.08704e-05)
(1.48936e-05 0 3.43884e-05)
(1.14946e-05 0 3.73047e-05)
(7.711e-06 0 3.95466e-05)
(3.62665e-06 0 4.10682e-05)
(-6.46297e-07 0 4.18443e-05)
(-4.97965e-06 0 4.18626e-05)
(-9.24053e-06 0 4.11194e-05)
(-1.33024e-05 0 3.96203e-05)
(-1.70569e-05 0 3.73857e-05)
(-2.04284e-05 0 3.44605e-05)
(-2.33841e-05 0 3.09211e-05)
(-2.59265e-05 0 2.68731e-05)
(-2.80717e-05 0 2.24393e-05)
(-2.98331e-05 0 1.77391e-05)
(-3.12148e-05 0 1.28761e-05)
(-3.22113e-05 0 7.9396e-06)
(-3.28106e-05 0 3.01079e-06)
(-3.29998e-05 0 -1.83689e-06)
(-3.2768e-05 0 -6.53932e-06)
(-3.21096e-05 0 -1.10416e-05)
(-3.10251e-05 0 -1.52967e-05)
(-2.95214e-05 0 -1.92636e-05)
(-2.76115e-05 0 -2.29071e-05)
(-2.53151e-05 0 -2.6198e-05)
(-2.26588e-05 0 -2.91129e-05)
(-1.96763e-05 0 -3.16334e-05)
(-1.64079e-05 0 -3.3745e-05)
(-1.28995e-05 0 -3.54363e-05)
(-9.20185e-06 0 -3.66984e-05)
(-5.36873e-06 0 -3.75245e-05)
(-1.45647e-06 0 -3.79099e-05)
(2.11827e-06 0 -4.14885e-05)
(5.44873e-06 0 -4.09259e-05)
(8.69425e-06 0 -3.98697e-05)
(1.18045e-05 0 -3.83272e-05)
(1.47317e-05 0 -3.63086e-05)
(1.74315e-05 0 -3.38277e-05)
(1.98645e-05 0 -3.09018e-05)
(2.19963e-05 0 -2.75522e-05)
(2.3799e-05 0 -2.38052e-05)
(2.52508e-05 0 -1.96922e-05)
(2.63365e-05 0 -1.52507e-05)
(2.70473e-05 0 -1.05241e-05)
(2.73803e-05 0 -5.56134e-06)
(2.73394e-05 0 -4.17589e-07)
(2.69341e-05 0 4.84558e-06)
(2.61787e-05 0 1.01592e-05)
(2.50906e-05 0 1.54458e-05)
(2.36892e-05 0 2.06192e-05)
(2.19937e-05 0 2.55844e-05)
(2.00208e-05 0 3.0238e-05)
(1.77819e-05 0 3.44707e-05)
(1.5284e-05 0 3.81697e-05)
(1.2537e-05 0 4.12241e-05)
(9.56423e-06 0 4.3536e-05)
(6.41095e-06 0 4.5032e-05)
(3.1467e-06 0 4.56673e-05)
(-1.40905e-07 0 4.54245e-05)
(-3.35901e-06 0 4.43119e-05)
(-6.42428e-06 0 4.23642e-05)
(-9.27439e-06 0 3.96422e-05)
(-1.18718e-05 0 3.62329e-05)
(-1.41995e-05 0 3.22437e-05)
(-1.62521e-05 0 2.77906e-05)
(-1.80258e-05 0 2.29884e-05)
(-1.95127e-05 0 1.79461e-05)
(-2.07001e-05 0 1.27651e-05)
(-2.15732e-05 0 7.53727e-06)
(-2.21184e-05 0 2.34586e-06)
(-2.23242e-05 0 -2.7349e-06)
(-2.21826e-05 0 -7.63899e-06)
(-2.16903e-05 0 -1.2308e-05)
(-2.08497e-05 0 -1.66908e-05)
(-1.96701e-05 0 -2.07427e-05)
(-1.81668e-05 0 -2.4425e-05)
(-1.63616e-05 0 -2.77044e-05)
(-1.42816e-05 0 -3.05529e-05)
(-1.19597e-05 0 -3.29478e-05)
(-9.43353e-06 0 -3.48709e-05)
(-6.74535e-06 0 -3.63084e-05)
(-3.94077e-06 0 -3.725e-05)
(-1.06801e-06 0 -3.76893e-05)
(1.82325e-06 0 -3.7623e-05)
(4.68291e-06 0 -3.70517e-05)
(7.46156e-06 0 -3.59795e-05)
(1.01116e-05 0 -3.44137e-05)
(1.25881e-05 0 -3.23656e-05)
(1.48502e-05 0 -2.98502e-05)
(1.68612e-05 0 -2.68866e-05)
(1.85898e-05 0 -2.3499e-05)
(2.00102e-05 0 -1.97168e-05)
(2.11024e-05 0 -1.55746e-05)
(2.18526e-05 0 -1.11127e-05)
(2.22532e-05 0 -6.37726e-06)
(2.23036e-05 0 -1.42141e-06)
(2.20082e-05 0 3.69445e-06)
(2.13761e-05 0 8.90225e-06)
(2.04195e-05 0 1.41255e-05)
(1.91526e-05 0 1.92789e-05)
(1.75898e-05 0 2.42678e-05)
(1.57428e-05 0 2.8989e-05)
(1.36181e-05 0 3.33316e-05)
(1.12193e-05 0 3.71799e-05)
(8.55377e-06 0 4.04189e-05)
(5.64308e-06 0 4.2946e-05)
(2.53115e-06 0 4.46804e-05)
(-7.13519e-07 0 4.55684e-05)
(-4.0038e-06 0 4.55821e-05)
(-7.24678e-06 0 4.472e-05)
(-1.03585e-05 0 4.30063e-05)
(-1.32756e-05 0 4.04932e-05)
(-1.5959e-05 0 3.72614e-05)
(-1.839e-05 0 3.34133e-05)
(-2.05602e-05 0 2.90611e-05)
(-2.2462e-05 0 2.43169e-05)
(-2.40827e-05 0 1.92888e-05)
(-2.54043e-05 0 1.4078e-05)
(-2.64076e-05 0 8.7772e-06)
(-2.70736e-05 0 3.47031e-06)
(-2.73854e-05 0 -1.76755e-06)
(-2.73298e-05 0 -6.86948e-06)
(-2.68987e-05 0 -1.17756e-05)
(-2.609e-05 0 -1.64325e-05)
(-2.4908e-05 0 -2.07925e-05)
(-2.33633e-05 0 -2.48139e-05)
(-2.14727e-05 0 -2.84606e-05)
(-1.92597e-05 0 -3.17026e-05)
(-1.67539e-05 0 -3.4515e-05)
(-1.39909e-05 0 -3.68775e-05)
(-1.10118e-05 0 -3.87738e-05)
(-7.86176e-06 0 -4.01911e-05)
(-4.58929e-06 0 -4.11197e-05)
(-1.24523e-06 0 -4.15533e-05)
(1.75106e-06 0 -4.45472e-05)
(4.5024e-06 0 -4.39291e-05)
(7.17955e-06 0 -4.27693e-05)
(9.73865e-06 0 -4.10769e-05)
(1.21382e-05 0 -3.88655e-05)
(1.43401e-05 0 -3.61526e-05)
(1.63102e-05 0 -3.29604e-05)
(1.80194e-05 0 -2.93156e-05)
(1.94442e-05 0 -2.52504e-05)
(2.05665e-05 0 -2.08026e-05)
(2.13744e-05 0 -1.60157e-05)
(2.18619e-05 0 -1.0939e-05)
(2.20286e-05 0 -5.62789e-06)
(2.18804e-05 0 -1.43303e-07)
(2.14287e-05 0 5.44765e-06)
(2.06897e-05 0 1.10716e-05)
(1.9684e-05 0 1.66483e-05)
(1.84346e-05 0 2.20905e-05)
(1.69666e-05 0 2.73034e-05)
(1.53051e-05 0 3.21839e-05)
(1.34734e-05 0 3.66216e-05)
(1.14925e-05 0 4.05029e-05)
(9.38198e-06 0 4.37163e-05)
(7.1623e-06 0 4.61596e-05)
(4.85954e-06 0 4.77486e-05)
(2.50833e-06 0 4.84251e-05)
(1.50671e-07 0 4.81632e-05)
(-2.16933e-06 0 4.6973e-05)
(-4.41186e-06 0 4.48997e-05)
(-6.54569e-06 0 4.20184e-05)
(-8.54817e-06 0 3.84268e-05)
(-1.04016e-05 0 3.42361e-05)
(-1.20889e-05 0 2.95628e-05)
(-1.35916e-05 0 2.45221e-05)
(-1.48895e-05 0 1.92239e-05)
(-1.59613e-05 0 1.37699e-05)
(-1.67866e-05 0 8.25291e-06)
(-1.73476e-05 0 2.75765e-06)
(-1.76294e-05 0 -2.63839e-06)
(-1.76217e-05 0 -7.86474e-06)
(-1.7319e-05 0 -1.28575e-05)
(-1.67213e-05 0 -1.75594e-05)
(-1.58349e-05 0 -2.19197e-05)
(-1.46717e-05 0 -2.58935e-05)
(-1.32493e-05 0 -2.9442e-05)
(-1.15906e-05 0 -3.25318e-05)
(-9.72349e-06 0 -3.51352e-05)
(-7.6803e-06 0 -3.72296e-05)
(-5.49725e-06 0 -3.87973e-05)
(-3.21368e-06 0 -3.98253e-05)
(-8.71193e-07 0 -4.03051e-05)
(1.48727e-06 0 -4.02327e-05)
(3.81843e-06 0 -3.96087e-05)
(6.07961e-06 0 -3.84384e-05)
(8.22971e-06 0 -3.67313e-05)
(1.02301e-05 0 -3.45019e-05)
(1.20456e-05 0 -3.17689e-05)
(1.36449e-05 0 -2.85562e-05)
(1.50015e-05 0 -2.48932e-05)
(1.60938e-05 0 -2.08145e-05)
(1.69056e-05 0 -1.63606e-05)
(1.74265e-05 0 -1.15777e-05)
(1.76519e-05 0 -6.51843e-06)
(1.75832e-05 0 -1.24168e-06)
(1.72273e-05 0 4.18684e-06)
(1.65958e-05 0 9.69491e-06)
(1.57043e-05 0 1.52033e-05)
(1.45715e-05 0 2.06251e-05)
(1.32181e-05 0 2.58655e-05)
(1.16653e-05 0 3.08204e-05)
(9.93297e-06 0 3.53783e-05)
(8.03908e-06 0 3.94232e-05)
(6.00054e-06 0 4.28392e-05)
(3.83591e-06 0 4.55179e-05)
(1.56985e-06 0 4.73668e-05)
(-7.63992e-07 0 4.83178e-05)
(-3.12414e-06 0 4.83346e-05)
(-5.46641e-06 0 4.74166e-05)
(-7.75034e-06 0 4.55986e-05)
(-9.94364e-06 0 4.29463e-05)
(-1.20221e-05 0 3.95492e-05)
(-1.39658e-05 0 3.55128e-05)
(-1.57551e-05 0 3.09498e-05)
(-1.73684e-05 0 2.59733e-05)
(-1.87818e-05 0 2.0692e-05)
(-1.997e-05 0 1.52069e-05)
(-2.09084e-05 0 9.61069e-06)
(-2.15744e-05 0 3.98867e-06)
(-2.19486e-05 0 -1.58079e-06)
(-2.20158e-05 0 -7.0261e-06)
(-2.17659e-05 0 -1.22817e-05)
(-2.11949e-05 0 -1.7288e-05)
(-2.03043e-05 0 -2.19913e-05)
(-1.9102e-05 0 -2.63437e-05)