/*--------------------------------*- C++ -*----------------------------------*\
| =========                 |                                                 |
| \\      /  F ield         | OpenFOAM: The Open Source CFD Toolbox           |
|  \\    /   O peration     | Version:  2.3.0                                 |
|   \\  /    A nd           | Web:      www.OpenFOAM.org                      |
|    \\/     M anipulation  |                                                 |
\*---------------------------------------------------------------------------*/
FoamFile
{
    version     2.0;
    format      ascii;
    class       volVectorField;
    location    "3000";
    object      U;
}
// * * * * * * * * * * * * * * * * * * * * * * * * * * * * * * * * * * * * * //

dimensions      [0 1 -1 0 0 0 0];

internalField   nonuniform List<vector> 
765
(
(-0.000824737 0 68.6626)
(50.7563 0 20.5581)
(7.16782 0 6.23842)
(1.03498 0 2.91918)
(-4.76807 0 1.40639)
(-7.83003 0 0.949313)
(-10.5841 0 0.837737)
(-12.9345 0 0.804729)
(-14.7882 0 0.755405)
(-16.0682 0 0.662838)
(-16.8741 0 0.531777)
(-17.3346 0 0.368438)
(-17.537 0 0.202037)
(-17.5492 0 0.0647734)
(-17.4265 0 -0.0441012)
(-17.177 0 -0.144817)
(-16.7813 0 -0.256111)
(-16.2028 0 -0.389718)
(-15.3957 0 -0.550546)
(-14.313 0 -0.736686)
(-12.916 0 -0.939307)
(-11.1829 0 -1.14333)
(-9.1175 0 -1.32994)
(-6.75324 0 -1.48112)
(-4.15267 0 -1.58473)
(-1.4013 0 -1.63658)
(1.40174 0 -1.63664)
(4.15314 0 -1.58487)
(6.75375 0 -1.48128)
(9.11805 0 -1.33003)
(11.1835 0 -1.14335)
(12.9165 0 -0.939297)
(14.3134 0 -0.736729)
(15.396 0 -0.550667)
(16.2032 0 -0.389874)
(16.7818 0 -0.256249)
(17.1775 0 -0.144927)
(17.427 0 -0.0441989)
(17.5496 0 0.0647282)
(17.5373 0 0.202128)
(17.335 0 0.368644)
(16.8744 0 0.531911)
(16.0682 0 0.662791)
(14.7879 0 0.755355)
(12.9343 0 0.804776)
(10.5838 0 0.83756)
(7.82929 0 0.948865)
(4.76715 0 1.40622)
(-1.03571 0 2.91879)
(-7.16912 0 6.23782)
(-50.7582 0 20.5578)
(-0.00137577 0 97.5465)
(19.0936 0 38.4892)
(0.536785 0 21.7)
(-5.16032 0 11.2353)
(-11.381 0 6.76549)
(-15.7191 0 5.03469)
(-19.4664 0 4.30203)
(-22.1522 0 3.42178)
(-23.6618 0 2.26169)
(-24.2745 0 1.23229)
(-24.2926 0 0.51727)
(-23.9921 0 0.0889758)
(-23.5679 0 -0.153382)
(-23.0925 0 -0.314244)
(-22.5567 0 -0.467161)
(-21.9247 0 -0.653447)
(-21.1497 0 -0.896756)
(-20.1798 0 -1.21032)
(-18.9632 0 -1.59729)
(-17.4529 0 -2.04956)
(-15.6128 0 -2.54681)
(-13.4236 0 -3.05714)
(-10.8891 0 -3.53993)
(-8.03993 0 -3.95145)
(-4.93595 0 -4.25166)
(-1.66464 0 -4.41026)
(1.66523 0 -4.41031)
(4.93662 0 -4.25181)
(8.04069 0 -3.95164)
(10.8899 0 -3.54012)
(13.4244 0 -3.05732)
(15.6134 0 -2.54701)
(17.4534 0 -2.04979)
(18.9636 0 -1.59755)
(20.1803 0 -1.21056)
(21.1502 0 -0.896957)
(21.9252 0 -0.653595)
(22.5571 0 -0.467257)
(23.0928 0 -0.314255)
(23.5683 0 -0.153262)
(23.9923 0 0.0891902)
(24.2926 0 0.51743)
(24.2742 0 1.23235)
(23.6614 0 2.26188)
(22.1516 0 3.42205)
(19.4652 0 4.30179)
(15.7176 0 5.03417)
(11.3791 0 6.76562)
(5.15798 0 11.2351)
(-0.539637 0 21.6999)
(-19.0967 0 38.4898)
(-0.0026372 0 59.2757)
(8.95378 0 37.779)
(-1.20594 0 26.7911)
(-6.94643 0 17.2052)
(-12.9667 0 11.8496)
(-17.2984 0 9.18401)
(-20.3606 0 7.19447)
(-22.0575 0 5.00165)
(-23.0215 0 3.05316)
(-23.5764 0 1.54553)
(-23.8347 0 0.512894)
(-23.857 0 -0.124297)
(-23.6901 0 -0.508954)
(-23.3666 0 -0.784404)
(-22.9002 0 -1.05403)
(-22.2829 0 -1.38122)
(-21.4884 0 -1.80327)
(-20.4798 0 -2.33923)
(-19.2159 0 -2.99185)
(-17.6577 0 -3.7469)
(-15.7741 0 -4.57224)
(-13.5483 0 -5.41829)
(-10.9831 0 -6.22147)
(-8.10687 0 -6.91104)
(-4.97662 0 -7.41868)
(-1.67833 0 -7.68896)
(1.67904 0 -7.68902)
(4.97739 0 -7.41883)
(8.10771 0 -6.91126)
(10.984 0 -6.22173)
(13.5491 0 -5.41859)
(15.7748 0 -4.57257)
(17.6582 0 -3.74724)
(19.2164 0 -2.99216)
(20.4803 0 -2.33949)
(21.489 0 -1.80346)
(22.2834 0 -1.38136)
(22.9006 0 -1.05411)
(23.367 0 -0.78438)
(23.6904 0 -0.508819)
(23.8571 0 -0.12412)
(23.8345 0 0.513049)
(23.5761 0 1.54572)
(23.0211 0 3.05348)
(22.0568 0 5.00195)
(20.3594 0 7.19454)
(17.2972 0 9.184)
(12.9647 0 11.8496)
(6.94346 0 17.2058)
(1.20294 0 26.7918)
(-8.95816 0 37.7795)
(-0.00212517 0 53.6415)
(2.82818 0 42.5472)
(-3.04568 0 33.0577)
(-7.62983 0 23.1491)
(-12.3445 0 16.4926)
(-15.6271 0 12.447)
(-17.6498 0 9.12588)
(-19.0167 0 6.14353)
(-20.0179 0 3.76513)
(-20.7422 0 2.00224)
(-21.2446 0 0.759745)
(-21.533 0 -0.0797185)
(-21.613 0 -0.655932)
(-21.4972 0 -1.10875)
(-21.1974 0 -1.55166)
(-20.714 0 -2.06454)
(-20.0334 0 -2.6987)
(-19.1308 0 -3.48159)
(-17.9758 0 -4.41821)
(-16.5368 0 -5.49043)
(-14.7876 0 -6.65594)
(-12.7129 0 -7.84867)
(-10.3147 0 -8.98253)
(-7.619 0 -9.9594)
(-4.67952 0 -10.6816)
(-1.57852 0 -11.0673)
(1.57928 0 -11.0674)
(4.68035 0 -10.6818)
(7.6199 0 -9.95965)
(10.3156 0 -8.98281)
(12.7137 0 -7.84897)
(14.7884 0 -6.65624)
(16.5375 0 -5.49072)
(17.9763 0 -4.41846)
(19.1314 0 -3.48179)
(20.0339 0 -2.69886)
(20.7145 0 -2.06465)
(21.1978 0 -1.55171)
(21.4976 0 -1.1087)
(21.6132 0 -0.655794)
(21.5329 0 -0.0795455)
(21.2443 0 0.759967)
(20.7418 0 2.00259)
(20.0174 0 3.76559)
(19.0159 0 6.144)
(17.6488 0 9.12643)
(15.6259 0 12.4473)
(12.3426 0 16.4929)
(7.62705 0 23.1501)
(3.04182 0 33.0587)
(-2.83254 0 42.5475)
(-0.00223442 0 50.9509)
(0.644608 0 44.7718)
(-2.77383 0 36.6603)
(-6.06174 0 27.1628)
(-9.50286 0 19.7435)
(-11.7547 0 14.6488)
(-13.3055 0 10.6056)
(-14.5727 0 7.29917)
(-15.6257 0 4.70246)
(-16.4832 0 2.72681)
(-17.1568 0 1.27175)
(-17.6378 0 0.219469)
(-17.9201 0 -0.564777)
(-18.0056 0 -1.21651)
(-17.9003 0 -1.85226)
(-17.6058 0 -2.56137)
(-17.1151 0 -3.40576)
(-16.4125 0 -4.42105)
(-15.4762 0 -5.61643)
(-14.2817 0 -6.97302)
(-12.8071 0 -8.44212)
(-11.0384 0 -9.94503)
(-8.97627 0 -11.3765)
(-6.64253 0 -12.6136)
(-4.08508 0 -13.531)
(-1.3789 0 -14.0221)
(1.37966 0 -14.0221)
(4.08593 0 -13.5312)
(6.64347 0 -12.6138)
(8.97724 0 -11.3768)
(11.0393 0 -9.94531)
(12.8078 0 -8.44239)
(14.2824 0 -6.97325)
(15.4768 0 -5.61661)
(16.4131 0 -4.42119)
(17.1156 0 -3.40587)
(17.6063 0 -2.56146)
(17.9007 0 -1.85229)
(18.0059 0 -1.21645)
(17.9202 0 -0.564671)
(17.6376 0 0.219606)
(17.1565 0 1.27199)
(16.4828 0 2.72719)
(15.625 0 4.70287)
(14.5718 0 7.29968)
(13.3044 0 10.6066)
(11.7534 0 14.6497)
(9.5012 0 19.7447)
(6.05908 0 27.1644)
(2.7704 0 36.6622)
(-0.648855 0 44.7735)
(-0.00240815 0 50.4015)
(0.497553 0 46.3467)
(-1.00263 0 39.0663)
(-2.9052 0 29.9478)
(-5.16461 0 22.0477)
(-6.77123 0 16.2972)
(-8.0299 0 11.9355)
(-9.19141 0 8.44431)
(-10.2395 0 5.68349)
(-11.1576 0 3.5468)
(-11.937 0 1.92208)
(-12.5575 0 0.687447)
(-13.0053 0 -0.286373)
(-13.2755 0 -1.12744)
(-13.3697 0 -1.95014)
(-13.2899 0 -2.84775)
(-13.0334 0 -3.88895)
(-12.5918 0 -5.11604)
(-11.9508 0 -6.54274)
(-11.0927 0 -8.15118)
(-9.99998 0 -9.88882)
(-8.66017 0 -11.6671)
(-7.07186 0 -13.3645)
(-5.25123 0 -14.8356)
(-3.23739 0 -15.9296)
(-1.09413 0 -16.5162)
(1.09488 0 -16.5163)
(3.23823 0 -15.9298)
(5.25217 0 -14.8358)
(7.07284 0 -13.3647)
(8.66107 0 -11.6674)
(10.0008 0 -9.88903)
(11.0933 0 -8.15135)
(11.9514 0 -6.54286)
(12.5923 0 -5.11612)
(13.0339 0 -3.88902)
(13.2902 0 -2.84779)
(13.37 0 -1.9501)
(13.2757 0 -1.12732)
(13.0053 0 -0.286192)
(12.5572 0 0.687703)
(11.9366 0 1.92251)
(11.157 0 3.54741)
(10.2387 0 5.68414)
(9.19075 0 8.44503)
(8.02899 0 11.9363)
(6.76968 0 16.2984)
(5.16279 0 22.0493)
(2.90289 0 29.9501)
(0.99986 0 39.0684)
(-0.501472 0 46.3476)
(-0.00129362 0 49.3449)
(1.44338 0 46.3732)
(1.69513 0 39.8841)
(1.18706 0 31.4307)
(-0.026729 0 23.5647)
(-1.1884 0 17.5524)
(-2.20088 0 13.06)
(-3.19968 0 9.50216)
(-4.19003 0 6.66377)
(-5.11274 0 4.42379)
(-5.94317 0 2.67088)
(-6.65362 0 1.28747)
(-7.226 0 0.152782)
(-7.65197 0 -0.852724)
(-7.93127 0 -1.83858)
(-8.06684 0 -2.89845)
(-8.06046 0 -4.10475)
(-7.91012 0 -5.50482)
(-7.60921 0 -7.11685)
(-7.14731 0 -8.9253)
(-6.51224 0 -10.8764)
(-5.69372 0 -12.8753)
(-4.6883 0 -14.7881)
(-3.50518 0 -16.4513)
(-2.17165 0 -17.692)
(-0.735819 0 -18.3585)
(0.736533 0 -18.3585)
(2.17245 0 -17.692)
(3.50608 0 -16.4514)
(4.68924 0 -14.7882)
(5.69459 0 -12.8755)
(6.51298 0 -10.8766)
(7.14793 0 -8.92544)
(7.60974 0 -7.11694)
(7.91055 0 -5.50486)
(8.0608 0 -4.10475)
(8.06713 0 -2.89837)
(7.93152 0 -1.83842)
(7.65207 0 -0.852476)
(7.22585 0 0.153069)
(6.65332 0 1.28784)
(5.94281 0 2.67138)
(5.11213 0 4.42434)
(4.18906 0 6.66442)
(3.19853 0 9.50316)
(2.1998 0 13.0607)
(1.18724 0 17.5537)
(0.024984 0 23.5667)
(-1.18946 0 31.4332)
(-1.69821 0 39.8862)
(-1.44646 0 46.374)
(-0.000988791 0 47.1851)
(2.78686 0 44.8551)
(4.66491 0 39.2134)
(5.52459 0 31.7118)
(5.3571 0 24.3861)
(4.67351 0 18.4705)
(3.88944 0 13.9718)
(3.08839 0 10.4307)
(2.204 0 7.58761)
(1.32604 0 5.29904)
(0.49622 0 3.4623)
(-0.254423 0 1.96972)
(-0.906115 0 0.711322)
(-1.45003 0 -0.422885)
(-1.88612 0 -1.53596)
(-2.2196 0 -2.71913)
(-2.4571 0 -4.04608)
(-2.60364 0 -5.56745)
(-2.66091 0 -7.3054)
(-2.62682 0 -9.24765)
(-2.49606 0 -11.3416)
(-2.26189 0 -13.4901)
(-1.91942 0 -15.552)
(-1.47008 0 -17.3513)
(-0.926618 0 -18.6983)
(-0.316743 0 -19.4238)
(0.317416 0 -19.4238)
(0.927364 0 -18.6983)
(1.4709 0 -17.3514)
(1.92024 0 -15.5521)
(2.26264 0 -13.4902)
(2.49671 0 -11.3418)
(2.62738 0 -9.24779)
(2.66137 0 -7.30546)
(2.60399 0 -5.56743)
(2.45737 0 -4.04597)
(2.21983 0 -2.71891)
(1.88629 0 -1.53565)
(1.44999 0 -0.422552)
(0.905797 0 0.711634)
(0.25395 0 1.97007)
(-0.496838 0 3.46275)
(-1.32688 0 5.29948)
(-2.20478 0 7.58813)
(-3.08933 0 10.4317)
(-3.8906 0 13.9729)
(-4.67469 0 18.4719)
(-5.3588 0 24.388)
(-5.52667 0 31.7142)
(-4.66731 0 39.2157)
(-2.78915 0 44.8573)
(-0.00125463 0 43.6572)
(4.13837 0 41.813)
(7.45958 0 37.1141)
(9.61217 0 30.7916)
(10.5194 0 24.4175)
(10.5212 0 18.9974)
(10.0247 0 14.6686)
(9.40581 0 11.2168)
(8.66671 0 8.41918)
(7.86959 0 6.13005)
(7.084 0 4.25189)
(6.33978 0 2.69082)
(5.65475 0 1.34941)
(5.03542 0 0.128296)
(4.47924 0 -1.06813)
(3.97727 0 -2.32665)
(3.51726 0 -3.71998)
(3.08656 0 -5.30033)
(2.67427 0 -7.09298)
(2.27282 0 -9.08943)
(1.87909 0 -11.2406)
(1.4946 0 -13.4512)
(1.12452 0 -15.5793)
(0.775272 0 -17.4437)
(0.45063 0 -18.8451)
(0.147462 0 -19.6026)
(-0.146852 0 -19.6026)
(-0.449979 0 -18.8451)
(-0.77459 0 -17.4437)
(-1.12386 0 -15.5794)
(-1.49401 0 -13.4514)
(-1.87857 0 -11.2408)
(-2.27235 0 -9.08955)
(-2.67386 0 -7.09298)
(-3.08625 0 -5.30021)
(-3.51704 0 -3.71974)
(-3.97711 0 -2.32628)
(-4.47921 0 -1.06766)
(-5.03568 0 0.128791)
(-5.65525 0 1.3499)
(-6.34033 0 2.69137)
(-7.08466 0 4.25251)
(-7.87053 0 6.13072)
(-8.6676 0 8.41998)
(-9.40679 0 11.2176)
(-10.026 0 14.6698)
(-10.5224 0 18.9988)
(-10.5209 0 24.4195)
(-9.61358 0 30.794)
(-7.46061 0 37.1164)
(-4.13996 0 41.8148)
(-0.000636989 0 38.8332)
(5.27477 0 37.4109)
(9.7766 0 33.6919)
(13.0711 0 28.6463)
(15.0335 0 23.4595)
(15.8866 0 18.8937)
(15.9024 0 15.0528)
(15.493 0 11.8233)
(14.9169 0 9.12846)
(14.2369 0 6.8707)
(13.5323 0 4.98435)
(12.8369 0 3.39247)
(12.1625 0 2.00975)
(11.5107 0 0.747314)
(10.8743 0 -0.482656)
(10.2394 0 -1.76152)
(9.58766 0 -3.1593)
(8.89824 0 -4.72793)
(8.15051 0 -6.49468)
(7.32628 0 -8.455)
(6.41261 0 -10.5654)
(5.40437 0 -12.7371)
(4.30572 0 -14.8338)
(3.13028 0 -16.6783)
(1.8991 0 -18.0711)
(0.636403 0 -18.8271)
(-0.635902 0 -18.8272)
(-1.89859 0 -18.0711)
(-3.12978 0 -16.6783)
(-4.30526 0 -14.834)
(-5.40396 0 -12.7372)
(-6.41221 0 -10.5656)
(-7.32588 0 -8.45507)
(-8.15016 0 -6.49465)
(-8.89798 0 -4.72779)
(-9.58748 0 -3.15906)
(-10.2393 0 -1.76117)
(-10.8744 0 -0.482202)
(-11.5111 0 0.74783)
(-12.1631 0 2.01034)
(-12.8376 0 3.39316)
(-13.5332 0 4.98505)
(-14.238 0 6.87138)
(-14.9179 0 9.12933)
(-15.4941 0 11.8242)
(-15.9037 0 15.0541)
(-15.8877 0 18.8954)
(-15.0346 0 23.4617)
(-13.0721 0 28.6488)
(-9.77728 0 33.694)
(-5.27564 0 37.4114)
(0.000232672 0 33.1524)
(6.02501 0 32.1325)
(11.3255 0 29.4182)
(15.4775 0 25.6899)
(18.3533 0 21.7876)
(20.0691 0 18.2497)
(20.8054 0 15.1122)
(20.8265 0 12.2806)
(20.5064 0 9.75914)
(20.0357 0 7.56016)
(19.4882 0 5.68475)
(18.9045 0 4.08823)
(18.2953 0 2.69897)
(17.6592 0 1.43677)
(16.9862 0 0.220885)
(16.2585 0 -1.02436)
(15.4524 0 -2.36503)
(14.5395 0 -3.85112)
(13.4897 0 -5.51051)
(12.274 0 -7.34236)
(10.8692 0 -9.31073)
(9.26263 0 -11.3375)
(7.4564 0 -13.2992)
(5.47029 0 -15.0318)
(3.34208 0 -16.3465)
(1.12421 0 -17.0635)
(-1.12388 0 -17.0636)
(-3.34176 0 -16.3466)
(-5.46999 0 -15.0319)
(-7.45614 0 -13.2994)
(-9.26239 0 -11.3376)
(-10.8689 0 -9.31082)
(-12.2737 0 -7.34239)
(-13.4895 0 -5.51048)
(-14.5394 0 -3.85104)
(-15.4523 0 -2.36486)
(-16.2585 0 -1.02407)
(-16.9863 0 0.22131)
(-17.6597 0 1.4373)
(-18.296 0 2.6996)
(-18.9054 0 4.08899)
(-19.4893 0 5.68555)
(-20.0369 0 7.56098)
(-20.5076 0 9.76011)
(-20.8277 0 12.2816)
(-20.8066 0 15.1135)
(-20.07 0 18.2512)
(-18.3541 0 21.7895)
(-15.4782 0 25.692)
(-11.3262 0 29.42)
(-6.02522 0 32.1333)
(0.000316258 0 26.8663)
(6.33836 0 26.1661)
(11.9941 0 24.2548)
(16.5507 0 21.5418)
(19.8825 0 18.6907)
(22.1786 0 16.2317)
(23.6162 0 14.0814)
(24.3557 0 11.9505)
(24.647 0 9.8015)
(24.6515 0 7.79084)
(24.455 0 6.02471)
(24.117 0 4.50515)
(23.6662 0 3.18338)
(23.1137 0 1.99203)
(22.4573 0 0.859974)
(21.6831 0 -0.28002)
(20.7663 0 -1.48699)
(19.6739 0 -2.80665)
(18.3682 0 -4.26566)
(16.8108 0 -5.86614)
(14.9688 0 -7.58115)
(12.8224 0 -9.34709)
(10.3713 0 -11.0603)
(7.64053 0 -12.5793)
(4.683 0 -13.7377)
(1.57801 0 -14.3728)
(-1.57791 0 -14.3729)
(-4.68289 0 -13.7378)
(-7.64041 0 -12.5795)
(-10.3712 0 -11.0604)
(-12.8223 0 -9.3472)
(-14.9687 0 -7.58122)
(-16.8107 0 -5.86618)
(-18.3681 0 -4.26564)
(-19.6739 0 -2.80653)
(-20.7663 0 -1.48669)
(-21.6831 0 -0.279537)
(-22.4575 0 0.860584)
(-23.1142 0 1.99268)
(-23.6669 0 3.18405)
(-24.1179 0 4.50587)
(-24.4563 0 6.02549)
(-24.6528 0 7.79171)
(-24.6482 0 9.80244)
(-24.3568 0 11.9514)
(-23.6172 0 14.0823)
(-22.1793 0 16.2327)
(-19.883 0 18.6921)
(-16.5508 0 21.5434)
(-11.9941 0 24.2563)
(-6.33797 0 26.1677)
(0.000163281 0 20.8056)
(5.958 0 20.4599)
(11.4425 0 19.4955)
(16.0722 0 18.0769)
(19.6187 0 16.4642)
(22.2954 0 14.8556)
(24.402 0 13.2463)
(26.0289 0 11.5412)
(27.1689 0 9.75471)
(27.8585 0 8.03161)
(28.1741 0 6.4795)
(28.1964 0 5.12063)
(27.9836 0 3.92798)
(27.5719 0 2.85285)
(26.9764 0 1.84017)
(26.194 0 0.836814)
(25.2058 0 -0.203721)
(23.9785 0 -1.31811)
(22.4703 0 -2.52897)
(20.6354 0 -3.83967)
(18.4327 0 -5.23361)
(15.8367 0 -6.66497)
(12.8447 0 -8.05487)
(9.48541 0 -9.29176)
(5.82455 0 -10.2402)
(1.96463 0 -10.7635)
(-1.96476 0 -10.7635)
(-5.82464 0 -10.2403)
(-9.48546 0 -9.29186)
(-12.8447 0 -8.05498)
(-15.8368 0 -6.66508)
(-18.4328 0 -5.2337)
(-20.6354 0 -3.83968)
(-22.4702 0 -2.52886)
(-23.9784 0 -1.31786)
(-25.2057 0 -0.203359)
(-26.1941 0 0.837227)
(-26.9767 0 1.8406)
(-27.5726 0 2.85332)
(-27.9845 0 3.92853)
(-28.1973 0 5.12127)
(-28.1753 0 6.48019)
(-27.8596 0 8.03239)
(-27.1698 0 9.75552)
(-26.0297 0 11.542)
(-24.4027 0 13.2471)
(-22.296 0 14.8564)
(-19.619 0 16.4651)
(-16.072 0 18.0778)
(-11.4418 0 19.4963)
(-5.95727 0 20.4606)
(0.000183387 0 12.7589)
(5.16252 0 12.6118)
(10.0801 0 12.2131)
(14.5537 0 11.6474)
(18.4616 0 10.9564)
(21.7889 0 10.1053)
(24.5928 0 9.11268)
(26.889 0 8.02171)
(28.6456 0 6.87766)
(29.8645 0 5.75747)
(30.6043 0 4.72631)
(30.9438 0 3.80746)
(30.9522 0 2.9925)
(30.6797 0 2.25545)
(30.1541 0 1.56327)
(29.3818 0 0.882712)
(28.3504 0 0.184569)
(27.0298 0 -0.553724)
(25.3788 0 -1.3475)
(23.3466 0 -2.19812)
(20.8851 0 -3.09961)
(17.9662 0 -4.02602)
(14.5871 0 -4.92908)
(10.7809 0 -5.73782)
(6.62345 0 -6.36318)
(2.23454 0 -6.7116)
(-2.2348 0 -6.71159)
(-6.62367 0 -6.36318)
(-10.7811 0 -5.73785)
(-14.5873 0 -4.92917)
(-17.9664 0 -4.02613)
(-20.8852 0 -3.09966)
(-23.3466 0 -2.19808)
(-25.3788 0 -1.3474)
(-27.0299 0 -0.553641)
(-28.3505 0 0.184618)
(-29.382 0 0.882774)
(-30.1545 0 1.5634)
(-30.6803 0 2.25566)
(-30.953 0 2.99279)
(-30.9447 0 3.80782)
(-30.6054 0 4.72673)
(-29.8655 0 5.75796)
(-28.6463 0 6.87816)
(-26.8895 0 8.0222)
(-24.5931 0 9.11315)
(-21.7891 0 10.1058)
(-18.4616 0 10.9568)
(-14.5535 0 11.6477)
(-10.0797 0 12.2134)
(-5.16206 0 12.6117)
(0.000369808 0 17.3963)
(4.86526 0 17.2292)
(9.56711 0 16.7786)
(13.9781 0 16.1243)
(18.0334 0 15.3415)
(21.6825 0 14.4755)
(24.8626 0 13.5431)
(27.5174 0 12.5511)
(29.6034 0 11.5178)
(31.1152 0 10.4801)
(32.0984 0 9.47368)
(32.6239 0 8.519)
(32.762 0 7.62137)
(32.5684 0 6.77535)
(32.0776 0 5.96931)
(31.3014 0 5.18979)
(30.2317 0 4.4257)
(28.8415 0 3.67141)
(27.0931 0 2.92309)
(24.9362 0 2.19319)
(22.3207 0 1.46473)
(19.2167 0 0.735648)
(15.6179 0 0.0259652)
(11.5549 0 -0.621123)
(7.10517 0 -1.13847)
(2.39815 0 -1.43936)
(-2.39845 0 -1.43934)
(-7.10549 0 -1.13843)
(-11.5553 0 -0.621083)
(-15.6182 0 0.0259974)
(-19.2169 0 0.735703)
(-22.3208 0 1.46485)
(-24.9363 0 2.19337)
(-27.0933 0 2.92328)
(-28.8417 0 3.67158)
(-30.2319 0 4.42588)
(-31.3015 0 5.19007)
(-32.0779 0 5.9697)
(-32.5692 0 6.7758)
(-32.7629 0 7.62182)
(-32.6247 0 8.51947)
(-32.0993 0 9.47423)
(-31.116 0 10.4807)
(-29.6039 0 11.5184)
(-27.5178 0 12.5517)
(-24.8628 0 13.5437)
(-21.6825 0 14.4761)
(-18.0333 0 15.3421)
(-13.9779 0 16.1248)
(-9.56699 0 16.7789)
(-4.86485 0 17.2292)
)
;

boundaryField
{
    top
    {
        type            directionMixed;
        refValue        uniform (0 0 0);
        refGradient     uniform (0 0 0);
        valueFraction   uniform (0 0 0 0 0 1);
        value           nonuniform List<vector> 
51
(
(0.000369808 0 0)
(4.86526 0 0)
(9.56711 0 0)
(13.9781 0 0)
(18.0334 0 0)
(21.6825 0 0)
(24.8626 0 0)
(27.5174 0 0)
(29.6034 0 0)
(31.1152 0 0)
(32.0984 0 0)
(32.6239 0 0)
(32.762 0 0)
(32.5684 0 0)
(32.0776 0 0)
(31.3014 0 0)
(30.2317 0 0)
(28.8415 0 0)
(27.0931 0 0)
(24.9362 0 0)
(22.3207 0 0)
(19.2167 0 0)
(15.6179 0 0)
(11.5549 0 0)
(7.10517 0 0)
(2.39815 0 0)
(-2.39845 0 0)
(-7.10549 0 0)
(-11.5553 0 0)
(-15.6182 0 0)
(-19.2169 0 0)
(-22.3208 0 0)
(-24.9363 0 0)
(-27.0933 0 0)
(-28.8417 0 0)
(-30.2319 0 0)
(-31.3015 0 0)
(-32.0779 0 0)
(-32.5692 0 0)
(-32.7629 0 0)
(-32.6247 0 0)
(-32.0993 0 0)
(-31.116 0 0)
(-29.6039 0 0)
(-27.5178 0 0)
(-24.8628 0 0)
(-21.6825 0 0)
(-18.0333 0 0)
(-13.9779 0 0)
(-9.56699 0 0)
(-4.86485 0 0)
)
;
    }
    bottom
    {
        type            fixedValue;
        value           uniform (0 0 0);
    }
    frontAndBack
    {
        type            empty;
    }
    left_cyc
    {
        type            cyclic;
    }
    right_cyc
    {
        type            cyclic;
    }
}


// ************************************************************************* //
