/*--------------------------------*- C++ -*----------------------------------*\
| =========                 |                                                 |
| \\      /  F ield         | OpenFOAM: The Open Source CFD Toolbox           |
|  \\    /   O peration     | Version:  2.3.0                                 |
|   \\  /    A nd           | Web:      www.OpenFOAM.org                      |
|    \\/     M anipulation  |                                                 |
\*---------------------------------------------------------------------------*/
FoamFile
{
    version     2.0;
    format      ascii;
    class       volScalarField;
    location    "16000";
    object      NUEff;
}
// * * * * * * * * * * * * * * * * * * * * * * * * * * * * * * * * * * * * * //

dimensions      [0 2 -1 0 0 0 0];

internalField   nonuniform List<scalar> 
765
(
0.285616
0.274637
0.257944
0.239222
0.221043
0.204782
0.191182
0.181408
0.173667
0.167465
0.162723
0.159554
0.158225
0.159085
0.161866
0.166263
0.172127
0.179487
0.188745
0.201455
0.21715
0.234983
0.253782
0.271286
0.284027
0.288082
0.281367
0.266981
0.248843
0.230142
0.212807
0.197828
0.186173
0.177441
0.170475
0.164979
0.160979
0.158658
0.158361
0.160196
0.163787
0.168908
0.175491
0.18372
0.194397
0.208683
0.225493
0.243973
0.262479
0.278115
0.28704
0.964057
0.961993
0.957928
0.951126
0.939842
0.919797
0.878633
0.771705
0.502269
0.296424
0.224872
0.196801
0.187538
0.19342
0.216241
0.273345
0.437019
0.725578
0.861975
0.912996
0.936313
0.949069
0.956686
0.961291
0.963791
0.964482
0.963313
0.960307
0.95503
0.94635
0.931597
0.903731
0.839361
0.66011
0.376498
0.252868
0.208176
0.190454
0.188445
0.201714
0.236999
0.330298
0.582099
0.810024
0.892447
0.926126
0.943279
0.953171
0.959172
0.962689
0.964299
0.985525
0.984719
0.98319
0.980796
0.977201
0.971698
0.962724
0.946334
0.910831
0.805324
0.478687
0.284774
0.243664
0.268609
0.409629
0.754775
0.89692
0.940748
0.959893
0.970062
0.976167
0.980112
0.982741
0.984451
0.985422
0.985696
0.985234
0.984077
0.982149
0.979226
0.974824
0.96791
0.956059
0.932891
0.875697
0.674699
0.351248
0.255538
0.247248
0.311123
0.574921
0.846185
0.92306
0.951565
0.965464
0.973331
0.978251
0.981496
0.983649
0.984988
0.985621
0.991199
0.990628
0.989564
0.987947
0.985618
0.982232
0.977049
0.96832
0.951796
0.914469
0.801701
0.502025
0.362205
0.446991
0.750106
0.899694
0.946096
0.965552
0.975513
0.981269
0.984969
0.987497
0.989257
0.99044
0.991126
0.99132
0.990992
0.990178
0.988854
0.986916
0.984133
0.980008
0.973443
0.961745
0.937926
0.876887
0.672236
0.401696
0.373838
0.582247
0.845052
0.927514
0.957166
0.971032
0.978594
0.983216
0.986286
0.988413
0.989881
0.990818
0.991267
0.993492
0.992977
0.992023
0.990604
0.988624
0.985852
0.981774
0.975164
0.96339
0.939626
0.882222
0.730241
0.572978
0.682917
0.859453
0.93112
0.959546
0.973145
0.980606
0.985085
0.988084
0.990214
0.991748
0.992805
0.993424
0.993598
0.993303
0.992569
0.991392
0.989716
0.987392
0.98408
0.979006
0.970375
0.954155
0.918684
0.825213
0.630979
0.591424
0.781017
0.902543
0.947538
0.967117
0.977182
0.98297
0.986645
0.989183
0.991008
0.992304
0.993147
0.993553
0.99462
0.994091
0.993114
0.991676
0.989714
0.987056
0.983285
0.977398
0.967406
0.948665
0.909386
0.826995
0.744028
0.803282
0.895586
0.942366
0.964256
0.975641
0.982214
0.986331
0.989186
0.991282
0.99283
0.993912
0.994547
0.994724
0.994423
0.993668
0.992467
0.990785
0.988517
0.985393
0.980775
0.973261
0.95991
0.933463
0.8761
0.776314
0.754624
0.852642
0.922458
0.954706
0.970505
0.979162
0.984373
0.987804
0.990261
0.992081
0.9934
0.994266
0.994681
0.995287
0.994715
0.993649
0.992082
0.989966
0.987161
0.983314
0.977592
0.968365
0.952187
0.922045
0.870426
0.827468
0.857484
0.912456
0.947031
0.965546
0.975924
0.982237
0.986403
0.989397
0.99165
0.993335
0.994516
0.995207
0.995396
0.995071
0.99425
0.992938
0.991111
0.988686
0.985439
0.980829
0.973701
0.961722
0.939951
0.899611
0.843374
0.832555
0.885171
0.931554
0.957249
0.971169
0.979273
0.984407
0.98794
0.990551
0.992521
0.993961
0.994904
0.995352
0.995777
0.995151
0.993975
0.992236
0.989881
0.986784
0.982645
0.976844
0.968036
0.953732
0.930054
0.896065
0.872013
0.888489
0.923183
0.94942
0.965441
0.975201
0.981521
0.985952
0.989245
0.99175
0.993624
0.99493
0.995687
0.995893
0.995539
0.994636
0.993183
0.991149
0.988457
0.984906
0.980079
0.973049
0.961988
0.943671
0.914379
0.880504
0.874642
0.905051
0.937134
0.958058
0.970648
0.978512
0.9838
0.987639
0.99053
0.992723
0.994319
0.995358
0.995848
0.996213
0.995537
0.994268
0.99238
0.989809
0.986437
0.982046
0.976206
0.967908
0.955542
0.937371
0.914989
0.901034
0.910451
0.932525
0.952028
0.96556
0.974602
0.980881
0.985535
0.989108
0.991847
0.993886
0.995296
0.996113
0.996336
0.995953
0.994979
0.993406
0.991189
0.988244
0.984414
0.97941
0.97254
0.962508
0.947479
0.926541
0.90577
0.90245
0.920517
0.942521
0.959141
0.970297
0.977845
0.983246
0.987356
0.990515
0.992909
0.99464
0.99576
0.996289
0.996662
0.995968
0.994673
0.992745
0.99011
0.986657
0.982247
0.976643
0.969211
0.959134
0.946024
0.931966
0.92406
0.929331
0.942795
0.956441
0.9672
0.975148
0.981096
0.985734
0.989386
0.992197
0.994281
0.99572
0.996556
0.996788
0.996392
0.995396
0.99379
0.991521
0.988497
0.984594
0.979664
0.973267
0.964652
0.953064
0.938935
0.92665
0.924804
0.935228
0.949541
0.961943
0.97128
0.978175
0.983424
0.987591
0.990833
0.993285
0.995052
0.996196
0.996741
0.997158
0.996496
0.995276
0.993475
0.991028
0.987852
0.983877
0.979026
0.973024
0.965651
0.957163
0.949148
0.945014
0.947742
0.955223
0.963802
0.971474
0.977768
0.982851
0.987003
0.990355
0.992962
0.994906
0.99626
0.997055
0.997279
0.996898
0.995953
0.994447
0.992333
0.989533
0.985966
0.981596
0.976222
0.969566
0.961557
0.952973
0.946323
0.945374
0.950903
0.959318
0.967614
0.974638
0.980321
0.984922
0.988706
0.991697
0.993978
0.995631
0.996713
0.997235
0.997712
0.997139
0.996106
0.994612
0.992631
0.990123
0.987077
0.983509
0.979391
0.974798
0.970086
0.966107
0.964195
0.965446
0.969079
0.973716
0.978376
0.982611
0.9863
0.989459
0.992091
0.994191
0.995795
0.996936
0.997622
0.997819
0.997485
0.996676
0.995413
0.99368
0.991439
0.98866
0.985368
0.981533
0.977163
0.972442
0.967942
0.964784
0.964351
0.966936
0.971223
0.975969
0.980462
0.984443
0.987873
0.990792
0.993169
0.995026
0.996404
0.997326
0.99778
0.998321
0.997888
0.997132
0.99608
0.994742
0.993122
0.991234
0.989113
0.986825
0.984487
0.982312
0.980632
0.979867
0.980364
0.981872
0.983965
0.986286
0.988595
0.990759
0.992703
0.994386
0.99579
0.996909
0.997737
0.998252
0.998403
0.998147
0.997545
0.996638
0.995442
0.993964
0.992207
0.9902
0.987989
0.985659
0.983369
0.981386
0.980098
0.979927
0.980969
0.982816
0.985061
0.987403
0.989658
0.991726
0.993551
0.995101
0.996368
0.997348
0.998028
0.998373
0.998971
0.998711
0.998274
0.9977
0.997012
0.996226
0.995347
0.99439
0.993419
0.992495
0.991697
0.991119
0.990866
0.991029
0.991542
0.992298
0.993199
0.994164
0.995127
0.996028
0.996835
0.997547
0.998149
0.998622
0.998928
0.999021
0.998865
0.99851
0.998
0.997367
0.99663
0.995799
0.994874
0.993904
0.992949
0.992077
0.991374
0.990941
0.990885
0.991232
0.991877
0.992715
0.993658
0.994632
0.995578
0.996432
0.997193
0.997854
0.998397
0.998794
0.999003
0.999645
0.999562
0.999431
0.99927
0.999092
0.998901
0.998691
0.998459
0.998233
0.998028
0.997859
0.997742
0.997692
0.997725
0.997827
0.997985
0.998183
0.998405
0.998637
0.998854
0.999048
0.999229
0.999395
0.999535
0.999631
0.999662
0.999611
0.999501
0.999352
0.999182
0.998999
0.998802
0.998576
0.998345
0.998127
0.997939
0.997793
0.997707
0.997696
0.997765
0.997897
0.998076
0.998288
0.998518
0.998749
0.998951
0.999138
0.999312
0.999467
0.999588
0.999656
)
;

boundaryField
{
    top
    {
        type            calculated;
        value           uniform 1;
    }
    bottom
    {
        type            calculated;
        value           uniform 0.148957;
    }
    frontAndBack
    {
        type            empty;
    }
    left_cyc
    {
        type            cyclic;
    }
    right_cyc
    {
        type            cyclic;
    }
}


// ************************************************************************* //
