/*--------------------------------*- C++ -*----------------------------------*\
| =========                 |                                                 |
| \\      /  F ield         | OpenFOAM: The Open Source CFD Toolbox           |
|  \\    /   O peration     | Version:  2.3.0                                 |
|   \\  /    A nd           | Web:      www.OpenFOAM.org                      |
|    \\/     M anipulation  |                                                 |
\*---------------------------------------------------------------------------*/
FoamFile
{
    version     2.0;
    format      ascii;
    class       volScalarField;
    location    "16000";
    object      NUEff;
}
// * * * * * * * * * * * * * * * * * * * * * * * * * * * * * * * * * * * * * //

dimensions      [0 2 -1 0 0 0 0];

internalField   nonuniform List<scalar> 
765
(
0.0165286
0.0164886
0.0165216
0.0165919
0.0166454
0.0166102
0.0164315
0.0162427
0.015995
0.0156765
0.0155034
0.0157894
0.0160949
0.0163244
0.0165161
0.0166444
0.0166408
0.0165734
0.0165098
0.0164972
0.0165673
0.0166976
0.0168705
0.0170883
0.0173631
0.0177153
0.0181763
0.0187913
0.019622
0.0207507
0.0223005
0.0245755
0.0271291
0.0294146
0.0312625
0.0321418
0.0319046
0.0306606
0.028599
0.0262172
0.0236083
0.0216593
0.0202853
0.0192796
0.0185384
0.0179876
0.017572
0.0172518
0.0170001
0.0167998
0.016642
0.0233204
0.023064
0.0229652
0.0229558
0.0229167
0.0226818
0.022146
0.0211637
0.0197266
0.0181111
0.0173445
0.0186321
0.0202462
0.0215366
0.0223419
0.0228213
0.0229737
0.0229858
0.0230144
0.0231612
0.023479
0.0240539
0.0248524
0.0258751
0.0271666
0.0288185
0.0310045
0.0340781
0.0388254
0.047236
0.0640006
0.0960382
0.1603
0.317405
0.588038
0.716869
0.687445
0.48891
0.239901
0.129992
0.0818749
0.0561011
0.0434036
0.0367589
0.0327827
0.0301023
0.0281444
0.0266415
0.0254572
0.0245194
0.0237983
0.0331481
0.032249
0.0315873
0.0310639
0.0305378
0.0297986
0.0285486
0.0262485
0.023139
0.0200472
0.0187253
0.0210036
0.0242506
0.0271786
0.0291519
0.0301505
0.0307877
0.0312987
0.0318624
0.0326044
0.033613
0.0349485
0.0368287
0.0393666
0.0427221
0.0472372
0.0534801
0.0626165
0.0773548
0.104597
0.172824
0.434066
0.805163
0.90604
0.938641
0.949845
0.947214
0.929763
0.881267
0.707755
0.287534
0.137086
0.0916571
0.0706909
0.0586391
0.0508266
0.0453369
0.0413189
0.0383004
0.0360143
0.0343517
0.040655
0.0390806
0.0377466
0.0366089
0.0356058
0.0345545
0.0328334
0.0297299
0.0254816
0.0213758
0.0197083
0.0226182
0.0270014
0.0309945
0.033635
0.0349937
0.0359922
0.0370361
0.0382441
0.0396652
0.0413444
0.0433346
0.0457038
0.0485614
0.0520182
0.0562005
0.0615605
0.0691663
0.0816042
0.106392
0.174969
0.485774
0.849907
0.930663
0.956439
0.965181
0.963186
0.949505
0.911134
0.768608
0.305837
0.138153
0.0943111
0.0758885
0.0658247
0.0592897
0.0544791
0.0506028
0.0473875
0.0447373
0.0425199
0.0407434
0.0393207
0.0380182
0.0369094
0.0360402
0.0352582
0.033869
0.0310215
0.0265908
0.0221373
0.0203636
0.0234728
0.0282106
0.0322231
0.0344959
0.0355756
0.0363353
0.0372851
0.0384704
0.039825
0.0412789
0.0427847
0.0443201
0.045893
0.0475588
0.0494767
0.0520219
0.0559775
0.0630476
0.0776517
0.115933
0.290481
0.815928
0.931988
0.961126
0.970165
0.968183
0.953711
0.907809
0.667523
0.184748
0.0961337
0.0706638
0.0598057
0.0542281
0.0509457
0.0487077
0.0469191
0.0453038
0.0437528
0.0422311
0.0370861
0.0361116
0.035215
0.0345161
0.0340884
0.0337451
0.0330124
0.0307967
0.0267334
0.0224559
0.0207712
0.0237284
0.0282513
0.0317936
0.0333918
0.033881
0.0342077
0.0347269
0.035504
0.0364386
0.0374134
0.0383392
0.0391699
0.0399104
0.0406324
0.0415052
0.042854
0.0452767
0.0499526
0.0596796
0.0836318
0.176945
0.746542
0.929992
0.963781
0.973337
0.97131
0.955674
0.898715
0.480211
0.123145
0.0717795
0.0551707
0.0478537
0.0442171
0.0422904
0.0411715
0.0403846
0.0396715
0.038904
0.0380375
0.0333821
0.0327662
0.0322583
0.031956
0.0318907
0.0318732
0.0314196
0.0295954
0.0262115
0.0225712
0.0210788
0.0236537
0.0274631
0.0304098
0.0316941
0.0318644
0.0318874
0.0320268
0.0324051
0.0329583
0.0335846
0.0341929
0.034726
0.0351749
0.035596
0.0361374
0.037082
0.0389273
0.0425972
0.0501596
0.0680186
0.130812
0.660989
0.929012
0.966312
0.976147
0.974103
0.957773
0.89112
0.334242
0.0958679
0.0594083
0.046733
0.0409845
0.0381362
0.0366975
0.0359439
0.0354708
0.035051
0.0345736
0.0340081
0.0305977
0.0302475
0.0300169
0.0299241
0.0298954
0.0298661
0.0293974
0.0279768
0.0254592
0.0226299
0.021353
0.0234774
0.0263784
0.0285788
0.0296381
0.0299001
0.029906
0.0299372
0.0300719
0.0303444
0.030721
0.0311448
0.0315656
0.0319613
0.0323613
0.0328805
0.0337663
0.0354624
0.0387675
0.0454125
0.0606665
0.111529
0.59904
0.930482
0.969047
0.978872
0.976841
0.960454
0.889067
0.269335
0.0835633
0.0533613
0.0424401
0.037345
0.0347554
0.0334191
0.0327023
0.0322441
0.0318513
0.0314442
0.031015
0.0287351
0.0284962
0.0283243
0.028207
0.0281276
0.0279682
0.0274981
0.0264459
0.0246955
0.0226468
0.0216009
0.0232576
0.0253183
0.0268609
0.0276979
0.0280361
0.0281475
0.0282344
0.0283662
0.0285569
0.0288164
0.0291381
0.0295101
0.0299312
0.030432
0.0311095
0.0321768
0.0340303
0.0373964
0.0438684
0.0584018
0.107141
0.61195
0.935695
0.972171
0.981601
0.979631
0.964038
0.896781
0.265154
0.0802864
0.0515023
0.0410292
0.0359891
0.0332852
0.0317715
0.0308736
0.0302726
0.0298036
0.029398
0.0290396
0.027589
0.0272969
0.0270582
0.0268589
0.0266641
0.0264056
0.0259684
0.0252082
0.0240401
0.0226432
0.0218322
0.023045
0.0244336
0.0254794
0.0261225
0.0264871
0.0267144
0.0269051
0.0271135
0.0273684
0.0276787
0.0280497
0.0284917
0.0290297
0.029715
0.0306594
0.0320816
0.0343815
0.0383032
0.0455519
0.0618429
0.121205
0.722722
0.945201
0.975901
0.984407
0.98259
0.968817
0.915275
0.359074
0.0880535
0.0541721
0.0424426
0.0367138
0.0334866
0.0315539
0.0303293
0.02949
0.0288617
0.0283581
0.0279402
0.0275177
0.0270249
0.0265894
0.0261972
0.0258278
0.0254466
0.024997
0.0244038
0.023612
0.0226914
0.0220991
0.0229327
0.0238503
0.0245841
0.025126
0.0255473
0.0259201
0.0262941
0.0266985
0.0271509
0.0276649
0.0282544
0.0289374
0.0297767
0.0308441
0.0322908
0.0343957
0.0376639
0.0430588
0.0529693
0.0767882
0.189619
0.84943
0.957241
0.980127
0.987265
0.985692
0.974514
0.938288
0.667254
0.122283
0.0653379
0.0487534
0.0409184
0.0364218
0.0336305
0.0317903
0.0304935
0.029514
0.0287322
0.0280813
0.0298317
0.0288452
0.0279741
0.0271921
0.0264792
0.0258166
0.0251801
0.0245376
0.0238627
0.0231851
0.0227517
0.0233357
0.0240332
0.0247021
0.0253419
0.0259849
0.0266621
0.0273954
0.0282035
0.029108
0.0301378
0.0313288
0.0327187
0.0343358
0.0363667
0.0390671
0.0429182
0.0488798
0.0590515
0.0796387
0.144503
0.631747
0.925165
0.969646
0.98468
0.990148
0.988896
0.980694
0.959338
0.883621
0.343929
0.110279
0.0706174
0.0550006
0.0466322
0.0415365
0.0381408
0.0356965
0.0338165
0.0322879
0.0309672
0.0403281
0.0377086
0.0355101
0.0336178
0.0319578
0.030486
0.0291777
0.0280199
0.0270129
0.0261971
0.025772
0.0263577
0.027246
0.0283049
0.0295112
0.0308699
0.0323975
0.0341238
0.0361012
0.0384155
0.0411967
0.0446201
0.0488832
0.0541736
0.0607489
0.0700377
0.0842333
0.109203
0.165828
0.369256
0.795173
0.924174
0.963708
0.980843
0.989353
0.993024
0.992145
0.986897
0.975992
0.953468
0.896503
0.681111
0.264999
0.14079
0.0993494
0.0790314
0.0668149
0.0585639
0.0524614
0.0475079
0.0435301
0.152515
0.119204
0.098092
0.0835368
0.0728968
0.0648131
0.0585364
0.0536409
0.0499085
0.0473241
0.0462803
0.0478218
0.0507591
0.0548298
0.0601092
0.0668698
0.0756163
0.0872403
0.103389
0.127352
0.166393
0.238047
0.379902
0.59487
0.757352
0.838973
0.884917
0.914741
0.936069
0.95258
0.965862
0.976368
0.984305
0.990022
0.993864
0.995839
0.995343
0.992665
0.98818
0.981736
0.972964
0.961622
0.947464
0.92974
0.906315
0.872464
0.818548
0.71714
0.528233
0.326846
0.211346
0.982522
0.980833
0.97901
0.977029
0.974872
0.972542
0.97008
0.967592
0.965284
0.963496
0.962798
0.963864
0.965855
0.968261
0.970775
0.973219
0.975511
0.977623
0.979561
0.981347
0.983004
0.984544
0.985953
0.987224
0.988376
0.989416
0.990334
0.991154
0.991954
0.992797
0.993729
0.994761
0.995863
0.996959
0.997921
0.998516
0.998358
0.997597
0.996571
0.995467
0.99439
0.9934
0.992508
0.991692
0.990898
0.990062
0.989101
0.98803
0.986847
0.985539
0.984092
)
;

boundaryField
{
    top
    {
        type            calculated;
        value           uniform 1;
    }
    bottom
    {
        type            calculated;
        value           uniform 0.0143123;
    }
    frontAndBack
    {
        type            empty;
    }
    left_cyc
    {
        type            cyclic;
    }
    right_cyc
    {
        type            cyclic;
    }
}


// ************************************************************************* //
