/*--------------------------------*- C++ -*----------------------------------*\
| =========                 |                                                 |
| \\      /  F ield         | OpenFOAM: The Open Source CFD Toolbox           |
|  \\    /   O peration     | Version:  2.3.0                                 |
|   \\  /    A nd           | Web:      www.OpenFOAM.org                      |
|    \\/     M anipulation  |                                                 |
\*---------------------------------------------------------------------------*/
FoamFile
{
    version     2.0;
    format      ascii;
    class       volScalarField;
    location    "16000";
    object      p;
}
// * * * * * * * * * * * * * * * * * * * * * * * * * * * * * * * * * * * * * //

dimensions      [0 2 -2 0 0 0 0];

internalField   nonuniform List<scalar> 
3060
(
0
-3.214
-9.22154
-17.9617
-29.3662
-43.3751
-59.9439
-79.0318
-100.571
-124.428
-150.381
-178.092
-207.092
-236.748
-266.204
-294.416
-320.321
-343.02
-361.786
-376.252
-386.667
-393.58
-397.798
-400.154
-401.294
-401.597
-401.174
-399.881
-397.302
-392.761
-385.413
-374.47
-359.421
-340.077
-316.878
-290.578
-262.106
-232.549
-202.943
-174.112
-146.671
-121.072
-97.6348
-76.5706
-58.0001
-41.9855
-28.5671
-17.792
-9.72159
-4.4222
-1.94912
-2.33271
-5.56775
-11.6162
-20.4183
-31.9077
-46.0263
-62.7306
-81.9778
-103.694
-127.735
-153.865
-181.73
-210.835
-240.52
-269.891
-297.883
-323.434
-345.666
-363.877
-377.788
-387.702
-394.214
-398.15
-400.328
-401.359
-401.583
-401.077
-399.659
-396.877
-392.021
-384.243
-372.782
-357.167
-337.286
-313.648
-287.027
-258.371
-228.762
-199.209
-170.499
-143.22
-117.802
-94.5494
-73.6591
-55.243
-39.3581
-26.0439
-15.3487
-7.33601
-2.07372
0.381865
34.3569
31.8101
27.013
19.9496
10.5921
-1.09095
-15.117
-31.4606
-50.0279
-70.6422
-93.0362
-116.829
-141.487
-166.311
-190.635
-214.178
-236.782
-257.573
-275.109
-288.513
-298.153
-304.687
-308.864
-311.349
-312.629
-312.985
-312.499
-311.064
-308.373
-303.912
-297.001
-286.886
-272.929
-254.876
-233.757
-210.993
-187.342
-162.931
-138.109
-113.573
-90.0097
-67.93
-47.699
-29.5713
-13.7104
-0.197253
10.953
19.7631
26.2664
30.4901
32.4481
32.1451
29.5802
24.7473
17.6285
8.19408
-3.5886
-17.7352
-34.2152
-52.9267
-73.6827
-96.2016
-120.084
-144.77
-169.543
-193.76
-217.195
-239.631
-260.075
-277.08
-289.946
-299.132
-305.315
-309.24
-311.553
-312.711
-312.968
-312.38
-310.813
-307.93
-303.191
-295.9
-285.308
-270.795
-252.25
-230.838
-207.935
-184.177
-159.669
-134.815
-110.327
-86.8649
-64.9166
-44.8297
-26.846
-11.1188
2.27798
13.3335
22.0714
28.5237
32.7152
34.6584
63.2355
60.6493
55.8087
48.7586
39.5751
28.3806
15.3534
0.721435
-15.2638
-32.3628
-50.3707
-69.1238
-88.5089
-108.478
-128.966
-149.388
-168.304
-184.551
-198.268
-209.803
-218.456
-223.853
-226.945
-228.645
-229.477
-229.699
-229.389
-228.448
-226.589
-223.244
-217.462
-208.37
-196.532
-182.522
-165.919
-146.738
-126.279
-105.898
-86.0645
-66.8274
-48.2416
-30.4317
-13.5721
2.12195
16.403
29.0187
39.7474
48.4205
54.9251
59.1924
61.1818
60.8733
58.2702
53.398
46.3035
37.0659
25.8122
12.7262
-1.95898
-17.9889
-35.1228
-53.1559
-71.9258
-91.3253
-111.313
-131.798
-152.077
-170.65
-186.506
-199.918
-211.123
-219.309
-224.333
-227.199
-228.771
-229.524
-229.688
-229.316
-228.286
-226.278
-222.67
-216.473
-206.939
-194.797
-180.461
-163.458
-143.98
-123.429
-103.06
-83.2432
-64.0205
-45.4537
-27.6719
-10.8501
4.79633
19.0216
31.5772
42.2465
50.8666
57.3289
61.5672
63.5425
110.926
108.427
103.765
97.008
88.2631
77.6818
65.4653
51.8568
37.1188
21.5005
5.20893
-11.6068
-28.8541
-46.46
-64.2002
-81.358
-96.9088
-110.631
-122.76
-132.297
-139.108
-143.826
-146.081
-146.918
-147.194
-147.247
-147.16
-146.826
-145.859
-143.325
-138.31
-131.217
-121.311
-108.97
-95.0638
-79.2927
-62.0339
-44.3325
-26.8214
-9.6898
6.99172
23.1208
38.5362
53.0193
66.3135
78.1551
88.3053
96.5708
102.808
106.919
108.84
108.542
106.029
101.34
94.5478
85.7608
75.1358
62.8797
49.2404
34.4832
18.8573
2.56704
-14.2424
-31.4819
-49.0726
-66.7485
-83.709
-98.9659
-112.441
-124.261
-133.355
-139.863
-144.234
-146.218
-146.951
-147.197
-147.242
-147.145
-146.768
-145.662
-142.803
-137.477
-130.038
-119.699
-107.094
-92.9214
-76.8663
-59.4491
-41.7043
-24.1826
-7.04385
9.64284
25.771
41.1755
55.6357
68.8958
80.6954
90.801
99.0245
105.227
109.313
111.223
158.159
155.922
151.751
145.713
137.908
128.469
117.561
105.377
92.1272
78.0217
63.2646
48.0533
32.5925
17.1241
1.98576
-12.3307
-25.4172
-37.4438
-48.4283
-56.9218
-62.3219
-65.1961
-66.1963
-66.2064
-65.9597
-65.8515
-65.9767
-66.2162
-66.12
-64.9492
-61.793
-56.0571
-47.1883
-36.0361
-23.9121
-10.6768
3.75817
18.9335
34.3753
49.7618
64.8579
79.4593
93.3659
106.37
118.258
128.82
137.868
145.24
150.81
154.484
156.202
155.936
153.688
149.499
143.435
135.6
126.129
115.191
102.983
89.7158
75.6028
60.8492
45.6545
30.2278
14.8204
-0.211436
-14.3563
-27.2578
-39.147
-49.8689
-57.8865
-62.876
-65.4097
-66.2203
-66.1537
-65.9217
-65.854
-66.0151
-66.2536
-66.048
-64.6497
-61.1329
-54.9563
-45.6408
-34.2907
-22.0204
-8.59405
5.99631
21.2644
36.759
52.1743
67.2831
81.8847
95.7808
108.765
120.626
131.157
140.173
147.515
153.059
156.716
158.425
199.636
197.602
193.815
188.346
181.295
172.796
163.01
152.117
140.315
127.802
114.775
101.429
87.9644
74.6104
61.6525
49.468
38.4719
28.9321
21.0523
14.9648
11.1118
10.332
11.6329
13.5368
14.6648
14.9628
14.5793
13.3257
11.3972
10.2477
11.3677
15.5604
21.8656
29.9683
39.6965
50.8515
63.1394
76.1365
89.4785
102.888
116.141
129.034
141.373
152.956
163.584
173.06
181.206
187.864
192.907
196.241
197.802
197.56
195.519
191.719
186.232
179.161
170.642
160.839
149.935
138.129
125.622
112.613
99.2976
85.8823
72.602
59.7537
47.7296
36.9368
27.6221
20.0007
14.1743
10.7649
10.4051
11.9015
13.7663
14.7557
14.9534
14.4627
13.0675
11.1704
10.2721
11.8516
16.435
22.994
31.3464
41.2943
52.6439
65.0785
78.1747
91.5831
105.036
118.316
131.224
143.566
155.143
165.756
175.214
183.338
189.976
195.002
198.324
199.878
238.214
236.379
232.967
228.049
221.726
214.127
205.405
195.731
185.289
174.267
162.855
151.245
139.637
128.248
117.33
107.176
98.0948
90.3493
84.2483
80.2207
78.8279
80.7594
85.3598
90.2523
93.4955
94.3757
93.2217
89.6805
84.6729
80.2638
78.7462
80.5175
84.8303
91.1611
99.0838
108.306
118.558
129.525
140.919
152.493
164.031
175.332
186.204
196.454
205.893
214.339
221.621
227.59
232.123
235.125
236.532
236.314
234.475
231.055
226.126
219.791
212.181
203.452
193.777
183.341
172.335
160.951
149.383
137.835
126.529
115.723
105.717
96.8194
89.289
83.458
79.7587
78.8134
81.2376
86.0646
90.8431
93.754
94.3433
92.8732
89.0412
83.9964
79.9137
78.8979
81.0812
85.7049
92.289
100.417
109.815
120.206
131.276
142.746
154.375
165.951
177.277
188.161
198.415
207.85
216.287
223.557
229.514
234.036
237.03
238.432
274.312
272.661
269.594
265.183
259.529
252.758
245.021
236.48
227.312
217.695
207.812
197.846
187.986
178.434
169.407
161.154
153.932
147.993
143.623
141.206
141.286
144.892
152.397
160.937
167.025
168.994
166.456
159.909
151.252
144.124
141.028
141.31
143.998
148.586
154.697
162.055
170.406
179.49
189.064
198.908
208.823
218.619
228.111
237.116
245.452
252.946
259.434
264.771
268.836
271.533
272.798
272.602
270.948
267.877
263.46
257.801
251.028
243.292
234.759
225.606
216.014
206.168
196.253
186.461
176.996
168.083
159.972
152.925
147.191
143.074
140.969
141.474
145.684
153.594
161.986
167.57
168.912
165.763
158.778
150.12
143.509
140.976
141.644
144.626
149.452
155.761
163.284
171.771
180.961
190.616
200.523
210.485
220.314
229.828
238.845
247.187
254.68
261.164
266.495
270.554
273.246
274.509
308.774
307.291
304.542
300.597
295.558
289.55
282.719
275.225
267.235
258.922
250.459
242.019
233.778
225.916
218.625
212.113
206.597
202.303
199.491
198.492
199.747
203.997
212.145
222.614
230.898
233.713
230.094
221.279
210.853
203.187
199.373
198.437
199.688
202.706
207.165
212.813
219.425
226.782
234.678
242.922
251.332
259.731
267.945
275.798
283.118
289.736
295.495
300.252
303.886
306.303
307.438
307.262
305.778
303.028
299.082
294.044
288.04
281.217
273.737
265.77
257.49
249.071
240.688
232.52
224.749
217.57
211.195
205.843
201.743
199.165
198.453
200.075
204.842
213.531
223.995
231.665
233.592
229.128
219.831
209.589
202.503
199.16
198.565
200.087
203.327
207.972
213.777
220.519
227.983
235.965
244.276
252.739
261.179
269.422
277.295
284.628
291.252
297.013
301.77
305.402
307.816
308.951
342.201
340.875
338.419
334.907
330.436
325.133
319.14
312.612
305.711
298.602
291.449
284.414
277.658
271.341
265.628
260.693
256.713
253.875
252.388
252.512
254.574
259.022
266.407
276.073
284.398
287.368
283.559
274.79
265.256
258.25
254.137
252.344
252.444
254.117
257.111
261.219
266.255
272.043
278.407
285.182
292.207
299.318
306.352
313.143
319.525
325.335
330.421
334.641
337.877
340.034
341.049
340.892
339.566
337.112
333.602
329.137
323.842
317.863
311.355
304.483
297.412
290.308
283.335
276.654
270.429
264.826
260.02
256.192
253.531
252.252
252.626
254.992
259.826
267.645
277.414
285.198
287.238
282.563
273.42
264.129
257.564
253.812
252.307
252.644
254.517
257.681
261.935
267.095
272.987
279.438
286.285
293.367
300.524
307.594
314.411
320.811
326.633
331.726
335.95
339.187
341.344
342.359
375.028
373.849
371.671
368.565
364.629
359.985
354.774
349.146
343.256
337.261
331.316
325.571
320.171
315.257
310.969
307.447
304.829
303.255
302.876
303.865
306.423
310.77
317.077
324.823
331.604
334.099
330.906
323.796
316.135
310.072
305.966
303.623
302.822
303.366
305.083
307.824
311.449
315.818
320.79
326.224
331.977
337.9
343.843
349.647
355.156
360.213
364.668
368.385
371.247
373.16
374.062
373.922
372.745
370.57
367.469
363.541
358.911
353.718
348.114
342.257
336.305
330.412
324.731
319.408
314.584
310.401
306.999
304.518
303.1
302.899
304.093
306.887
311.504
318.082
325.897
332.271
333.989
330.085
322.705
315.2
309.419
305.574
303.458
302.854
303.569
305.438
308.312
312.053
316.523
321.582
327.088
332.901
338.874
344.856
350.691
356.223
361.295
365.762
369.486
372.352
374.267
375.169
407.536
406.5
404.589
401.874
398.451
394.438
389.971
385.193
380.254
375.301
370.477
365.921
361.763
358.122
355.117
352.854
351.432
350.946
351.488
353.148
356.011
360.127
365.429
371.394
376.426
378.272
375.908
370.622
364.674
359.51
355.558
352.857
351.35
350.951
351.566
353.104
355.469
358.561
362.268
366.474
371.053
375.873
380.795
385.672
390.355
394.695
398.548
401.782
404.284
405.961
406.753
406.63
405.597
403.691
400.983
397.571
393.574
389.128
384.378
379.475
374.566
369.797
365.306
361.222
357.669
354.762
352.609
351.309
350.957
351.644
353.463
356.496
360.784
366.231
372.195
376.918
378.19
375.303
369.799
363.908
358.902
355.124
352.591
351.239
350.982
351.728
353.384
355.857
359.044
362.835
367.113
371.754
376.626
381.59
386.5
391.209
395.567
399.434
402.678
405.185
406.866
407.659
439.874
438.981
437.337
435.01
432.093
428.699
424.956
421.001
416.972
413.008
409.239
405.79
402.776
400.298
398.451
397.31
396.941
397.393
398.706
400.899
403.965
407.839
412.331
416.947
420.618
421.932
420.247
416.37
411.723
407.296
403.524
400.574
398.502
397.309
396.972
397.45
398.69
400.627
403.179
406.25
409.736
413.518
417.47
421.457
425.341
428.982
432.244
435.002
437.146
438.589
439.272
439.166
438.275
436.637
434.319
431.415
428.038
424.319
420.393
416.402
412.483
408.769
405.384
402.442
400.046
398.289
397.247
396.983
397.546
398.973
401.282
404.461
408.432
412.978
417.543
420.97
421.875
419.811
415.747
411.086
406.73
403.061
400.226
398.269
397.19
396.962
397.544
398.882
400.907
403.538
406.68
410.226
414.06
418.055
422.077
425.989
429.651
432.929
435.698
437.849
439.297
439.981
472.095
471.348
469.977
468.047
465.643
462.873
459.855
456.714
453.578
450.572
447.813
445.412
443.467
442.062
441.269
441.137
441.699
442.968
444.937
447.572
450.798
454.479
458.373
462.05
464.79
465.739
464.52
461.61
457.874
453.993
450.368
447.221
444.678
442.808
441.64
441.178
441.406
442.289
443.772
445.782
448.23
451.016
454.026
457.14
460.232
463.173
465.839
468.113
469.893
471.096
471.666
471.578
470.834
469.47
467.549
465.159
462.408
459.414
456.304
453.205
450.244
447.538
445.198
443.322
441.993
441.282
441.236
441.886
443.244
445.299
448.011
451.302
455.023
458.914
462.508
465.047
465.698
464.199
461.122
457.328
453.459
449.881
446.804
444.343
442.559
441.48
441.106
441.419
442.383
443.94
446.017
448.524
451.36
454.414
457.563
460.684
463.647
466.33
468.616
470.404
471.612
472.185
504.17
503.577
502.493
500.978
499.11
496.985
494.709
492.395
490.155
488.098
486.328
484.938
484.01
483.612
483.793
484.579
485.978
487.97
490.512
493.529
496.902
500.458
503.944
507.001
509.141
509.857
508.937
506.651
503.519
500.014
496.478
493.153
490.204
487.741
485.835
484.528
483.832
483.739
484.218
485.215
486.66
488.468
490.543
492.779
495.065
497.288
499.337
501.106
502.504
503.455
503.908
503.837
503.248
502.171
500.666
498.812
496.706
494.455
492.172
489.968
487.955
486.235
484.903
484.039
483.709
483.962
484.822
486.292
488.352
490.953
494.016
497.416
500.971
504.414
507.37
509.337
509.826
508.688
506.249
503.034
499.499
495.971
492.679
489.78
487.379
485.543
484.308
483.686
483.664
484.21
485.269
486.77
488.627
490.744
493.015
495.329
497.575
499.641
501.423
502.83
503.786
504.241
536.013
535.585
534.808
533.736
532.436
530.992
529.494
528.037
526.715
525.621
524.84
524.447
524.509
525.074
526.172
527.81
529.973
532.618
535.673
539.035
542.56
546.058
549.287
551.954
553.726
554.301
553.563
551.661
548.91
545.64
542.136
538.635
535.317
532.323
529.75
527.668
526.113
525.098
524.613
524.623
525.075
525.903
527.027
528.361
529.81
531.281
532.677
533.91
534.9
535.581
535.908
535.857
535.432
534.663
533.602
532.317
530.891
529.418
527.99
526.704
525.651
524.916
524.576
524.695
525.32
526.48
528.178
530.397
533.091
536.183
539.565
543.087
546.553
549.714
552.27
553.886
554.276
553.358
551.313
548.463
545.135
541.608
538.11
534.818
531.864
529.342
527.317
525.823
524.87
524.445
524.511
525.015
525.888
527.052
528.419
529.896
531.389
532.803
534.049
535.048
535.735
536.064
567.489
567.24
566.797
566.203
565.515
564.799
564.126
563.571
563.208
563.107
563.334
563.945
564.988
566.494
568.475
570.922
573.8
577.05
580.58
584.268
587.959
591.46
594.549
596.989
598.547
599.041
598.407
596.729
594.2
591.053
587.526
583.838
580.174
576.688
573.497
570.686
568.313
566.408
564.977
564.005
563.456
563.282
563.423
563.814
564.381
565.051
565.749
566.405
566.954
567.342
567.532
567.502
567.257
566.822
566.239
565.565
564.867
564.218
563.691
563.361
563.298
563.567
564.225
565.317
566.875
568.907
571.402
574.321
577.601
581.148
584.834
588.499
591.946
594.95
597.273
598.686
599.02
598.227
596.412
593.774
590.551
586.978
583.27
579.61
576.145
572.988
570.22
567.896
566.043
564.663
563.74
563.237
563.104
563.282
563.704
564.298
564.99
565.705
566.374
566.933
567.327
567.519
598.425
598.372
598.293
598.219
598.192
598.258
598.468
598.871
599.517
600.453
601.723
603.361
605.397
607.844
610.697
613.932
617.5
621.328
625.313
629.324
633.201
636.759
639.798
642.123
643.569
644.02
643.441
641.88
639.459
636.351
632.751
628.857
624.853
620.894
617.109
613.595
610.422
607.636
605.258
603.289
601.713
600.5
599.613
599.008
598.637
598.45
598.396
598.427
598.497
598.566
598.606
598.6
598.55
598.478
598.415
598.402
598.487
598.718
599.147
599.824
600.794
602.101
603.78
605.857
608.346
611.239
614.509
618.104
621.946
625.931
629.922
633.755
637.242
640.185
642.39
643.697
644
643.274
641.579
639.044
635.846
632.183
628.253
624.234
620.279
616.512
613.027
609.891
607.146
604.81
602.883
601.346
600.17
599.316
598.74
598.394
598.228
598.191
598.235
598.315
598.39
598.432
628.613
628.774
629.088
629.577
630.263
631.171
632.324
633.748
635.463
637.492
639.852
642.558
645.615
649.022
652.756
656.779
661.033
665.435
669.875
674.218
678.307
681.968
685.024
687.314
688.713
689.146
688.59
687.075
684.683
681.547
677.828
673.706
669.352
664.921
660.546
656.33
652.355
648.676
645.329
642.332
639.687
637.386
635.414
633.753
632.381
631.276
630.415
629.771
629.322
629.044
628.921
628.94
629.104
629.426
629.925
630.625
631.55
632.724
634.171
635.914
637.973
640.365
643.104
646.195
649.634
653.397
657.443
661.71
666.112
670.536
674.843
678.874
682.453
685.405
687.572
688.835
689.127
688.43
686.782
684.272
681.036
677.243
673.069
668.684
664.243
659.871
655.672
651.721
648.073
644.759
641.796
639.184
636.914
634.971
633.336
631.988
630.903
630.057
629.427
628.987
628.716
628.595
657.813
658.203
658.942
660.035
661.485
663.291
665.45
667.958
670.808
673.991
677.5
681.324
685.447
689.848
694.49
699.323
704.278
709.267
714.176
718.872
723.204
727.011
730.137
732.448
733.846
734.275
733.721
732.204
729.784
726.566
722.687
718.305
713.581
708.662
703.681
698.747
693.947
689.346
684.993
680.922
677.155
673.706
670.586
667.805
665.369
663.286
661.56
660.194
659.187
658.536
658.236
658.282
658.676
659.423
660.526
661.989
663.812
665.991
668.52
671.393
674.602
678.138
681.988
686.137
690.56
695.22
700.064
705.02
709.995
714.875
719.523
723.785
727.501
730.517
732.703
733.965
734.255
733.563
731.913
729.372
726.048
722.084
717.639
712.871
707.928
702.938
698.008
693.22
688.639
684.31
680.265
676.524
673.102
670.007
667.249
664.834
662.769
661.059
659.706
658.708
658.064
657.767
685.758
686.393
687.582
689.315
691.573
694.329
697.551
701.204
705.25
709.65
714.369
719.369
724.612
730.055
735.646
741.325
747.014
752.619
758.026
763.106
767.717
771.711
774.952
777.326
778.752
779.187
778.621
777.068
774.577
771.231
767.15
762.473
757.346
751.91
746.293
740.607
734.943
729.377
723.968
718.768
713.82
709.162
704.831
700.867
697.307
694.19
691.549
689.418
687.82
686.773
686.285
686.361
686.999
688.196
689.94
692.211
694.983
698.223
701.895
705.962
710.384
715.124
720.144
725.404
730.86
736.458
742.136
747.813
753.393
758.759
763.78
768.311
772.207
775.333
777.579
778.87
779.167
778.464
776.777
774.161
770.705
766.531
761.78
756.598
751.125
745.487
739.793
734.131
728.574
723.18
717.998
713.07
708.433
704.124
700.18
696.64
693.539
690.915
688.796
687.208
686.167
685.683
712.162
713.052
714.71
717.11
720.21
723.955
728.285
733.132
738.427
744.101
750.087
756.32
762.737
769.276
775.867
782.438
788.905
795.167
801.114
806.619
811.549
815.773
819.17
821.641
823.119
823.568
822.979
821.365
818.764
815.249
810.923
805.907
800.335
794.339
788.044
781.56
774.984
768.4
761.882
755.497
749.31
743.385
737.789
732.589
727.857
723.661
720.068
717.14
714.925
713.464
712.782
712.888
713.781
715.448
717.858
720.971
724.732
729.079
733.944
739.257
744.949
750.951
757.198
763.625
770.167
776.755
783.315
789.758
795.984
801.879
807.314
812.157
816.277
819.555
821.896
823.238
823.548
822.821
821.071
818.343
814.713
810.286
805.188
799.552
793.508
787.18
780.676
774.092
767.508
760.995
754.621
748.448
742.539
736.961
731.78
727.065
722.887
719.309
716.394
714.19
712.736
712.057
736.722
737.872
740.009
743.089
747.048
751.803
757.265
763.336
769.914
776.899
784.195
791.709
799.35
807.034
814.676
822.191
829.485
836.456
842.99
848.969
854.267
858.766
862.359
864.961
866.512
866.981
866.36
864.66
861.915
858.188
853.569
848.166
842.1
835.494
828.469
821.135
813.596
805.943
798.265
790.645
783.173
775.939
769.038
762.57
756.637
751.339
746.773
743.031
740.188
738.305
737.423
737.56
738.714
740.859
743.95
747.922
752.693
758.172
764.26
770.854
777.854
785.162
792.683
800.327
808.006
815.637
823.13
830.391
837.315
843.787
849.687
854.891
859.28
862.75
865.219
866.632
866.96
866.199
864.361
861.486
857.64
852.915
847.421
841.281
834.618
827.549
820.186
812.627
804.965
797.284
789.669
782.205
774.984
768.098
761.647
755.731
750.45
745.9
742.171
739.339
737.464
736.585
759.127
760.535
763.148
766.904
771.715
777.477
784.068
791.362
799.228
807.536
816.159
824.975
833.871
842.736
851.471
859.976
868.147
875.876
883.052
889.556
895.275
900.097
903.929
906.694
908.338
908.833
908.171
906.362
903.438
899.456
894.494
888.651
882.037
874.768
866.961
858.728
850.179
841.416
832.541
823.658
814.878
806.319
798.105
790.364
783.229
776.832
771.299
766.747
763.28
760.978
759.898
760.066
761.478
764.099
767.866
772.692
778.47
785.078
792.389
800.27
808.589
817.22
826.04
834.932
843.786
852.501
860.975
869.104
876.777
883.881
890.3
895.916
900.624
904.329
906.957
908.46
908.811
908.006
906.057
902.999
898.893
893.819
887.878
881.182
873.846
865.986
857.714
849.138
840.357
831.473
822.588
813.812
805.263
797.062
789.337
782.219
775.839
770.322
765.785
762.329
760.036
758.959
779.065
780.72
783.79
788.195
793.828
800.558
808.241
816.72
825.839
835.439
845.367
855.474
865.621
875.677
885.523
895.044
904.127
912.658
920.521
927.601
933.789
938.982
943.093
946.052
947.808
948.335
947.623
945.685
942.549
938.268
932.916
926.582
919.37
911.392
902.761
893.596
884.011
874.121
864.043
853.899
843.825
833.964
824.467
815.489
807.191
799.732
793.267
787.937
783.869
781.165
779.894
780.092
781.752
784.831
789.248
794.896
801.643
809.342
817.839
826.972
836.582
846.516
856.622
866.761
876.8
886.619
896.103
905.136
913.602
921.386
928.372
934.452
939.525
943.504
946.322
947.933
948.312
947.454
945.371
942.097
937.687
932.217
925.779
918.477
910.423
901.732
892.519
882.899
872.984
862.892
852.742
842.67
832.816
823.331
814.369
806.088
798.647
792.199
786.885
782.829
780.133
778.867
796.23
798.115
801.606
806.61
813
820.625
829.317
838.898
849.185
859.997
871.156
882.49
893.84
905.05
915.986
926.518
936.519
945.867
954.443
962.131
968.824
974.423
978.844
982.021
983.905
984.467
983.701
981.615
978.242
973.631
967.852
960.992
953.151
944.438
934.97
924.867
914.255
903.261
892.018
880.666
869.364
858.275
847.576
837.445
828.067
819.626
812.299
806.252
801.63
798.554
797.108
797.333
799.222
802.723
807.739
814.145
821.788
830.499
840.097
850.398
861.22
872.383
883.715
895.052
906.242
917.146
927.634
937.578
946.855
955.345
962.933
969.512
974.984
979.269
982.301
984.034
984.444
983.525
981.29
977.773
973.028
967.126
960.155
952.217
943.422
933.886
923.73
913.076
902.053
890.791
879.431
868.127
857.046
846.358
836.243
826.884
818.461
811.153
805.122
800.514
797.447
796.005
810.337
812.421
816.279
821.805
828.856
837.263
846.839
857.385
868.701
880.584
892.84
905.277
917.716
929.987
941.937
953.418
964.295
974.433
983.708
992.001
999.204
1005.22
1009.96
1013.37
1015.38
1015.98
1015.16
1012.92
1009.3
1004.35
998.133
990.744
982.278
972.846
962.57
951.577
940
927.982
915.671
903.226
890.821
878.641
866.879
855.734
845.41
836.11
828.03
821.356
816.252
812.852
811.252
811.501
813.59
817.458
822.998
830.066
838.492
848.087
858.651
869.981
881.875
894.135
906.568
918.994
931.241
943.155
954.589
965.403
975.464
984.648
992.835
999.918
1005.8
1010.4
1013.66
1015.52
1015.96
1014.98
1012.58
1008.81
1003.72
997.378
989.872
981.304
971.785
961.435
950.383
938.761
926.71
914.378
901.923
889.516
877.343
865.592
854.464
844.159
834.879
826.819
820.162
815.073
811.683
810.088
821.136
823.381
827.535
833.48
841.063
850.098
860.384
871.709
883.855
896.608
909.758
923.102
936.448
949.612
962.425
974.727
986.367
997.204
1007.1
1015.95
1023.61
1030.01
1035.06
1038.67
1040.82
1041.45
1040.57
1038.19
1034.34
1029.07
1022.45
1014.58
1005.55
995.478
984.489
972.719
960.312
947.423
934.215
920.863
907.553
894.483
881.86
869.896
858.81
848.818
840.134
832.956
827.463
823.803
822.079
822.347
824.598
828.762
834.722
842.322
851.377
861.683
873.027
885.188
897.952
911.107
924.447
937.779
950.918
963.694
975.944
987.519
998.274
1008.08
1016.81
1024.35
1030.62
1035.51
1038.97
1040.95
1041.43
1040.38
1037.84
1033.83
1028.42
1021.67
1013.68
1004.54
994.375
983.309
971.476
959.022
946.098
932.868
919.505
906.193
893.13
880.52
868.573
857.507
847.537
838.873
831.714
826.236
822.586
820.868
828.359
830.719
835.083
841.327
849.286
858.766
869.554
881.428
894.161
907.53
921.316
935.31
949.313
963.134
976.59
989.509
1001.73
1013.1
1023.49
1032.76
1040.8
1047.5
1052.79
1056.58
1058.82
1059.49
1058.56
1056.06
1052.03
1046.5
1039.57
1031.31
1021.84
1011.27
999.735
987.375
974.345
960.809
946.944
932.935
918.977
905.275
892.042
879.5
867.875
857.395
848.282
840.747
834.978
831.132
829.32
829.602
831.967
836.342
842.601
850.579
860.079
870.889
882.782
895.531
908.912
922.703
936.694
950.683
964.478
977.896
990.762
1002.92
1014.21
1024.49
1033.65
1041.56
1048.12
1053.26
1056.88
1058.96
1059.46
1058.37
1055.7
1051.51
1045.84
1038.76
1030.38
1020.8
1010.14
998.521
986.096
973.017
959.446
945.558
931.539
917.58
903.885
890.666
878.142
866.538
856.079
846.988
839.472
833.718
829.883
828.077
831.957
834.376
838.849
845.246
853.398
863.104
874.146
886.295
899.319
912.992
927.092
941.407
955.735
969.887
983.669
996.903
1009.42
1021.07
1031.7
1041.19
1049.42
1056.28
1061.69
1065.56
1067.86
1068.54
1067.6
1065.04
1060.9
1055.25
1048.15
1039.7
1030
1019.18
1007.37
994.704
981.357
967.494
953.298
938.964
924.687
910.674
897.139
884.309
872.414
861.687
852.357
844.638
838.727
834.784
832.927
833.216
835.641
840.125
846.538
854.708
864.435
875.498
887.666
900.708
914.392
928.497
942.809
957.125
971.251
984.994
998.173
1010.62
1022.19
1032.72
1042.09
1050.19
1056.91
1062.16
1065.88
1068.01
1068.51
1067.4
1064.67
1060.38
1054.57
1047.34
1038.76
1028.95
1018.03
1006.13
993.407
980.01
966.111
951.894
937.549
923.272
909.266
895.745
882.933
871.059
860.354
851.045
843.346
837.451
833.519
831.668
)
;

boundaryField
{
    top
    {
        type            calculated;
        value           nonuniform List<scalar> 
102
(
832.228
834.681
839.214
845.693
853.944
863.762
874.926
887.204
900.362
914.171
928.407
942.859
957.326
971.622
985.546
998.918
1011.57
1023.34
1034.09
1043.68
1051.99
1058.93
1064.4
1068.32
1070.64
1071.33
1070.37
1067.79
1063.6
1057.89
1050.71
1042.17
1032.37
1021.43
1009.49
996.693
983.206
969.199
954.86
940.387
925.973
911.822
898.152
885.189
873.166
862.318
852.878
845.064
839.077
835.081
833.197
833.49
835.949
840.493
846.987
855.257
865.097
876.283
888.581
901.756
915.577
929.819
944.269
958.724
972.995
986.881
1000.2
1012.78
1024.46
1035.11
1044.59
1052.77
1059.57
1064.88
1068.64
1070.79
1071.3
1070.17
1067.42
1063.07
1057.21
1049.89
1041.22
1031.3
1020.27
1008.25
995.386
981.85
967.808
953.447
938.965
924.55
910.407
896.751
883.807
871.806
860.981
851.562
843.769
837.797
833.813
831.935
)
;
    }
    bottom
    {
        type            calculated;
        value           nonuniform List<scalar> 
102
(
-38.8563
-42.0831
-48.1142
-56.888
-68.3358
-82.3971
-99.027
-118.184
-139.801
-163.744
-189.79
-217.604
-246.715
-276.486
-306.061
-334.395
-360.425
-383.251
-402.143
-416.732
-427.264
-434.282
-438.59
-441.015
-442.199
-442.515
-442.075
-440.735
-438.084
-433.45
-425.996
-414.935
-399.762
-380.291
-356.966
-330.54
-301.946
-272.271
-242.548
-213.608
-186.066
-160.374
-136.852
-115.712
-97.0735
-80.9995
-67.5306
-56.7143
-48.6127
-43.2924
-40.8094
-41.1946
-44.4425
-50.5147
-59.3507
-70.8838
-85.0553
-101.821
-121.139
-142.933
-167.062
-193.286
-221.254
-250.472
-280.273
-309.764
-337.878
-363.555
-385.914
-404.251
-418.285
-428.315
-434.93
-438.953
-441.197
-442.268
-442.501
-441.973
-440.504
-437.647
-432.696
-424.809
-413.229
-397.49
-377.482
-353.718
-326.973
-298.196
-268.469
-238.801
-209.983
-182.604
-157.094
-133.758
-112.792
-94.3089
-78.3652
-65.001
-54.265
-46.2213
-40.9383
-38.4729
)
;
    }
    frontAndBack
    {
        type            empty;
    }
    left_cyc
    {
        type            cyclic;
    }
    right_cyc
    {
        type            cyclic;
    }
}


// ************************************************************************* //
