/*--------------------------------*- C++ -*----------------------------------*\
| =========                 |                                                 |
| \\      /  F ield         | OpenFOAM: The Open Source CFD Toolbox           |
|  \\    /   O peration     | Version:  2.3.0                                 |
|   \\  /    A nd           | Web:      www.OpenFOAM.org                      |
|    \\/     M anipulation  |                                                 |
\*---------------------------------------------------------------------------*/
FoamFile
{
    version     2.0;
    format      ascii;
    class       volScalarField;
    location    "16000";
    object      p;
}
// * * * * * * * * * * * * * * * * * * * * * * * * * * * * * * * * * * * * * //

dimensions      [0 2 -2 0 0 0 0];

internalField   nonuniform List<scalar> 
765
(
0
-1186.37
-1097.27
-1122.18
-1109.71
-1098.25
-1078.66
-1051.89
-1017.54
-978.123
-936.455
-894.958
-854.907
-815.983
-777.373
-738.721
-699.979
-661.334
-623.204
-586.247
-551.354
-519.6
-492.17
-470.253
-454.918
-447.002
-447.003
-454.919
-470.255
-492.172
-519.603
-551.359
-586.253
-623.209
-661.338
-699.984
-738.728
-777.382
-815.992
-854.914
-894.967
-936.468
-978.138
-1017.56
-1051.9
-1078.68
-1098.27
-1109.72
-1122.19
-1097.28
-1186.37
-861.622
-1027.13
-961.339
-961.195
-946.569
-935.824
-919.536
-897.638
-869.957
-836.715
-799.915
-761.476
-722.968
-685.455
-649.218
-614.125
-580.112
-547.275
-515.868
-486.275
-458.988
-434.578
-413.682
-396.995
-385.253
-379.15
-379.149
-385.252
-396.996
-413.687
-434.587
-458.999
-486.286
-515.876
-547.28
-580.117
-614.132
-649.226
-685.463
-722.977
-761.488
-799.93
-836.728
-869.967
-897.65
-919.549
-935.831
-946.576
-961.198
-961.342
-1027.12
-722.219
-798.46
-777.329
-785.73
-780.841
-778.896
-770.121
-751.752
-725.299
-695.392
-663.906
-631.253
-598.103
-565.342
-533.504
-502.739
-473.112
-444.742
-417.819
-392.616
-369.483
-348.846
-331.212
-317.157
-307.291
-302.174
-302.174
-307.291
-317.158
-331.216
-348.852
-369.489
-392.621
-417.823
-444.746
-473.118
-502.746
-533.512
-565.35
-598.113
-631.266
-663.918
-695.401
-725.31
-751.768
-770.128
-778.899
-780.858
-785.732
-777.336
-798.474
-603.744
-637.565
-626.414
-629.524
-627.527
-630.085
-623.58
-604.942
-581.813
-558.424
-533.981
-508.213
-481.573
-454.748
-428.2
-402.164
-376.795
-352.243
-328.703
-306.436
-285.787
-267.195
-251.188
-238.367
-229.351
-224.675
-224.675
-229.35
-238.368
-251.191
-267.201
-285.794
-306.442
-328.707
-352.248
-376.801
-402.172
-428.208
-454.757
-481.586
-508.227
-533.991
-558.431
-581.824
-604.951
-623.58
-630.092
-627.529
-629.531
-626.417
-637.561
-464.108
-479.134
-474.323
-476.574
-477.78
-482.528
-479.345
-466.56
-450.68
-433.518
-414.924
-395.118
-374.475
-353.433
-332.325
-311.369
-290.723
-270.537
-250.981
-232.283
-214.751
-198.791
-184.911
-173.7
-165.766
-161.639
-161.638
-165.764
-173.699
-184.914
-198.797
-214.757
-232.289
-250.986
-270.543
-290.731
-311.377
-332.333
-353.444
-374.489
-395.132
-414.934
-433.531
-450.699
-466.572
-479.355
-482.521
-477.786
-476.576
-474.327
-479.136
-322.651
-329.1
-327.507
-329.659
-332.1
-337.665
-339.458
-333.014
-323.319
-312.205
-299.641
-285.838
-271.067
-255.657
-239.887
-223.95
-207.994
-192.151
-176.569
-161.443
-147.044
-133.743
-122.016
-112.43
-105.583
-102.001
-102
-105.581
-112.429
-122.018
-133.748
-147.051
-161.45
-176.576
-192.159
-208.002
-223.956
-239.893
-255.666
-271.077
-285.844
-299.643
-312.209
-323.317
-333.004
-339.489
-337.669
-332.1
-329.66
-327.512
-329.112
-177.866
-181.025
-181.544
-184.291
-187.329
-192.879
-199.056
-199.894
-196.536
-191.408
-184.682
-176.604
-167.43
-157.429
-146.847
-135.865
-124.619
-113.225
-101.803
-90.5115
-79.5694
-69.2851
-60.0676
-52.4185
-46.8847
-43.9631
-43.9617
-46.8819
-52.4172
-60.07
-69.2907
-79.5766
-90.5189
-101.811
-113.232
-124.626
-135.87
-146.852
-157.439
-167.442
-176.613
-184.696
-191.435
-196.561
-199.9
-199.049
-192.883
-187.334
-184.295
-181.547
-181.017
-32.0132
-33.8965
-35.6428
-39.0406
-42.5082
-47.6026
-56.6469
-65.0545
-68.1514
-68.6674
-67.4251
-64.7433
-60.8815
-56.0883
-50.5741
-44.5234
-38.0689
-31.3139
-24.3541
-17.3003
-10.3008
-3.56707
2.60956
7.85311
11.7274
13.8089
13.8099
11.7293
7.85315
2.60629
-3.57299
-10.3076
-17.307
-24.3609
-31.32
-38.073
-44.5263
-50.5799
-56.0988
-60.8916
-64.7496
-67.4316
-68.6687
-68.1429
-65.0702
-56.6415
-47.6076
-42.5128
-39.0434
-35.6438
-33.8913
115.291
113.88
111.397
107.404
103.198
98.1598
88.4459
74.2759
63.8267
57.6548
53.675
51.2362
50.013
49.7325
50.1888
51.2028
52.6435
54.4172
56.4575
58.7107
61.1228
63.6165
66.0716
68.305
70.0653
71.0654
71.0657
70.0652
68.303
66.0675
63.6116
61.1183
58.7065
56.4528
54.4123
52.6398
51.1992
50.1821
49.7247
50.011
51.2379
53.6682
57.6463
63.8313
74.2654
88.4502
98.1593
103.198
107.406
111.398
113.868
263.805
262.507
259.43
254.687
249.175
242.908
233.17
217.302
200.416
187.895
178.492
170.946
164.694
159.361
154.679
150.462
146.585
142.97
139.588
136.457
133.638
131.216
129.284
127.907
127.087
126.744
126.744
127.085
127.904
129.281
131.214
133.637
136.456
139.584
142.964
146.578
150.454
154.667
159.348
164.687
170.943
178.487
187.895
200.422
217.303
233.174
242.908
249.175
254.688
259.431
262.502
414.21
412.921
409.504
404.226
397.378
388.745
377.542
361.604
341.768
323.23
307.874
294.768
283.126
272.409
262.248
252.396
242.718
233.164
223.757
214.597
205.879
197.874
190.914
185.35
181.493
179.545
179.545
181.492
185.348
190.913
197.875
205.881
214.597
223.754
233.16
242.716
252.394
262.244
272.405
283.127
294.768
307.871
323.237
341.775
361.607
377.546
388.745
397.377
404.224
409.503
412.93
561.152
559.14
553.589
545.008
533.712
520.431
505.963
488.61
467.896
447.027
428.041
410.667
394.377
378.731
363.399
348.146
332.822
317.413
302.018
286.827
272.19
258.567
246.532
236.726
229.771
226.171
226.171
229.772
236.727
246.534
258.569
272.192
286.828
302.019
317.418
332.83
348.152
363.398
378.726
394.374
410.662
428.037
447.036
467.905
488.616
505.967
520.435
533.716
545.01
553.59
559.143
687.883
685.007
677.491
667.244
655.267
642.341
629.177
614.412
596.388
576.006
554.782
533.311
511.801
490.258
468.617
446.797
424.736
402.429
380.06
357.906
336.479
316.425
298.571
283.874
273.324
267.795
267.797
273.328
283.878
298.574
316.428
336.483
357.912
380.067
402.436
424.738
446.79
468.602
490.249
511.804
533.316
554.784
576.014
596.394
614.418
629.183
642.347
655.274
667.25
677.495
684.997
701.797
699.841
694.49
687.194
680.297
674.538
667.537
656.632
641.18
622.531
602.036
580.431
558.114
535.263
511.948
488.199
464.053
439.529
414.837
390.183
366.26
343.873
323.995
307.697
296.048
289.972
289.974
296.052
307.701
324
343.88
366.271
390.192
414.841
439.528
464.052
488.2
511.952
535.266
558.115
580.428
602.036
622.54
641.189
656.638
667.541
674.539
680.297
687.196
694.493
699.832
1021.5
1020.8
1018.55
1015.03
1009.31
998.184
980.035
955.016
923.99
888.703
850.822
811.51
771.504
731.21
690.823
650.439
610.17
570.119
530.639
491.821
454.378
419.056
387.082
360.142
340.29
329.685
329.685
340.292
360.147
387.091
419.069
454.39
491.83
530.65
570.136
610.193
650.457
690.832
731.221
771.525
811.53
850.841
888.724
924.011
955.034
980.048
998.193
1009.31
1015.03
1018.55
1020.81
)
;

boundaryField
{
    top
    {
        type            calculated;
        value           nonuniform List<scalar> 
51
(
77.9517
84.4857
101.019
124.756
152.402
179.371
203.128
223.122
239.411
252.615
263.196
271.359
277.258
281.073
283.046
283.447
282.485
280.087
276.63
270.725
264.906
260.739
259.144
260.392
263.816
267.417
267.417
263.814
260.392
259.147
260.744
264.908
270.722
276.626
280.088
282.489
283.442
283.03
281.056
277.248
271.347
263.181
252.602
239.398
223.106
203.11
179.349
152.378
124.733
101.003
84.4976
)
;
    }
    bottom
    {
        type            calculated;
        value           nonuniform List<scalar> 
51
(
-82.9053
-1269.22
-1179.84
-1204.13
-1190.96
-1178.87
-1158.73
-1131.46
-1096.65
-1056.81
-1014.73
-972.844
-932.397
-893.065
-854.02
-814.906
-775.671
-736.497
-697.808
-660.273
-624.798
-592.481
-564.537
-542.186
-526.529
-518.437
-518.437
-526.53
-542.187
-564.538
-592.484
-624.802
-660.278
-697.813
-736.501
-775.675
-814.913
-854.029
-893.073
-932.405
-972.853
-1014.75
-1056.82
-1096.67
-1131.47
-1158.74
-1178.89
-1190.97
-1204.14
-1179.86
-1269.22
)
;
    }
    frontAndBack
    {
        type            empty;
    }
    left_cyc
    {
        type            cyclic;
    }
    right_cyc
    {
        type            cyclic;
    }
}


// ************************************************************************* //
