/*--------------------------------*- C++ -*----------------------------------*\
| =========                 |                                                 |
| \\      /  F ield         | OpenFOAM: The Open Source CFD Toolbox           |
|  \\    /   O peration     | Version:  2.3.0                                 |
|   \\  /    A nd           | Web:      www.OpenFOAM.org                      |
|    \\/     M anipulation  |                                                 |
\*---------------------------------------------------------------------------*/
FoamFile
{
    version     2.0;
    format      ascii;
    class       volScalarField;
    location    "16000";
    object      p_rgh;
}
// * * * * * * * * * * * * * * * * * * * * * * * * * * * * * * * * * * * * * //

dimensions      [0 2 -2 0 0 0 0];

internalField   nonuniform List<scalar> 
3060
(
-38.8727
-41.9705
-47.7702
-56.2286
-67.3019
-80.9561
-97.167
-115.903
-137.097
-160.609
-186.206
-213.538
-242.119
-271.299
-300.236
-327.948
-353.45
-375.849
-394.422
-408.881
-419.46
-426.665
-431.232
-433.902
-435.255
-435.63
-435.129
-433.625
-430.749
-425.899
-418.321
-407.294
-392.343
-373.276
-350.444
-324.605
-296.668
-267.639
-238.501
-210.074
-182.993
-157.729
-134.616
-113.877
-95.639
-79.9638
-66.8802
-56.413
-48.5972
-43.4753
-41.0867
-41.4549
-44.5756
-50.4201
-58.947
-70.115
-83.8921
-100.255
-119.168
-140.556
-164.269
-190.056
-217.549
-246.234
-275.432
-304.267
-331.738
-356.86
-378.751
-396.731
-410.601
-420.649
-427.424
-431.678
-434.138
-435.349
-435.613
-434.996
-433.335
-430.224
-425.03
-416.992
-405.415
-389.865
-370.22
-346.911
-320.728
-292.588
-263.491
-234.397
-206.092
-179.182
-154.113
-131.201
-110.654
-92.5872
-77.057
-64.0896
-53.711
-45.9584
-40.8766
-38.5066
-62.6656
-65.3884
-70.5066
-78.0201
-87.9338
-100.249
-114.95
-131.984
-151.242
-172.554
-195.674
-220.248
-245.773
-271.573
-296.915
-321.366
-344.697
-366.105
-384.32
-398.622
-409.253
-416.735
-421.73
-424.851
-426.536
-427.028
-426.389
-424.537
-421.211
-415.948
-408.121
-397.076
-382.309
-363.656
-341.949
-318.454
-293.885
-268.458
-242.673
-217.274
-192.921
-170.099
-149.149
-130.309
-113.74
-99.5415
-87.7589
-78.4033
-71.47
-66.9531
-64.8538
-65.1771
-67.9218
-73.0828
-80.6615
-90.6643
-103.094
-117.931
-135.118
-154.54
-176.016
-199.285
-223.972
-249.546
-275.306
-300.527
-324.836
-347.958
-368.976
-386.632
-400.365
-410.494
-417.572
-422.263
-425.158
-426.669
-427.004
-426.207
-424.17
-420.601
-415.006
-406.747
-395.181
-379.83
-360.651
-338.608
-314.935
-290.229
-264.698
-238.897
-213.567
-189.339
-166.672
-145.888
-127.21
-110.792
-96.7244
-85.0499
-75.778
-68.9048
-64.426
-62.3443
-76.6202
-79.4649
-84.7799
-92.507
-102.558
-114.805
-129.073
-145.151
-162.816
-181.859
-202.106
-223.41
-245.656
-268.741
-292.432
-315.909
-337.854
-357.08
-373.323
-387.1
-398.136
-406.068
-411.488
-415.017
-417.016
-417.622
-416.848
-414.673
-410.94
-405.257
-396.985
-385.589
-371.53
-354.973
-335.405
-313.232
-289.704
-266.099
-243.163
-221.093
-199.99
-179.978
-161.209
-143.868
-128.171
-114.343
-102.592
-93.0848
-85.9432
-81.2481
-79.0536
-79.3925
-82.2581
-87.612
-95.3939
-105.513
-117.836
-132.185
-148.343
-166.084
-185.202
-205.519
-226.889
-249.199
-272.337
-296.023
-319.334
-340.917
-359.665
-375.507
-388.92
-399.481
-406.994
-412.102
-415.393
-417.187
-417.593
-416.619
-414.233
-410.246
-404.223
-395.503
-383.657
-369.243
-352.252
-332.22
-309.73
-286.086
-262.505
-239.628
-217.623
-196.588
-176.647
-157.953
-140.691
-125.075
-111.327
-99.6514
-90.2103
-83.1205
-78.4608
-76.2833
-57.9647
-60.9672
-66.5563
-74.6446
-85.1098
-97.7877
-112.468
-128.899
-146.813
-165.946
-186.074
-207.022
-228.675
-250.959
-273.703
-296.308
-318.019
-338.399
-356.779
-371.757
-383.332
-392.375
-398.717
-402.912
-405.368
-406.14
-405.17
-402.52
-398.105
-391.473
-382.137
-370.248
-354.851
-336.201
-315.671
-293.853
-271.221
-248.551
-226.386
-204.873
-184.089
-164.161
-145.275
-127.667
-111.606
-97.3632
-85.1855
-75.2769
-67.7946
-62.8538
-60.5364
-60.895
-63.9186
-69.5465
-77.689
-88.2202
-100.971
-115.724
-132.225
-150.199
-169.385
-189.557
-210.543
-232.235
-254.553
-277.29
-299.779
-321.288
-341.403
-359.333
-373.709
-384.869
-393.5
-399.47
-403.388
-405.593
-406.101
-404.873
-401.969
-397.259
-390.223
-380.497
-368.139
-352.143
-333.109
-312.335
-290.326
-267.6
-244.952
-222.827
-201.354
-180.61
-160.728
-141.896
-124.352
-108.362
-94.1941
-82.0887
-72.2443
-64.8134
-59.9082
-57.608
-27.5328
-30.5608
-36.1842
-44.3034
-54.7887
-67.4806
-82.1911
-98.7114
-116.823
-136.31
-156.969
-178.607
-201.023
-223.976
-247.105
-269.859
-291.741
-312.822
-333.105
-351.087
-365.334
-375.78
-383.314
-388.537
-391.695
-392.718
-391.449
-388.066
-382.603
-374.795
-363.98
-349.312
-330.995
-310.589
-289.435
-267.445
-244.623
-221.505
-198.632
-176.347
-154.885
-134.447
-115.229
-97.4422
-81.3051
-67.038
-54.8485
-44.9207
-37.4094
-32.4383
-30.1013
-30.4635
-33.5107
-39.1698
-47.3391
-57.8867
-70.6497
-85.4368
-102.036
-120.226
-139.789
-160.52
-182.222
-204.689
-227.667
-250.766
-273.408
-295.15
-316.128
-336.176
-353.616
-367.216
-377.128
-384.275
-389.163
-392.001
-392.666
-391.05
-387.35
-381.538
-373.316
-361.924
-346.615
-327.822
-307.251
-285.987
-263.854
-240.94
-217.81
-194.97
-172.74
-151.345
-130.979
-111.839
-94.1314
-78.0735
-63.8826
-51.763
-41.8955
-34.4319
-29.4934
-27.1723
4.58882
1.44811
-4.3696
-12.7458
-23.5328
-36.5559
-51.6193
-68.5129
-87.0229
-106.941
-128.072
-150.228
-173.219
-196.828
-220.762
-244.66
-268.006
-290.342
-311.173
-330.056
-346.176
-358.235
-366.701
-372.492
-376.233
-377.516
-375.942
-371.98
-365.954
-357.167
-344.684
-328.181
-309.062
-288.019
-265.535
-242.095
-218.17
-194.271
-170.75
-147.893
-125.913
-105.004
-85.3565
-67.1725
-50.6644
-36.0483
-23.534
-13.3151
-5.56211
-0.417087
2.00782
1.63136
-1.52836
-7.38129
-15.8072
-26.6562
-39.7511
-54.8932
-71.8698
-90.465
-110.469
-131.683
-153.917
-176.977
-200.634
-224.581
-248.426
-271.652
-293.804
-314.363
-332.916
-348.426
-359.827
-367.795
-373.231
-376.622
-377.45
-375.444
-371.153
-364.734
-355.409
-342.246
-325.213
-305.788
-284.499
-261.851
-238.313
-214.364
-190.474
-167.004
-144.216
-122.316
-101.491
-81.9291
-63.8303
-47.4049
-32.8666
-20.4226
-10.2639
-2.5581
2.55457
4.96362
37.456
34.1617
28.0749
19.3366
8.1176
-5.38653
-20.9642
-38.3973
-57.4706
-77.9808
-99.7398
-122.573
-146.308
-170.756
-195.679
-220.83
-245.757
-269.965
-292.82
-313.462
-330.744
-343.336
-351.487
-356.993
-360.494
-361.776
-360.227
-356.542
-350.828
-342.314
-329.185
-311.448
-290.496
-267.43
-243.094
-218.104
-192.95
-168.081
-143.728
-120.126
-97.4657
-75.9243
-55.6818
-36.9322
-19.8846
-4.75753
8.22935
18.8656
26.9595
32.3456
34.8903
34.4947
31.1809
25.058
16.2686
4.98545
-8.59369
-24.255
-41.7782
-60.9465
-81.5548
-103.413
-126.344
-150.171
-174.696
-199.672
-224.823
-249.684
-273.748
-296.335
-316.56
-333.182
-344.971
-352.568
-357.709
-360.883
-361.707
-359.741
-355.728
-349.627
-340.466
-326.544
-308.216
-286.893
-263.597
-239.144
-214.111
-188.978
-164.159
-139.883
-116.373
-93.8103
-72.3678
-52.2228
-33.5675
-16.6091
-1.56438
11.3492
21.9234
29.9687
35.3216
37.85
69.0769
65.5669
59.0986
49.8429
38.0052
23.8152
7.51532
-10.6524
-30.458
-51.6932
-74.1757
-97.7481
-122.269
-147.595
-173.56
-199.974
-226.413
-252.356
-277.125
-299.818
-319.207
-333.425
-341.352
-345.372
-347.798
-348.659
-347.64
-345.103
-340.853
-332.323
-317.432
-297.583
-274.586
-249.619
-223.565
-197.082
-170.683
-144.788
-119.558
-95.1643
-71.7542
-49.476
-28.4955
-9.00328
8.78462
24.6324
38.295
49.53
58.1109
63.8388
66.5515
66.1293
62.5988
56.0923
46.7826
34.8769
20.607
4.21747
-14.048
-33.9583
-55.3036
-77.9007
-101.59
-126.227
-151.662
-177.719
-204.179
-230.597
-256.431
-280.963
-303.254
-321.983
-335.2
-342.258
-345.909
-348.076
-348.61
-347.283
-344.492
-339.759
-330.255
-314.444
-294.017
-270.667
-245.503
-219.367
-192.884
-166.543
-140.744
-115.623
-91.3449
-68.0507
-45.886
-25.0144
-5.62537
12.0661
27.8259
41.4105
52.5797
61.1092
66.802
69.4974
98.7539
94.9548
87.9715
78.0149
65.3382
50.2213
32.9544
13.8193
-6.92494
-29.0548
-52.3883
-76.7852
-102.138
-128.359
-155.354
-182.97
-210.814
-238.368
-264.929
-289.558
-311.021
-327.609
-337.389
-341.121
-342.351
-342.743
-342.315
-340.99
-336.799
-326.243
-309.011
-287.107
-262.183
-235.438
-207.787
-179.914
-152.324
-125.403
-99.2722
-74.03
-49.7735
-26.6199
-4.72121
15.7286
34.4949
51.3102
65.887
77.9341
87.1748
93.3637
96.3012
95.8436
92.0223
84.9978
74.9829
62.2328
47.0299
29.6661
10.425
-10.4336
-32.6855
-56.1484
-80.6809
-106.174
-132.533
-159.659
-187.362
-215.227
-242.708
-269.064
-293.311
-314.152
-329.778
-338.415
-341.486
-342.501
-342.715
-342.118
-340.507
-335.484
-323.776
-305.682
-283.228
-257.975
-231.064
-203.369
-175.535
-148.043
-121.256
-95.2649
-70.1611
-46.0383
-23.012
-1.23348
19.1038
37.7657
54.486
68.9788
80.9549
90.14
96.2908
99.2097
126.35
122.172
114.509
103.626
89.8377
73.4951
54.9553
34.56
12.6137
-10.6315
-34.9852
-60.3201
-86.5643
-113.685
-141.666
-170.372
-199.456
-228.425
-256.586
-282.999
-306.447
-325.393
-338.069
-343.961
-345.624
-345.915
-345.6
-343.691
-337.161
-323.738
-304.202
-280.336
-253.644
-225.314
-196.26
-167.154
-138.475
-110.561
-83.5104
-57.3483
-32.1186
-7.90741
15.1416
36.8215
56.8649
74.9545
90.7406
103.863
113.976
120.772
124.004
123.5
119.297
111.59
100.642
86.774
70.3378
51.6932
31.1832
9.11329
-14.2647
-38.7608
-64.2479
-90.6529
-117.94
-146.084
-174.913
-204.056
-232.989
-260.98
-287.043
-309.913
-327.99
-339.543
-344.501
-345.76
-345.895
-345.393
-342.949
-335.375
-320.874
-300.553
-276.174
-249.185
-220.723
-191.661
-162.633
-134.086
-106.339
-79.4544
-53.4509
-28.3705
-4.29898
18.6196
40.1779
60.1085
78.0951
93.7898
106.835
116.886
123.641
126.852
152.211
147.55
139.02
126.949
111.734
93.8171
73.6445
51.6385
28.1683
3.52973
-22.0671
-48.5002
-75.7282
-103.771
-132.684
-162.348
-192.476
-222.62
-252.119
-280.062
-305.277
-326.358
-341.801
-350.762
-354.43
-355.249
-354.264
-350.181
-340.551
-324.431
-302.81
-277.205
-249
-219.344
-189.12
-158.969
-129.319
-100.45
-72.4437
-45.2545
-18.877
6.62824
31.1176
54.3585
76.0342
95.7581
113.097
127.598
138.827
146.398
150.004
149.442
144.754
136.174
124.032
108.729
90.7099
70.4237
48.2943
24.6915
-0.089307
-25.8393
-52.438
-79.8441
-108.075
-137.177
-166.994
-197.214
-227.356
-256.72
-284.351
-309.035
-329.333
-343.762
-351.718
-354.736
-355.206
-353.822
-348.978
-338.301
-321.217
-298.882
-272.808
-244.343
-214.59
-184.392
-154.349
-124.862
-96.1847
-68.3642
-41.3497
-15.1341
10.2212
34.571
57.6814
79.2355
98.8476
116.086
130.502
141.663
149.187
152.771
176.891
171.637
162.036
148.494
131.509
111.635
89.4307
65.421
40.0591
13.7014
-13.4085
-41.1434
-69.4844
-98.4972
-128.292
-158.777
-189.736
-220.781
-251.299
-280.422
-307.037
-329.84
-347.494
-359.088
-364.951
-366.532
-364.598
-358.208
-345.959
-327.684
-304.38
-277.398
-248.027
-217.358
-186.229
-155.231
-124.733
-94.9411
-65.9171
-37.5567
-9.81317
17.2696
43.5364
68.7142
92.4192
114.175
133.442
149.653
162.264
170.789
174.855
174.222
168.937
159.28
145.659
128.577
108.591
86.2632
62.121
36.6183
10.1104
-17.1607
-45.0707
-73.6022
-102.819
-132.818
-163.478
-194.555
-225.627
-256.041
-284.889
-311.019
-333.107
-349.839
-360.441
-365.484
-366.453
-363.868
-356.594
-343.349
-324.199
-300.242
-272.834
-243.236
-212.501
-181.427
-150.562
-120.247
-90.6625
-61.8385
-33.6639
-6.09112
20.8339
46.9533
71.9922
95.5664
117.201
136.357
152.474
165.009
173.482
177.522
201.011
195.051
184.173
168.871
149.766
127.542
102.895
76.4705
48.8257
20.3942
-8.53125
-37.8053
-67.4206
-97.4793
-128.112
-159.289
-190.871
-222.533
-253.718
-283.613
-311.169
-335.162
-354.354
-367.79
-375.293
-377.491
-374.788
-366.688
-352.609
-332.831
-308.364
-280.456
-250.319
-218.978
-187.217
-155.569
-124.335
-93.6402
-63.5116
-33.8043
-4.44309
24.5324
52.9413
80.4539
106.602
130.799
152.378
170.638
184.898
194.562
199.174
198.456
192.462
181.521
166.131
146.917
124.571
99.7897
73.2235
45.4299
16.842
-12.2498
-41.704
-71.5159
-101.788
-132.631
-163.994
-195.71
-227.42
-258.525
-288.175
-315.285
-338.619
-356.953
-369.421
-376.002
-377.382
-373.841
-364.792
-349.761
-329.173
-304.102
-275.805
-245.469
-214.086
-182.398
-150.9
-119.858
-89.3769
-59.4557
-29.9401
-0.754543
28.0581
56.313
83.6786
109.686
133.751
155.209
173.363
187.538
197.144
201.726
225.152
218.38
206.027
188.693
167.134
142.188
114.703
85.4654
55.1516
24.2876
-6.76813
-37.836
-68.9051
-100.098
-131.55
-163.312
-195.323
-227.335
-258.83
-289.067
-317.068
-341.688
-361.756
-376.277
-384.784
-387.372
-384.176
-375.029
-359.873
-339.239
-314.16
-285.814
-255.33
-223.662
-191.525
-159.406
-127.53
-95.9424
-64.5964
-33.3457
-2.09874
29.095
60.0125
90.2507
119.241
146.272
170.529
191.155
207.321
218.298
223.537
222.722
215.912
203.489
186.057
164.378
139.297
111.666
82.2774
51.8073
20.7816
-10.4422
-41.69
-72.9544
-104.358
-136.019
-167.97
-200.125
-232.192
-263.622
-293.636
-321.225
-345.228
-364.489
-378.064
-385.599
-387.245
-383.101
-372.98
-356.903
-335.509
-309.868
-281.16
-250.497
-218.8
-186.748
-154.784
-123.101
-91.7169
-60.5829
-29.5243
1.54653
32.5751
63.333
93.4161
122.256
149.142
173.266
193.775
209.846
220.757
225.963
249.808
242.128
228.128
208.524
184.223
156.233
125.566
93.1649
59.8347
26.2031
-7.28617
-40.4008
-73.1093
-105.532
-137.81
-170.077
-202.357
-234.5
-265.963
-296.116
-324.069
-348.768
-369.109
-384.112
-393.133
-395.932
-392.464
-382.777
-367.145
-346.252
-321.103
-292.8
-262.385
-230.719
-198.41
-165.97
-133.52
-101.021
-68.3421
-35.3479
-1.95156
31.7713
65.537
98.8506
131.034
161.237
188.488
211.758
230.053
242.497
248.436
247.514
239.792
225.713
205.999
181.566
153.427
122.604
90.0409
56.5464
22.748
-10.9074
-44.1966
-77.0919
-109.713
-142.19
-174.642
-207.07
-239.258
-270.661
-300.604
-328.171
-352.29
-371.867
-385.961
-394
-395.796
-391.328
-380.671
-364.161
-342.551
-316.873
-288.231
-257.647
-225.945
-193.729
-161.442
-129.178
-96.8751
-64.3929
-31.5821
1.64282
35.2021
68.8023
101.952
133.974
164.021
191.125
214.265
232.454
244.824
250.727
275.377
266.71
250.924
228.867
201.609
170.334
136.232
100.402
63.7858
27.1045
-9.08463
-44.4746
-79.0011
-112.756
-145.89
-178.608
-210.998
-242.953
-274.092
-303.833
-331.373
-355.747
-375.93
-390.971
-400.14
-403.014
-399.439
-389.593
-373.929
-353.202
-328.378
-300.478
-270.45
-239.073
-206.9
-174.281
-141.297
-107.843
-73.7166
-38.7912
-3.01107
33.5111
70.4064
107.064
142.703
176.331
206.809
232.933
253.529
267.565
274.267
273.227
264.513
248.639
226.461
199.057
167.621
133.349
97.3472
60.5582
23.7006
-12.646
-48.2012
-82.9
-116.832
-150.146
-183.031
-215.547
-247.548
-278.629
-308.172
-335.347
-359.177
-378.641
-392.813
-401.016
-402.876
-398.295
-387.504
-371.005
-349.603
-324.282
-296.062
-265.875
-234.468
-202.371
-169.891
-137.075
-103.8
-69.848
-35.0916
0.526074
36.8923
73.6121
110.098
145.564
179.022
209.34
235.32
255.799
269.752
276.413
302.167
292.449
274.784
250.165
219.834
185.155
147.488
108.093
68.0497
28.2146
-10.7918
-48.6009
-85.0768
-120.256
-154.307
-187.489
-219.943
-251.629
-282.272
-311.373
-338.228
-361.974
-381.674
-396.428
-405.486
-408.339
-404.772
-395.037
-379.666
-359.425
-335.224
-307.99
-278.569
-247.641
-215.674
-182.912
-149.372
-114.896
-79.2248
-42.235
-3.92867
35.5054
75.6353
115.775
155.004
192.183
226.009
255.1
278.104
293.82
301.338
300.17
290.399
272.637
247.885
217.394
182.54
144.69
105.113
64.8927
24.8866
-14.2802
-52.2459
-88.8767
-124.207
-158.413
-191.737
-224.296
-256.017
-286.597
-315.507
-342.019
-365.254
-384.279
-398.212
-406.341
-408.203
-403.658
-393.017
-376.86
-355.987
-331.319
-303.782
-274.206
-243.244
-211.334
-178.689
-145.295
-110.973
-75.4504
-38.6128
-0.461142
38.8133
78.772
118.733
157.779
194.775
228.426
257.36
280.234
295.859
303.331
330.445
319.658
300.112
272.952
239.594
201.567
160.39
117.465
73.9993
30.9595
-10.9469
-51.2721
-89.8019
-126.501
-161.56
-195.271
-227.822
-259.231
-289.308
-317.651
-343.66
-366.581
-385.582
-399.833
-408.61
-411.379
-407.897
-398.447
-383.584
-364.043
-340.653
-314.239
-285.536
-255.117
-223.355
-190.412
-156.244
-120.652
-83.3412
-44.1858
-3.26267
39.1581
82.5627
126.172
168.95
209.623
246.741
278.76
304.156
321.559
329.911
328.611
317.766
298.114
270.81
237.279
199.062
157.69
114.573
70.9226
27.7106
-14.3544
-54.8265
-93.4926
-130.315
-165.5
-199.326
-231.956
-263.383
-293.388
-321.543
-347.225
-369.67
-388.041
-401.524
-409.425
-411.249
-406.836
-396.535
-380.938
-360.806
-336.979
-310.277
-281.417
-250.952
-219.226
-186.373
-152.324
-116.859
-79.6701
-40.6492
0.127836
42.3897
85.6206
129.044
171.627
212.103
249.032
280.881
306.136
323.439
331.741
360.439
348.637
327.32
297.789
261.612
220.469
176.013
129.764
83.0357
36.8917
-7.87225
-50.7217
-91.3546
-129.65
-165.819
-200.168
-232.909
-264.109
-293.651
-321.224
-346.335
-368.349
-386.54
-400.171
-408.573
-411.223
-407.867
-398.8
-384.56
-365.822
-343.321
-317.771
-289.789
-259.841
-228.211
-194.989
-160.087
-123.279
-84.2591
-42.8993
0.635945
45.987
92.5511
139.458
185.57
229.504
269.686
304.433
332.066
351.06
360.205
358.779
346.915
325.485
295.798
259.435
218.09
173.425
126.972
80.0512
33.7311
-11.1902
-54.1777
-94.9292
-133.321
-169.588
-204.022
-236.815
-268.011
-297.468
-324.853
-349.654
-371.221
-388.829
-401.749
-409.336
-411.101
-406.874
-397.017
-382.097
-362.811
-339.9
-314.072
-285.931
-255.921
-224.304
-191.143
-156.33
-119.621
-80.6971
-39.4553
3.94135
49.1333
95.5186
142.23
188.135
231.859
271.838
306.401
333.883
352.77
361.861
392.316
379.626
356.775
325.202
286.608
242.791
195.503
146.351
96.7288
47.7756
0.366531
-44.8785
-87.5652
-127.478
-164.838
-199.942
-233.006
-264.126
-293.243
-320.129
-344.396
-365.522
-382.894
-395.876
-403.87
-406.386
-403.17
-394.518
-380.926
-362.995
-341.359
-316.614
-289.263
-259.673
-228.044
-194.412
-158.664
-120.569
-79.834
-36.337
9.66184
57.7103
107.12
156.941
205.957
252.703
295.514
332.6
362.161
382.537
392.38
390.841
378.086
355.115
323.377
284.587
240.555
193.045
143.678
93.8529
44.7174
-2.84991
-48.2269
-91.0178
-131.003
-168.436
-203.597
-236.685
-267.778
-296.796
-323.492
-347.461
-368.169
-385.002
-397.331
-404.575
-406.272
-402.254
-392.874
-378.658
-360.219
-338.197
-313.182
-285.666
-255.996
-224.355
-190.756
-155.069
-117.047
-76.386
-32.9939
12.8707
60.7575
109.981
159.595
208.391
254.914
297.509
334.401
363.803
384.065
393.85
426.191
412.815
388.801
355.698
315.305
269.494
220.075
168.703
116.814
65.595
15.9816
-31.3323
-75.8647
-117.302
-155.861
-191.797
-225.307
-256.497
-285.346
-311.696
-335.249
-355.588
-372.212
-384.585
-392.186
-394.571
-391.491
-383.232
-370.244
-353.044
-332.164
-308.09
-281.219
-251.828
-220.055
-185.898
-149.238
-109.867
-67.5347
-22.135
25.9739
76.2533
127.943
180.034
231.262
280.119
324.888
363.719
394.729
416.158
426.541
424.915
411.471
387.332
354.058
313.46
267.423
217.772
166.172
114.069
62.6605
12.8853
-34.5585
-79.186
-120.68
-159.291
-195.259
-228.769
-259.911
-288.647
-314.803
-338.067
-358.015
-374.142
-385.916
-392.833
-394.467
-390.651
-381.727
-368.166
-350.497
-329.252
-304.914
-277.871
-248.384
-216.574
-182.425
-145.801
-106.484
-64.2086
-18.9065
29.0682
79.1802
130.674
182.546
233.542
282.164
326.708
365.335
396.179
417.49
427.813
462.132
448.356
423.69
389.762
348.418
301.556
250.994
198.385
145.164
92.5312
41.4506
-7.3326
-53.2639
-95.9413
-135.551
-172.278
-206.277
-237.639
-266.362
-292.335
-315.332
-335.028
-351.021
-362.868
-370.125
-372.392
-369.429
-361.51
-349.036
-332.447
-312.177
-288.613
-262.066
-232.74
-200.729
-166.019
-128.509
-88.0392
-44.4269
2.39439
51.9808
103.725
156.818
210.227
262.678
312.662
358.464
398.221
430.021
452.045
462.748
461.068
447.223
422.43
388.326
346.772
299.677
248.874
196.028
142.584
89.7519
38.5035
-10.4113
-56.4348
-99.1636
-138.813
-175.556
-209.536
-240.832
-269.429
-295.204
-317.922
-337.25
-352.784
-364.083
-370.716
-372.297
-368.661
-360.136
-347.138
-330.113
-309.497
-285.676
-258.95
-229.513
-197.445
-162.723
-125.231
-84.8012
-41.239
5.48533
54.9325
106.5
159.387
212.566
264.774
314.514
360.083
399.632
431.262
453.166
463.807
500.166
486.357
461.696
427.839
386.63
339.935
289.523
236.991
183.726
130.895
79.45
30.1536
-16.3979
-59.7378
-99.9881
-137.241
-171.585
-203.074
-231.7
-257.376
-279.927
-299.099
-314.569
-325.974
-332.939
-335.104
-332.237
-324.602
-312.556
-296.468
-276.691
-253.533
-227.237
-197.96
-165.776
-130.681
-92.6155
-51.4909
-7.22024
40.2031
90.2745
142.349
195.608
249.034
301.39
351.219
396.861
436.499
468.247
490.281
501.019
499.33
485.452
460.664
426.632
385.212
338.282
287.624
234.848
181.353
128.314
76.6952
27.2639
-19.3786
-62.7827
-103.074
-140.335
-174.647
-206.058
-234.549
-260.027
-282.309
-301.134
-316.178
-327.083
-333.478
-335.016
-331.536
-323.349
-310.821
-294.328
-274.224
-250.815
-224.336
-194.938
-162.684
-127.564
-89.5072
-48.4186
-4.20107
43.1183
93.0409
144.929
197.971
251.158
303.265
352.846
398.253
437.682
469.26
491.174
501.851
540.282
526.884
503.019
470.316
430.556
385.513
336.849
286.051
234.405
182.993
132.712
84.2925
38.3283
-4.6919
-44.7897
-81.9476
-116.171
-147.459
-175.777
-201.039
-223.097
-241.742
-256.711
-267.702
-274.397
-276.468
-273.689
-266.319
-254.675
-239.072
-219.799
-197.108
-171.197
-142.201
-110.198
-75.2157
-37.2535
3.68913
47.5854
94.3598
143.49
194.34
246.128
297.9
348.509
396.604
440.635
478.89
509.569
530.907
541.333
539.69
526.225
502.237
469.365
429.399
384.125
335.217
284.174
232.293
180.67
130.208
81.6502
35.6019
-7.51935
-47.6701
-84.8376
-119.026
-150.231
-178.414
-203.482
-225.282
-243.603
-258.179
-268.713
-274.889
-276.388
-273.05
-265.176
-253.092
-237.113
-217.533
-194.6
-168.508
-139.389
-107.312
-72.2997
-34.3465
6.55429
50.3835
97.0404
146.01
196.663
248.227
299.757
350.117
397.966
441.766
479.818
510.332
531.553
541.921
582.433
569.958
547.795
517.487
480.688
439.02
393.98
346.892
298.891
250.927
203.787
158.117
114.452
73.239
34.5922
-1.35821
-34.5305
-64.8601
-92.2725
-116.665
-137.894
-155.776
-170.085
-180.564
-186.935
-188.898
-186.233
-179.191
-168.062
-153.117
-134.603
-112.738
-87.6957
-59.6117
-28.5831
5.31751
42.0213
81.4363
123.417
167.79
214.075
261.702
309.981
358.074
404.973
449.484
490.223
525.642
554.09
573.919
583.636
582.101
569.565
547.287
516.821
479.828
437.941
392.667
345.343
297.111
248.933
201.606
155.787
112.02
70.685
31.9721
-3.99603
-37.1392
-67.3913
-94.6753
-118.885
-139.876
-157.459
-171.412
-181.477
-187.381
-188.825
-185.655
-178.159
-166.631
-151.344
-132.547
-110.456
-85.2444
-57.0429
-25.9455
7.97862
44.6643
84.023
125.914
170.152
216.266
263.691
311.745
359.601
406.26
450.537
491.058
526.287
554.581
574.302
583.964
626.538
615.546
596.076
569.519
537.338
500.943
461.615
420.47
378.445
336.314
294.706
254.132
215.007
177.646
142.336
109.301
78.6956
50.6423
25.2563
2.66407
-16.9861
-33.5187
-46.7318
-56.3991
-62.2726
-64.0776
-61.6023
-55.0883
-44.8008
-30.9802
-13.8453
6.40887
29.6132
55.6243
84.3178
115.577
149.27
185.225
223.19
262.894
303.968
345.97
388.354
430.448
471.428
510.302
545.899
576.892
601.837
619.27
627.84
626.484
615.437
595.866
569.169
536.814
500.222
460.683
419.319
377.077
334.739
292.942
252.203
212.942
175.457
140.071
107.005
76.4152
48.4238
23.1476
0.714552
-18.7255
-34.9965
-47.897
-57.2021
-62.6657
-64.0136
-61.0938
-54.182
-43.5449
-29.4243
-12.0405
8.41154
31.7637
57.8742
86.6207
117.888
151.547
187.427
225.275
264.828
305.726
347.53
389.701
431.575
472.335
510.997
546.399
577.222
602.031
619.369
627.891
672.488
663.564
647.817
626.418
600.577
571.437
540.018
507.184
473.645
439.962
406.573
373.805
341.897
310.984
281.489
253.696
227.804
203.968
182.328
163.024
146.205
132.039
120.707
112.409
107.362
105.813
107.955
113.568
122.412
134.277
148.97
166.312
186.143
208.313
232.683
259.109
287.425
317.409
348.741
381.069
414.21
447.901
481.785
515.39
548.11
579.19
607.718
632.63
652.752
666.867
673.833
672.728
663.759
647.929
626.415
600.431
571.128
539.531
506.511
472.782
438.913
405.344
372.405
340.337
309.298
279.718
251.88
225.983
202.184
180.623
161.44
144.788
130.831
119.752
111.748
107.037
105.865
108.374
114.311
123.44
135.547
150.439
167.936
187.879
210.118
234.516
260.93
289.192
319.082
350.272
382.445
415.416
448.927
482.623
516.039
548.573
579.477
607.843
632.616
652.626
666.664
673.59
720.147
713.867
702.858
688.001
670.19
650.25
628.896
606.712
584.155
561.559
539.15
517.051
495.291
473.798
453.052
433.34
414.856
397.742
382.127
368.134
355.894
345.546
337.24
331.136
327.41
326.265
327.862
332.015
338.53
347.235
357.975
370.601
384.978
400.977
418.472
437.332
457.4
478.463
500.19
522.203
544.549
567.178
589.941
612.583
634.735
655.906
675.471
692.681
706.68
716.569
721.48
720.698
714.386
703.317
688.377
670.462
650.403
628.917
606.594
583.892
561.148
538.588
516.334
494.411
472.795
451.958
432.188
413.674
396.564
380.984
367.06
354.923
344.711
336.574
330.671
327.179
326.302
328.157
332.536
339.244
348.11
358.977
371.698
386.136
402.163
419.654
438.478
458.477
479.435
501.009
522.875
545.076
567.561
590.179
612.678
634.693
655.735
675.184
692.292
706.212
716.045
720.927
769.388
766.287
760.951
753.908
745.67
736.692
727.345
717.91
708.574
699.442
690.536
681.793
673.045
664.009
655.117
646.574
638.49
630.94
623.986
617.691
612.125
607.365
603.496
600.616
598.834
598.28
599.065
601.062
604.146
608.21
613.161
618.915
625.397
632.538
640.275
648.542
657.257
666.291
675.394
684.248
693.133
702.196
711.48
720.941
730.454
739.806
748.692
756.714
763.398
768.22
770.658
770.266
767.147
761.779
754.69
746.396
737.352
727.933
718.418
708.997
699.774
690.768
681.911
673.025
663.885
654.909
646.298
638.162
630.576
623.604
617.309
611.761
607.037
603.225
600.419
598.732
598.295
599.192
601.278
604.432
608.547
613.531
619.298
625.775
632.893
640.591
648.801
657.442
666.376
675.341
684.081
692.867
701.838
711.036
720.416
729.853
739.134
747.956
755.924
762.565
767.356
769.779
819.987
820.532
821.684
823.545
826.182
829.624
833.855
838.819
844.425
850.552
857.048
863.725
870.318
876.433
882.264
887.808
893.012
897.814
902.152
905.974
909.236
911.905
913.961
915.397
916.22
916.46
916.15
915.252
913.74
911.609
908.868
905.54
901.658
897.269
892.427
887.194
881.631
875.782
869.618
863.03
856.419
850.03
844.047
838.614
833.847
829.829
826.607
824.185
822.525
821.548
821.148
821.204
821.748
822.898
824.756
827.389
830.827
835.051
840.006
845.598
851.706
858.173
864.805
871.324
877.379
883.149
888.628
893.762
898.488
902.747
906.484
909.658
912.238
914.204
915.55
916.288
916.448
916.056
915.07
913.469
911.247
908.417
905.002
901.037
896.569
891.653
886.351
880.722
874.806
868.558
861.919
855.274
848.863
842.864
837.42
832.646
828.623
825.397
822.972
821.31
820.332
819.931
)
;

boundaryField
{
    top
    {
        type            fixedFluxPressure;
        gradient        nonuniform List<scalar> 
102
(
1578.13
1697.59
1909.55
2199.44
2552.04
2952.84
3388.83
3848.9
4324.05
4807.38
5294.34
5783.38
6278.09
6790.9
7298.08
7788.68
8255.6
8693.06
9095.8
9458.81
9777.22
10046.3
10261.6
10418.8
10513.9
10542.8
10502.9
10397.3
10229.9
10004.9
9726.5
9399.18
9027.71
8616.99
8172.12
7698.5
7202.22
6691.15
6178.51
5682.92
5191.97
4703.36
4219.42
3745.33
3288.57
2858.77
2467.62
2128.66
1856.78
1667.21
1574.18
1588.89
1708.86
1921.78
2213
2567.25
2969.93
3407.94
3870.14
4347.47
4833.03
5322.35
5814.12
6312.73
6827.69
7336.08
7827.12
8293.7
8730
9130.76
9490.94
9805.68
10070.3
10280.3
10431.6
10520
10541.8
10494.8
10382.8
10209.7
9979.6
9696.88
9366.09
8992
8579.5
8133.69
7659.95
7164.41
6655.17
6146.43
5653.44
5164.69
4678.19
4196.36
3724.39
3269.72
2841.92
2452.62
2115.27
1844.68
1656.02
1563.45
)
;
        value           nonuniform List<scalar> 
102
(
846.29
848.825
853.51
860.202
868.716
878.838
890.335
902.967
916.492
930.675
945.287
960.114
974.953
989.615
1003.9
1017.62
1030.61
1042.7
1053.75
1063.62
1072.19
1079.34
1084.99
1089.04
1091.45
1092.17
1091.2
1088.54
1084.24
1078.36
1070.98
1062.19
1052.12
1040.89
1028.63
1015.5
1001.67
987.301
972.593
957.745
942.951
928.42
914.37
901.036
888.656
877.475
867.734
859.663
853.471
849.335
847.384
847.686
850.229
854.927
861.639
870.177
880.325
891.85
904.508
918.056
932.256
946.879
961.707
976.536
991.174
1005.42
1019.08
1031.99
1043.99
1054.93
1064.67
1073.09
1080.08
1085.54
1089.41
1091.62
1092.14
1090.97
1088.12
1083.63
1077.57
1070.03
1061.1
1050.9
1039.56
1027.21
1014.02
1000.13
985.726
970.998
956.143
941.352
926.833
912.803
899.493
887.141
875.988
866.274
858.226
852.054
847.932
845.988
)
;
    }
    bottom
    {
        type            fixedFluxPressure;
        gradient        nonuniform List<scalar> 
102
(
0
0
0
0
0
0
0
0
0
0
0
0
0
0
0
0
0
0
0
0
0
0
0
0
0
0
0
0
0
0
0
0
0
0
0
0
0
0
0
0
0
0
0
0
0
0
0
0
0
0
0
0
0
0
0
0
0
0
0
0
0
0
0
0
0
0
0
0
0
0
0
0
0
0
0
0
0
0
0
0
0
0
0
0
0
0
0
0
0
0
0
0
0
0
0
0
0
0
0
0
0
-1.64369e-14
)
;
        value           nonuniform List<scalar> 
102
(
-38.8727
-41.9705
-47.7702
-56.2286
-67.3019
-80.9561
-97.167
-115.903
-137.097
-160.609
-186.206
-213.538
-242.119
-271.299
-300.236
-327.948
-353.45
-375.849
-394.422
-408.881
-419.46
-426.665
-431.232
-433.902
-435.255
-435.63
-435.129
-433.625
-430.749
-425.899
-418.321
-407.294
-392.343
-373.276
-350.444
-324.605
-296.668
-267.639
-238.501
-210.074
-182.993
-157.729
-134.616
-113.877
-95.639
-79.9638
-66.8802
-56.413
-48.5972
-43.4753
-41.0867
-41.4549
-44.5756
-50.4201
-58.947
-70.115
-83.8921
-100.255
-119.168
-140.556
-164.269
-190.056
-217.549
-246.234
-275.432
-304.267
-331.738
-356.86
-378.751
-396.731
-410.601
-420.649
-427.424
-431.678
-434.138
-435.349
-435.613
-434.996
-433.335
-430.224
-425.03
-416.992
-405.415
-389.865
-370.22
-346.911
-320.728
-292.588
-263.491
-234.397
-206.092
-179.182
-154.113
-131.201
-110.654
-92.5872
-77.057
-64.0896
-53.711
-45.9584
-40.8766
-38.5066
)
;
    }
    frontAndBack
    {
        type            empty;
    }
    left_cyc
    {