/*--------------------------------*- C++ -*----------------------------------*\
| =========                 |                                                 |
| \\      /  F ield         | OpenFOAM: The Open Source CFD Toolbox           |
|  \\    /   O peration     | Version:  2.3.0                                 |
|   \\  /    A nd           | Web:      www.OpenFOAM.org                      |
|    \\/     M anipulation  |                                                 |
\*---------------------------------------------------------------------------*/
FoamFile
{
    version     2.0;
    format      ascii;
    class       volScalarField;
    location    "16000";
    object      p_rgh;
}
// * * * * * * * * * * * * * * * * * * * * * * * * * * * * * * * * * * * * * //

dimensions      [0 2 -2 0 0 0 0];

internalField   nonuniform List<scalar> 
765
(
-1753.36
-1762.33
-1770.88
-1779.82
-1790.24
-1803.34
-1819.8
-1838.59
-1857.75
-1873.49
-1879.15
-1868.9
-1851.44
-1831.98
-1813.75
-1798.35
-1786.25
-1776.44
-1767.72
-1759.1
-1749.83
-1739.65
-1728.42
-1715.97
-1702.08
-1686.36
-1668.23
-1646.72
-1620.25
-1586.54
-1541.98
-1482.39
-1412.16
-1332
-1238.19
-1174.85
-1190.88
-1273.25
-1364.06
-1438.94
-1506.78
-1560.24
-1600.14
-1630.77
-1655.15
-1675.25
-1692.39
-1707.38
-1720.71
-1732.69
-1743.53
-1722.48
-1732.26
-1741.52
-1750.91
-1761.37
-1773.97
-1789.24
-1807.76
-1828.86
-1849.73
-1859.4
-1843.09
-1821.64
-1801.2
-1783.82
-1769.18
-1757.37
-1747.36
-1738.09
-1728.69
-1718.63
-1707.28
-1694.69
-1680.87
-1665.69
-1648.89
-1630.06
-1608.48
-1582.97
-1552.25
-1515.13
-1473.16
-1428.86
-1395.04
-1395.07
-1392.34
-1393.72
-1393
-1404.25
-1446.07
-1489.3
-1529.82
-1564.41
-1592.97
-1616.84
-1637.28
-1655.3
-1671.46
-1686.12
-1699.48
-1711.64
-1679.08
-1689.81
-1700.12
-1710.41
-1721.28
-1733.73
-1749.28
-1771.38
-1800.94
-1834.98
-1852.33
-1823.61
-1790.11
-1762.85
-1743
-1728.96
-1717.18
-1706.56
-1696.29
-1685.83
-1674.87
-1663.28
-1650.43
-1636.37
-1621.22
-1604.97
-1587.68
-1569.28
-1549.56
-1528.57
-1498.72
-1463.76
-1424.37
-1370.91
-1347.93
-1338.86
-1341.37
-1353.81
-1389.17
-1441.09
-1476.17
-1511.73
-1536.74
-1557.09
-1576.26
-1594.21
-1611.12
-1626.96
-1641.72
-1655.37
-1667.75
-1650.54
-1661.53
-1672.3
-1682.8
-1693.12
-1704.02
-1718.79
-1742.81
-1780.13
-1827.98
-1853.1
-1811.73
-1765.83
-1733.06
-1712.61
-1699.94
-1689.41
-1679.05
-1668.43
-1657.56
-1646.49
-1635.26
-1623.88
-1612.27
-1600.44
-1588.45
-1575.89
-1561.91
-1545.2
-1524.02
-1486.51
-1432.38
-1378.34
-1337.36
-1304.54
-1285.1
-1290.11
-1315.9
-1352.1
-1394.6
-1454.44
-1503.72
-1532.75
-1551.86
-1567.35
-1580.65
-1592.9
-1604.81
-1616.57
-1628.06
-1639.38
-1649.36
-1659.08
-1668.79
-1677.9
-1685.93
-1693.62
-1705.34
-1728.36
-1771.05
-1830.46
-1861.63
-1810.27
-1754.11
-1718.55
-1700.41
-1690.77
-1683.27
-1674.86
-1665.48
-1655.7
-1646.07
-1636.9
-1628.33
-1620.28
-1612.47
-1604.25
-1594.46
-1581.29
-1562.26
-1535.01
-1492.1
-1427.92
-1345.69
-1288.09
-1247.29
-1223.88
-1229.8
-1261.05
-1308.19
-1372.76
-1454.83
-1511.33
-1546.35
-1570.19
-1586.65
-1598.27
-1607.27
-1615.2
-1623.03
-1631.24
-1640.01
-1669.27
-1677.2
-1684.88
-1691.26
-1695.54
-1699.11
-1705.85
-1726.55
-1772.93
-1840.34
-1874.9
-1817.73
-1754.11
-1717.04
-1702.55
-1697.85
-1694.4
-1689.39
-1682.46
-1674.61
-1666.8
-1659.69
-1653.53
-1648.18
-1643.08
-1637.09
-1628.39
-1614.37
-1591.66
-1556.97
-1505.39
-1431.77
-1334.71
-1258.4
-1200.28
-1168.04
-1176.02
-1219.29
-1285.96
-1369.98
-1461.05
-1527.19
-1571.25
-1601.13
-1620.14
-1631.81
-1639.22
-1644.69
-1649.77
-1655.36
-1661.86
-1699.76
-1705.74
-1710.68
-1713.41
-1713.46
-1712.8
-1716.78
-1737.4
-1784.86
-1853.05
-1888.32
-1830.57
-1765.92
-1727.85
-1714.19
-1713.31
-1713.83
-1712.93
-1709.36
-1703.97
-1697.93
-1692.21
-1687.31
-1683.24
-1679.37
-1674.3
-1665.64
-1649.99
-1623.24
-1581.29
-1519.57
-1435.73
-1331.5
-1234.2
-1153.55
-1109.94
-1120.57
-1180.12
-1270.23
-1370.4
-1468.29
-1544.76
-1598.39
-1634.27
-1656.41
-1669.03
-1676.02
-1680.43
-1684.25
-1688.58
-1693.82
-1732.74
-1736.3
-1738.13
-1737.87
-1736.52
-1734.92
-1739.51
-1759.33
-1802.72
-1864.91
-1899.09
-1844.7
-1785.83
-1750.55
-1736.84
-1735.22
-1737.06
-1738.31
-1737.93
-1735.48
-1731.54
-1726.96
-1722.44
-1718.24
-1713.93
-1708.07
-1697.9
-1679.42
-1647.93
-1598.89
-1526.89
-1433.23
-1328.08
-1210.52
-1105.28
-1048.16
-1062.03
-1140.97
-1255.75
-1366.46
-1469.79
-1556.31
-1618.88
-1660.77
-1686.88
-1701.8
-1710.01
-1715.08
-1719.27
-1723.61
-1728.24
-1762.37
-1764.57
-1765.47
-1765.2
-1763.98
-1763.93
-1769.52
-1787.18
-1823.31
-1875.16
-1906.35
-1858.73
-1809.76
-1779.88
-1766.91
-1763.79
-1764.62
-1765.6
-1765.53
-1764.26
-1761.67
-1757.97
-1753.46
-1748.2
-1741.76
-1732.76
-1718.53
-1695.12
-1658.01
-1602.56
-1521.99
-1420.05
-1315.7
-1178.87
-1050.07
-979.015
-996.466
-1095.05
-1233.54
-1353.23
-1460.45
-1554.9
-1624.93
-1672.76
-1704.28
-1723.85
-1735.83
-1743.71
-1749.66
-1754.68
-1758.98
-1785.29
-1788.87
-1791.21
-1792.49
-1793.38
-1795.39
-1801.42
-1815.91
-1843.5
-1883.13
-1909.64
-1871.23
-1833.8
-1810.55
-1799.25
-1794.91
-1793.5
-1792.6
-1791.03
-1788.28
-1784.31
-1779.16
-1772.78
-1764.88
-1754.69
-1740.62
-1720.06
-1689.42
-1644.98
-1582.64
-1495.04
-1388.59
-1284.72
-1129.22
-980.766
-898.27
-918.727
-1031.9
-1187.85
-1318.35
-1429.57
-1529.67
-1607.02
-1661.93
-1700.92
-1727.51
-1745.43
-1757.92
-1767.21
-1774.56
-1780.52
-1787.01
-1795.34
-1802.48
-1808.52
-1813.82
-1819.22
-1826.47
-1838.45
-1858.39
-1886.36
-1907.07
-1878.84
-1852.23
-1834.84
-1824.62
-1818.16
-1812.9
-1807.39
-1800.99
-1793.46
-1784.7
-1774.69
-1763.39
-1749.9
-1733.37
-1712.03
-1683.34
-1644.29
-1592.37
-1524.09
-1431.47
-1316
-1209.32
-1047.67
-891.294
-802.747
-825.083
-943.24
-1108.48
-1251.44
-1359.62
-1466.73
-1549.86
-1611.28
-1658.34
-1693.36
-1719.16
-1738.6
-1753.91
-1766.57
-1777.43
-1732.78
-1750.46
-1766.71
-1781.65
-1795.39
-1808.15
-1820.64
-1834.27
-1850.93
-1871.06
-1886.22
-1866.62
-1846.84
-1831.07
-1817.84
-1805.28
-1792.17
-1778.01
-1762.59
-1745.85
-1727.64
-1707.87
-1686.65
-1664.47
-1639.29
-1609.46
-1572.79
-1526.21
-1466.61
-1388.5
-1291.93
-1181.74
-1076.81
-923.174
-778.651
-692.094
-714.585
-827.092
-981.811
-1118.46
-1219.71
-1327.74
-1418.11
-1487.96
-1542.55
-1585.17
-1619.16
-1647.2
-1671.25
-1692.88
-1713.57
-1549.47
-1578.85
-1606.34
-1632.3
-1656.95
-1680.37
-1702.58
-1723.76
-1744.17
-1763.28
-1775.02
-1759.63
-1739.63
-1718.78
-1697.13
-1674.4
-1650.48
-1625.32
-1598.83
-1570.69
-1540.56
-1508.3
-1474.73
-1441.55
-1409.29
-1373.08
-1331.43
-1280.47
-1217.06
-1135.6
-1043.93
-966.495
-883.444
-765.723
-650.771
-576.639
-596.373
-690.093
-809.568
-916.379
-990.578
-1072.68
-1166.25
-1239.03
-1298.19
-1345.15
-1384.53
-1419.12
-1451.33
-1484.74
-1517.96
-1151.42
-1185.51
-1218.1
-1249.35
-1279.2
-1307.32
-1333.26
-1356.58
-1376.92
-1393.38
-1401.26
-1390.32
-1372.36
-1350.94
-1326.62
-1299.82
-1271
-1240.58
-1208.82
-1175.69
-1140.97
-1104.33
-1066.03
-1026.58
-985.9
-945.288
-901.499
-853.131
-803.932
-755.048
-707.12
-664.527
-608.51
-530.124
-450.808
-397.252
-411.784
-478.417
-559.473
-631.126
-677.754
-722.987
-771.874
-819.838
-869.503
-916.314
-958.543
-998.823
-1038.82
-1077.78
-1115.5
-427.231
-457.993
-489.464
-521.733
-554.89
-588.85
-623.126
-656.511
-686.588
-709.196
-717.241
-704.289
-678.722
-647.16
-613.181
-578.81
-544.982
-512.025
-479.945
-448.633
-418.02
-388.079
-358.378
-329.39
-304.254
-284.768
-272.523
-269.546
-279.439
-306.563
-352.608
-407.908
-457.465
-486.274
-495.955
-493.163
-494.815
-494.208
-477.674
-440.953
-386.386
-334.352
-294.588
-273.768
-269.052
-275.213
-290.227
-311.532
-338.069
-367.514
-397.154
)
;

boundaryField
{
    top
    {
        type            fixedValue;
        value           uniform 0;
    }
    bottom
    {
        type            fixedFluxPressure;
        gradient        uniform 0;
        value           nonuniform List<scalar> 
51
(
-1753.36
-1762.33
-1770.88
-1779.82
-1790.24
-1803.34
-1819.8
-1838.59
-1857.75
-1873.49
-1879.15
-1868.9
-1851.44
-1831.98
-1813.75
-1798.35
-1786.25
-1776.44
-1767.72
-1759.1
-1749.83
-1739.65
-1728.42
-1715.97
-1702.08
-1686.36
-1668.23
-1646.72
-1620.25
-1586.54
-1541.98
-1482.39
-1412.16
-1332
-1238.19
-1174.85
-1190.88
-1273.25
-1364.06
-1438.94
-1506.78
-1560.24
-1600.14
-1630.77
-1655.15
-1675.25
-1692.39
-1707.38
-1720.71
-1732.69
-1743.53
)
;
    }
    frontAndBack
    {
        type            empty;
    }
    left_cyc
    {
        type            cyclic;
    }
    right_cyc
    {
        type            cyclic;
    }
}


// ************************************************************************* //
