/*--------------------------------*- C++ -*----------------------------------*\
| =========                 |                                                 |
| \\      /  F ield         | OpenFOAM: The Open Source CFD Toolbox           |
|  \\    /   O peration     | Version:  2.3.0                                 |
|   \\  /    A nd           | Web:      www.OpenFOAM.org                      |
|    \\/     M anipulation  |                                                 |
\*---------------------------------------------------------------------------*/
FoamFile
{
    version     2.0;
    format      ascii;
    class       surfaceScalarField;
    location    "16000";
    object      phi;
}
// * * * * * * * * * * * * * * * * * * * * * * * * * * * * * * * * * * * * * //

dimensions      [0 3 -1 0 0 0 0];

internalField   nonuniform List<scalar> 
1464
(
0.308004
0.00242335
0.312973
-0.00496892
0.327047
-0.0140744
0.350119
-0.0230712
0.378215
-0.0280962
0.401219
-0.0230043
0.4019
-0.000681176
0.358188
0.0437127
0.249239
0.108948
0.0704745
0.178765
-0.137172
0.207647
-0.294536
0.157364
-0.3801
0.0855645
-0.406412
0.0263119
-0.395951
-0.010461
-0.369472
-0.0264798
-0.342115
-0.0273564
-0.321754
-0.0203614
-0.310793
-0.0109611
-0.30852
-0.00227251
-0.31295
0.00442978
-0.321986
0.00903664
-0.334248
0.0122618
-0.349105
0.0148569
-0.366573
0.0174673
-0.38726
0.0206875
-0.412357
0.0250973
-0.443219
0.0308615
-0.479636
0.0364174
-0.515121
0.0354848
-0.527745
0.0126243
-0.487434
-0.0403109
-0.39647
-0.0909649
-0.271696
-0.124774
-0.124175
-0.147521
0.0277595
-0.151935
0.179027
-0.151267
0.320723
-0.141696
0.43418
-0.113457
0.509839
-0.0756598
0.527096
-0.0172563
0.502317
0.0247783
0.465223
0.0370947
0.430832
0.0343908
0.402375
0.0284566
0.37915
0.0232251
0.359786
0.019364
0.343317
0.0164691
0.329355
0.0139616
0.3181
0.011256
0.00767197
0.547068
-0.00575349
0.561999
-0.0198999
0.584021
-0.0360968
0.611052
-0.050102
0.636785
-0.0538289
0.648698
-0.0349179
0.626741
0.0212755
0.543383
0.127071
0.371201
0.281131
0.103539
0.446427
-0.20225
0.513436
-0.440767
0.39588
-0.581023
0.22582
-0.640572
0.0858618
-0.648253
-0.00278091
-0.629682
-0.0450506
-0.602342
-0.0546963
-0.576442
-0.0462618
-0.556636
-0.0307666
-0.54401
-0.0148986
-0.537723
-0.00185684
-0.536037
0.00735053
-0.536825
0.0130495
-0.537985
0.0160169
-0.537438
0.0169203
-0.532936
0.016186
-0.521877
0.0140376
-0.501139
0.0101239
-0.467139
0.00241743
-0.416136
-0.0155184
-0.34531
-0.0582017
-0.260604
-0.125017
-0.178625
-0.172944
-0.109669
-0.193729
-0.0503082
-0.206881
0.0105157
-0.212759
0.0708119
-0.211563
0.132177
-0.203061
0.206744
-0.188024
0.292183
-0.161099
0.373654
-0.0987275
0.437308
-0.0388751
0.481704
-0.00730205
0.510366
0.00572951
0.527089
0.011733
0.535335
0.0149794
0.538024
0.0166746
0.537608
0.0168859
0.536236
0.0153331
0.53596
0.0115321
0.00474127
0.578278
-0.0203328
0.595856
-0.0374783
0.61556
-0.0558005
0.634592
-0.0691343
0.647166
-0.0664026
0.643192
-0.0309441
0.606843
0.0576244
0.516367
0.217546
0.348405
0.449093
0.0964085
0.698423
-0.188427
0.798271
-0.414823
0.622277
-0.554822
0.365819
-0.624444
0.155484
-0.647637
0.0204117
-0.644606
-0.0480812
-0.628963
-0.0703393
-0.60919
-0.0660355
-0.589937
-0.0500191
-0.57326
-0.031576
-0.559562
-0.0155545
-0.548246
-0.00396505
-0.53785
0.00265356
-0.526269
0.00443577
-0.510843
0.0014936
-0.488386
-0.00627094
-0.455362
-0.0189858
-0.408734
-0.0365039
-0.347877
-0.0584404
-0.278202
-0.0851931
-0.215415
-0.120988
-0.170237
-0.170196
-0.129665
-0.213516
-0.0848753
-0.238519
-0.038767
-0.25299
0.00801029
-0.259536
0.0546214
-0.258174
0.100487
-0.248927
0.143884
-0.231421
0.183614
-0.200829
0.236478
-0.151592
0.304596
-0.106992
0.372351
-0.0750572
0.428071
-0.0499902
0.469278
-0.0294747
0.497849
-0.0135916
0.517179
-0.00265524
0.530713
0.00335194
0.541438
0.00460804
0.551808
0.00116234
-0.00714934
0.517223
-0.0334695
0.530011
-0.0502662
0.54094
-0.0667289
0.54729
-0.0754846
0.544635
-0.0637475
0.526144
-0.0124527
0.481834
0.101934
0.398752
0.300628
0.262973
0.584872
0.0718285
0.889568
-0.139965
1.01006
-0.314621
0.796933
-0.431735
0.482933
-0.500349
0.224098
-0.534793
0.0548557
-0.54713
-0.0357434
-0.546189
-0.071281
-0.537908
-0.0743161
-0.52609
-0.0618369
-0.513016
-0.0446499
-0.499867
-0.0287037
-0.486956
-0.0168759
-0.473821
-0.0104813
-0.459149
-0.0102368
-0.440788
-0.0168677
-0.415838
-0.031221
-0.380985
-0.0538381
-0.333607
-0.0838819
-0.274086
-0.117962
-0.209482
-0.149797
-0.156044
-0.174426
-0.122107
-0.204133
-0.0934988
-0.242124
-0.0628013
-0.269216
-0.0291734
-0.286617
0.00598461
-0.294694
0.0407686
-0.292958
0.0733907
-0.281549
0.102813
-0.260844
0.131739
-0.229755
0.173428
-0.19328
0.233247
-0.166811
0.29743
-0.13924
0.352761
-0.105322
0.395221
-0.0719339
0.425927
-0.0442977
0.447962
-0.0246909
0.464557
-0.0132426
0.478349
-0.00918392
0.491191
-0.0116802
-0.0200446
0.409234
-0.0402341
0.413212
-0.0542446
0.412857
-0.0663738
0.406092
-0.0687196
0.390181
-0.0478362
0.36153
0.0161978
0.31585
0.147615
0.248552
0.367926
0.156109
0.677315
0.0414763
1.0042
-0.079933
1.13147
-0.188797
0.905797
-0.273127
0.567263
-0.333019
0.283989
-0.372758
0.0945949
-0.39688
-0.011621
-0.409474
-0.0586872
-0.41386
-0.0699304
-0.412562
-0.0631354
-0.407486
-0.0497253
-0.400017
-0.0361724
-0.391017
-0.0258765
-0.380761
-0.0207374
-0.3688
-0.0221977
-0.353842
-0.0318257
-0.333731
-0.0513317
-0.305717
-0.0818521
-0.26735
-0.122249
-0.218456
-0.166857
-0.163808
-0.204445
-0.115635
-0.222599
-0.0850879
-0.23468
-0.0633728
-0.263839
-0.0423498
-0.290239
-0.0197369
-0.30923
0.0039767
-0.318408
0.0274124
-0.316394
0.0494046
-0.303541
0.0702021
-0.281641
0.0934093
-0.252962
0.130569
-0.23044
0.183424
-0.219666
0.237064
-0.19288
0.282368
-0.150625
0.316729
-0.106296
0.341489
-0.0690571
0.359379
-0.0425809
0.372997
-0.0268606
0.384196
-0.0203836
0.393959
-0.0214434
-0.0285542
0.266869
-0.0390505
0.261537
-0.048913
0.250959
-0.0557958
0.234041
-0.0518009
0.209783
-0.023579
0.177562
0.0484191
0.137779
0.187398
0.0926914
0.413013
0.0479016
0.722105
0.0112685
1.04083
-0.0201063
1.16285
-0.0607129
0.946403
-0.10711
0.61366
-0.151333
0.328213
-0.189068
0.13233
-0.218852
0.0181631
-0.240679
-0.0368608
-0.255414
-0.0551945
-0.264142
-0.0544081
-0.267982
-0.0458847
-0.268024
-0.0361303
-0.265238
-0.0286633
-0.260342
-0.0256326
-0.253611
-0.0289288
-0.244654
-0.0407829
-0.232267
-0.0637186
-0.214508
-0.0996116
-0.189244
-0.147513
-0.155549
-0.200551
-0.115621
-0.244373
-0.0765196
-0.2617
-0.0515309
-0.259669
-0.0370527
-0.278317
-0.0246287
-0.302663
-0.011557
-0.322302
0.0022572
-0.332222
0.0158738
-0.330011
0.028578
-0.316245
0.0414946
-0.294558
0.0592651
-0.270733
0.0897477
-0.260923
0.130169
-0.260087
0.168127
-0.230838
0.198722
-0.181221
0.22105
-0.128623
0.236643
-0.0846505
0.247644
-0.0535819
0.255747
-0.0349641
0.261856
-0.0264927
0.266107
-0.0256942
-0.0304994
0.100915
-0.0308487
0.08833
-0.0363285
0.0709034
-0.0383693
0.0485045
-0.0294019
0.0216222
0.00330326
-0.00783262
0.077874
-0.0357738
0.215339
-0.0543236
0.431563
-0.0509534
0.718735
-0.0157314
1.00561
0.0332411
1.11388
0.0572027
0.922442
0.0509759
0.619887
0.0275626
0.351626
-0.0019159
0.161808
-0.0310635
0.0473106
-0.0566841
-0.0112402
-0.0775096
-0.034369
-0.0933394
-0.0385783
-0.104446
-0.0347784
-0.111379
-0.0291972
-0.114891
-0.0251512
-0.115826
-0.0246979
-0.114902
-0.0298525
-0.112438
-0.0432472
-0.108126
-0.06803
-0.101001
-0.106737
-0.0897271
-0.158787
-0.0734317
-0.216846
-0.0528053
-0.265
-0.0311186
-0.283387
-0.0186006
-0.272187
-0.0131829
-0.283735
-0.00904831
-0.306798
-0.00441163
-0.326939
0.0007959
-0.33743
0.0058472
-0.335062
0.0101766
-0.320575
0.0146198
-0.299001
0.0231193
-0.279232
0.039552
-0.277356
0.0605181
-0.281053
0.0791479
-0.249467
0.0933728
-0.195446
0.103007
-0.138257
0.109082
-0.0907258
0.112784
-0.0572838
0.114824
-0.0370039
0.115265
-0.026934
0.113624
-0.0240532
-0.0259913
-0.0720029
-0.0182126
-0.0886512
-0.0196803
-0.109265
-0.0177559
-0.133171
-0.00549593
-0.158457
0.0285898
-0.180967
0.100384
-0.193193
0.227565
-0.182834
0.421204
-0.13384
0.669741
-0.0379175
0.909689
0.0765308
0.999428
0.157021
0.841952
0.190757
0.586151
0.191397
0.350986
0.174275
0.178931
0.150027
0.0715592
0.124764
0.0140225
0.101738
-0.0113436
0.0823355
-0.0191754
0.0669666
-0.0194094
0.0555241
-0.0177548
0.0475128
-0.0171399
0.0421185
-0.0193036
0.0383956
-0.0261296
0.0355492
-0.0404009
0.0331078
-0.0655885
0.0308876
-0.104516
0.0288181
-0.156717
0.0266706
-0.214699
0.0242035
-0.262532
0.0213428
-0.280526
0.015955
-0.266799
0.00998163
-0.277762
0.00555801
-0.302374
0.00223545
-0.323616
-0.000548802
-0.334645
-0.00347204
-0.332139
-0.00718371
-0.316863
-0.0121955
-0.293989
-0.0187115
-0.272716
-0.023399
-0.272668
-0.026536
-0.277916
-0.029078
-0.246925
-0.0310862
-0.193438
-0.0329935
-0.13635
-0.0350422
-0.088677
-0.0373714
-0.0549547
-0.040268
-0.0341073
-0.0443155
-0.0228865
-0.0503751
-0.0179936
-0.0169997
-0.233339
-0.00412113
-0.251182
-0.00183741
-0.272342
0.00340392
-0.295286
0.0174488
-0.316543
0.049847
-0.329717
0.113558
-0.324286
0.222134
-0.28538
0.382298
-0.196914
0.581275
-0.0545851
0.767361
0.108111
0.836732
0.233643
0.716419
0.303746
0.516048
0.329311
0.32542
0.326842
0.1814
0.309888
0.0885131
0.287417
0.036494
0.264711
0.0113623
0.244466
0.00106965
0.227772
-0.00271526
0.214811
-0.0047936
0.205172
-0.00750097
0.197947
-0.0120791
0.191916
-0.0200986
0.185849
-0.0343336
0.178553
-0.0582928
0.168641
-0.0946043
0.154406
-0.142482
0.134045
-0.194338
0.107179
-0.235666
0.0766682
-0.250016
0.0511391
-0.24127
0.0336071
-0.26023
0.0205434
-0.289311
0.00907093
-0.312144
-0.00199705
-0.323577
-0.0131598
-0.320976
-0.0250325
-0.304991
-0.0396371
-0.279384
-0.0628463
-0.249507
-0.0915463
-0.243968
-0.120637
-0.248825
-0.144665
-0.222898
-0.162107
-0.175995
-0.174145
-0.124311
-0.182594
-0.0802283
-0.18904
-0.0485093
-0.194754
-0.0283925
-0.200894
-0.0167469
-0.20868
-0.0102072
-0.00643261
-0.365333
0.00912444
-0.382227
0.0150565
-0.401935
0.0231121
-0.422075
0.0375894
-0.437805
0.0655765
-0.440777
0.116529
-0.418492
0.199849
-0.355402
0.319208
-0.237621
0.463494
-0.0653065
0.595046
0.127164
0.644261
0.283366
0.560217
0.381976
0.417438
0.429672
0.277725
0.441849
0.169223
0.433373
0.0969889
0.415354
0.0545129
0.39487
0.0318462
0.375831
0.0201092
0.360017
0.0130982
0.347899
0.00732485
0.339084
0.00131402
0.33242
-0.00541523
0.326204
-0.0138832
0.318644
-0.0267736
0.30783
-0.0474781
0.29134
-0.0781149
0.266313
-0.117455
0.229898
-0.157923
0.181504
-0.187272
0.12714
-0.195652
0.0846146
-0.198745
0.0587664
-0.234381
0.0373801
-0.267924
0.0168139
-0.291577
-0.00381979
-0.302944
-0.0244659
-0.30033
-0.0452323
-0.284224
-0.0684419
-0.256175
-0.10071
-0.217239
-0.148621
-0.196057
-0.202128
-0.195319
-0.246258
-0.178768
-0.277995
-0.144258
-0.299343
-0.102964
-0.313246
-0.0663252
-0.322464
-0.0392909
-0.329202
-0.0216545
-0.335248
-0.0107003
-0.342359
-0.00309694
0.00329571
-0.44951
0.0201208
-0.463616
0.0291624
-0.479768
0.0392646
-0.495167
0.0529885
-0.504275
0.0746842
-0.497878
0.110133
-0.462989
0.16496
-0.384852
0.24107
-0.252453
0.331095
-0.0692881
0.411881
0.132472
0.442501
0.301489
0.3912
0.415821
0.303106
0.478335
0.215211
0.50226
0.145297
0.50225
0.0969994
0.490175
0.0665884
0.473987
0.0480333
0.458221
0.035876
0.445004
0.0263145
0.435001
0.0173282
0.427918
0.00839723
0.422486
1.67829e-05
0.416554
-0.00795168
0.407846
-0.0180654
0.393873
-0.0335048
0.371527
-0.0557694
0.337625
-0.0835528
0.289381
-0.109679
0.226721
-0.124611
0.163629
-0.132561
0.119815
-0.15493
0.0879454
-0.202512
0.0575777
-0.237557
0.0261377
-0.260137
-0.00605501
-0.270751
-0.0381101
-0.268275
-0.0692694
-0.253065
-0.0998227
-0.225622
-0.131854
-0.185208
-0.18278
-0.145131
-0.250431
-0.127668
-0.308951
-0.120247
-0.351914
-0.101296
-0.381365
-0.0735133
-0.400302
-0.0473881
-0.41203
-0.0275629
-0.419459
-0.014225
-0.424912
-0.00524815
-0.430625
0.00261597
0.0111848
-0.466571
0.0278876
-0.475694
0.0382851
-0.485338
0.0489089
-0.493156
0.0608058
-0.494284
0.075813
-0.48051
0.0963586
-0.440344
0.124794
-0.36116
0.161886
-0.234445
0.20438
-0.064657
0.242093
0.121107
0.256737
0.27956
0.232747
0.391124
0.191542
0.45666
0.149676
0.486935
0.115021
0.494728
0.089207
0.49064
0.0706764
0.481775
0.0568976
0.472083
0.0455687
0.463314
0.035083
0.455988
0.0246546
0.449962
0.0144228
0.444348
0.00563077
0.437395
-0.000998641
0.426934
-0.00760415
0.410121
-0.0166921
0.383484
-0.0291323
0.344753
-0.0448213
0.294967
-0.0598932
0.239644
-0.0692881
0.192661
-0.0855779
0.159594
-0.121863
0.122219
-0.165138
0.0809147
-0.196252
0.0368625
-0.216085
-0.00852902
-0.225359
-0.0536113
-0.223192
-0.0967875
-0.209889
-0.13637
-0.186039
-0.171278
-0.1503
-0.20958
-0.106829
-0.260671
-0.0765771
-0.314556
-0.0663626
-0.36048
-0.0553717
-0.394727
-0.0392658
-0.417484
-0.0246308
-0.431675
-0.0133727
-0.440636
-0.00526315
-0.44689
0.00100567
-0.452446
0.00817153
0.0175435
-0.41046
0.030521
-0.411116
0.0389406
-0.409599
0.0473917
-0.404904
0.0561115
-0.394434
0.0653427
-0.373354
0.0752788
-0.334534
0.0859739
-0.269828
0.0971802
-0.173521
0.108074
-0.0482846
0.116856
0.0882887
0.120164
0.206235
0.114801
0.292772
0.105005
0.34863
0.0938173
0.38097
0.0826817
0.397978
0.0721986
0.406168
0.0624862
0.409637
0.0534295
0.410395
0.0448105
0.409097
0.036381
0.405832
0.0279191
0.400822
0.0194327
0.394736
0.0117174
0.388201
0.00553643
0.380558
3.82209e-05
0.369549
-0.00568319
0.352251
-0.011834
0.326142
-0.0187127
0.293623
-0.0273736
0.263654
-0.0393198
0.236425
-0.0583486
0.202137
-0.0875748
0.156505
-0.119505
0.103963
-0.143711
0.0474309
-0.159553
-0.0109632
-0.166965
-0.0689255
-0.16523
-0.124221
-0.154594
-0.174562
-0.135697
-0.21652
-0.108342
-0.247748
-0.0756001
-0.27406
-0.0502657
-0.305729
-0.0346938
-0.336912
-0.0241884
-0.359819
-0.0163593
-0.374634
-0.0098155
-0.384182
-0.00382498
-0.391219
0.00177394
-0.397557
0.00734438
-0.403347
0.0139615
0.0220229
-0.355525
0.0187551
-0.339419
0.0228343
-0.319003
0.0269762
-0.294144
0.0312529
-0.264507
0.0357056
-0.229532
0.0403031
-0.188456
0.0448985
-0.140464
0.0491879
-0.0851006
0.0527102
-0.0232001
0.0549557
0.041391
0.0555728
0.101723
0.0544692
0.154925
0.0518025
0.200754
0.0479888
0.239883
0.0435529
0.273159
0.0389217
0.301295
0.0343508
0.324778
0.0299465
0.343876
0.0257124
0.358665
0.0215915
0.369069
0.0175156
0.374965
0.0135372
0.376674
0.0100083
0.375118
0.00709195
0.370832
0.00432408
0.36366
0.00148889
0.353252
-0.0014257
0.339259
-0.00471957
0.321349
-0.00946395
0.299466
-0.0174367
0.271863
-0.0307452
0.233299
-0.0490113
0.18203
-0.0682356
0.121714
-0.0833956
0.0557375
-0.0935758
-0.0128586
-0.0983691
-0.0808435
-0.0972453
-0.14506
-0.0903775
-0.202439
-0.0783178
-0.249362
-0.0614193
-0.283205
-0.041757
-0.308148
-0.0253226
-0.328641
-0.0142003
-0.34521
-0.00761979
-0.357977
-0.00359188
-0.367288
-0.000505128
-0.373486
0.00237328
-0.376901
0.00518885
-0.377518
0.00796091
-0.374581
0.0110251
0.0147326
-0.343305
-0.325972
-0.304238
-0.277909
-0.246743
-0.210519
-0.169156
-0.122894
-0.0724897
-0.0193378
0.0345956
0.0871391
0.136449
0.181315
0.221148
0.255833
0.28551
0.310421
0.330797
0.346814
0.358581
0.36627
0.370376
0.371555
0.37009
0.366114
0.359821
0.351234
0.339593
0.322687
0.296375
0.256455
0.201947
0.136016
0.0625568
-0.0144157
-0.0905635
-0.16166
-0.223777
-0.273089
-0.307528
-0.329909
-0.344651
-0.355133
-0.362983
-0.368587
-0.371807
-0.372464
-0.370421
-0.365278
)
;

boundaryField
{
    top
    {
        type            calculated;
        value           nonuniform List<scalar> 
51
(
0.00569626
0.00550099
0.00524226
0.00492382
0.0045395
0.00407879
0.00353605
0.00292556
0.0023061
0.00180374
0.00163933
0.00192578
0.00249225
0.00312331
0.00371916
0.00423743
0.00467343
0.00503605
0.00533547
0.00557526
0.0057484
0.00584789
0.00590218
0.00591333
0.00578929
0.00546467
0.00486699
0.0038676
0.00217672
-0.000530095
-0.00443325
-0.00909166
-0.0137272
-0.0174651
-0.0201164
-0.0213965
-0.0210975
-0.0192812
-0.0162005
-0.0121079
-0.0073176
-0.00294199
0.000542261
0.00286211
0.00425843
0.00509901
0.00559276
0.00584555
0.0059178
0.00588253
0.00581878
)
;
    }
    bottom
    {
        type            calculated;
        value           uniform 0;
    }
    frontAndBack
    {
        type            empty;
        value           nonuniform 0();
    }
    left_cyc
    {
        type            cyclic;
        value           nonuniform List<scalar> 
15
(
-0.310428
-0.538891
-0.563699
-0.504087
-0.402469
-0.268052
-0.109116
0.0593668
0.219247
0.352087
0.438514
0.458804
0.407827
0.367291
0.356364
)
;
    }
    right_cyc
    {
        type            cyclic;
        value           nonuniform List<scalar> 
15
(
0.310428
0.538891
0.563699
0.504087
0.402469
0.268052
0.109116
-0.0593668
-0.219247
-0.352087
-0.438514
-0.458804
-0.407827
-0.367291
-0.356364
)
;
    }
}


// ************************************************************************* //
