/*--------------------------------*- C++ -*----------------------------------*\
| =========                 |                                                 |
| \\      /  F ield         | OpenFOAM: The Open Source CFD Toolbox           |
|  \\    /   O peration     | Version:  2.3.0                                 |
|   \\  /    A nd           | Web:      www.OpenFOAM.org                      |
|    \\/     M anipulation  |                                                 |
\*---------------------------------------------------------------------------*/
FoamFile
{
    version     2.0;
    format      ascii;
    class       surfaceScalarField;
    location    "16000";
    object      phi;
}
// * * * * * * * * * * * * * * * * * * * * * * * * * * * * * * * * * * * * * //

dimensions      [0 3 -1 0 0 0 0];

internalField   nonuniform List<scalar> 
5988
(
0.00360476
-0.00317897
0.0067292
-0.00312444
0.0097532
-0.003024
0.0126341
-0.0028809
0.0153335
-0.00269937
0.0178178
-0.00248438
0.0200591
-0.00224129
0.0220342
-0.00197506
0.023723
-0.00168875
0.0251045
-0.00138151
0.0261513
-0.00104684
0.0268238
-0.000672534
0.0270667
-0.000242899
0.0268114
0.000255363
0.0259889
0.00082252
0.0245566
0.0014323
0.0225262
0.00203035
0.0199758
0.00255041
0.017059
0.0029168
0.0139786
0.00308039
0.0109294
0.00304923
0.00806729
0.00286207
0.00546877
0.00259852
0.00312091
0.00234786
0.000944077
0.00217684
-0.00117666
0.00212074
-0.00336607
0.00218941
-0.00573662
0.00237054
-0.00836217
0.00262555
-0.0112465
0.0028843
-0.0143031
0.00305662
-0.0173689
0.00306584
-0.0202464
0.00287747
-0.0227346
0.00248817
-0.0246874
0.0019528
-0.0260341
0.00134668
-0.0267696
0.00073553
-0.0269414
0.000171772
-0.0266199
-0.000321464
-0.025873
-0.000746867
-0.0247545
-0.00111851
-0.0233028
-0.00145175
-0.0215448
-0.00175797
-0.0195021
-0.00204268
-0.0171961
-0.00230597
-0.0146518
-0.00254436
-0.011899
-0.00275282
-0.00897291
-0.00292606
-0.00591361
-0.00305929
-0.00276509
-0.00314853
0.000425675
-0.00319076
0.00360989
-0.00318422
0.00673913
-0.00312924
0.00976708
-0.00302795
0.0126507
-0.00288364
0.0153512
-0.00270052
0.0178348
-0.00248356
0.0200729
-0.00223808
0.0220417
-0.00196885
0.0237203
-0.00167861
0.0250863
-0.00136597
0.0261101
-0.0010238
0.0267495
-0.000639387
0.0269465
-0.000196998
0.0266309
0.000315552
0.0257355
0.000895388
0.0242242
0.00151138
0.0221186
0.00210551
0.0195092
0.00260943
0.016561
0.00294826
0.013479
0.00308195
0.0104551
0.00302386
0.00763521
0.00281993
0.00508143
0.00255377
0.00276849
0.00231294
0.000609202
0.00215929
-0.00151435
0.00212355
-0.00372647
0.00221212
-0.00613556
0.00240909
-0.00880657
0.00267101
-0.0117298
0.00292323
-0.0148053
0.00307552
-0.017862
0.0030567
-0.0207
0.00283795
-0.0231236
0.00242358
-0.024999
0.00187547
-0.0262672
0.00126819
-0.0269327
0.000665498
-0.027048
0.000115288
-0.0266841
-0.000363877
-0.0259069
-0.000777194
-0.0247675
-0.00113947
-0.0233016
-0.00146584
-0.0215345
-0.00176712
-0.0194863
-0.00204819
-0.0171776
-0.00230865
-0.0146329
-0.00254476
-0.0118815
-0.00275134
-0.00895847
-0.00292307
-0.00590331
-0.00305516
-0.00275969
-0.00314362
-0.00318547
0.00544684
-0.00798366
0.0102133
-0.00789089
0.0149092
-0.00771995
0.0195051
-0.00747676
0.0239738
-0.00716803
0.0282883
-0.00679897
0.0324179
-0.00637089
0.0363221
-0.00587924
0.0399461
-0.00531274
0.0432181
-0.00465347
0.0460483
-0.00387712
0.0483288
-0.00295298
0.0499308
-0.00184492
0.0507026
-0.000516432
0.0504749
0.00105018
0.0490894
0.00281782
0.0464411
0.00467863
0.0425262
0.00646534
0.0375077
0.00793536
0.0317211
0.00886691
0.0255576
0.00921281
0.0193804
0.00903922
0.0134327
0.0085462
0.00778934
0.00799124
0.00238106
0.00758512
-0.00294588
0.00744768
-0.00837026
0.0076138
-0.0140397
0.00803994
-0.0200101
0.00859602
-0.0261884
0.00906253
-0.0323142
0.00918244
-0.0380153
0.00876692
-0.0429016
0.00776379
-0.0466512
0.00623783
-0.049123
0.00442456
-0.0503357
0.0025594
-0.0504032
0.000803033
-0.0494883
-0.000743131
-0.04776
-0.00204977
-0.0453682
-0.00313867
-0.0424399
-0.00404682
-0.0390818
-0.0048098
-0.0353823
-0.00545753
-0.0314114
-0.00601359
-0.0272223
-0.00649506
-0.0228543
-0.00691231
-0.0183382
-0.00726899
-0.0137011
-0.00756311
-0.00897121
-0.00778919
-0.00417902
-0.00794072
0.000642561
-0.00801234
0.00545963
-0.00800128
0.0102384
-0.00790799
0.0149464
-0.00773601
0.019554
-0.00749117
0.0240334
-0.00717995
0.028357
-0.00680714
0.0324923
-0.0063734
0.0363968
-0.00587333
0.0400129
-0.00529476
0.0432658
-0.00461883
0.0460623
-0.0038203
0.0482905
-0.00286758
0.0498176
-0.00172411
0.0504876
-0.000354435
0.0501294
0.00125359
0.0485891
0.00305167
0.0457731
0.00492153
0.0416983
0.00668419
0.0365579
0.00808866
0.0307047
0.00893515
0.024532
0.00919661
0.0183903
0.00896166
0.0124979
0.00844614
0.00690416
0.00790669
0.00152233
0.00754111
-0.00380892
0.00745481
-0.00926721
0.00767041
-0.01499
0.00813185
-0.0210132
0.00869422
-0.0272169
0.00912693
-0.0333188
0.00917741
-0.0389382
0.00867608
-0.0436897
0.00758946
-0.0472745
0.00600847
-0.0495803
0.00418121
-0.0506436
0.00233153
-0.0505878
0.000609643
-0.0495783
-0.000894233
-0.0477813
-0.00216086
-0.0453423
-0.00321615
-0.0423843
-0.00409749
-0.0390103
-0.00483984
-0.0353052
-0.00547222
-0.0313361
-0.00601725
-0.0271537
-0.0064911
-0.0227952
-0.00690324
-0.01829
-0.00725653
-0.0136647
-0.00754838
-0.00894694
-0.00777294
-0.00416705
-0.00792351
-0.00799468
0.00610399
-0.0133679
0.0114383
-0.0132252
0.0166788
-0.0129605
0.021782
-0.01258
0.0267038
-0.0120898
0.0313989
-0.011494
0.0358195
-0.0107915
0.0399154
-0.00997514
0.0436339
-0.00903121
0.0469213
-0.00794086
0.0497255
-0.00668135
0.0519997
-0.00522719
0.0537064
-0.00355157
0.0548171
-0.00162721
0.0552896
0.000577683
0.0549996
0.0031079
0.0536877
0.00599054
0.0510323
0.00912065
0.0467994
0.0121683
0.0410014
0.0146649
0.0340066
0.0162077
0.0263837
0.0166621
0.0186029
0.016327
0.0109142
0.0156799
0.00336201
0.0151373
-0.00413469
0.0149444
-0.0116942
0.0151733
-0.0193882
0.015734
-0.0271536
0.0163614
-0.034715
0.0166239
-0.0415825
0.01605
-0.0471923
0.0143767
-0.0512151
0.0117866
-0.0536741
0.00869684
-0.0548224
0.00557281
-0.0549824
0.00271946
-0.0543991
0.000219667
-0.0531823
-0.00195994
-0.0513699
-0.00386211
-0.0489913
-0.00551725
-0.046086
-0.00695215
-0.0427025
-0.00819334
-0.038894
-0.00926597
-0.0347152
-0.0101924
-0.0302194
-0.0109909
-0.0254573
-0.0116744
-0.0204771
-0.0122492
-0.0153247
-0.0127155
-0.0100448
-0.0130691
-0.00468177
-0.0133037
0.000719918
-0.013414
0.00611566
-0.013397
0.0114609
-0.0132532
0.0167111
-0.0129863
0.0218221
-0.0126021
0.0267488
-0.0121066
0.0314448
-0.0115031
0.0358612
-0.0107899
0.0399466
-0.00995873
0.0436471
-0.00899528
0.0469083
-0.00787998
0.0496776
-0.0065896
0.0519085
-0.00509851
0.0535645
-0.00338005
0.0546172
-0.00140718
0.0550179
0.000852871
0.0546238
0.00344582
0.0531577
0.00638762
0.0502999
0.00954197
0.0458431
0.0125455
0.0398507
0.0149276
0.0327421
0.0163051
0.0250863
0.0166175
0.0173227
0.0162098
0.00966549
0.0155639
0.00213306
0.0150735
-0.00536699
0.0149549
-0.0129512
0.0152546
-0.0206761
0.0158568
-0.028449
0.0164671
-0.0359579
0.0166359
-0.0426878
0.0159073
-0.0480891
0.0140774
-0.0518894
0.0113898
-0.0541569
0.00827599
-0.0551649
0.00518914
-0.0552316
0.00239823
-0.0545814
-4.0511e-05
-0.0533087
-0.00216691
-0.0514475
-0.00402212
-0.0490276
-0.005636
-0.0460895
-0.0070356
-0.0426818
-0.00824755
-0.0388573
-0.00929671
-0.0346697
-0.0102049
-0.030171
-0.0109898
-0.0254108
-0.0116634
-0.0204362
-0.0122311
-0.0152921
-0.0126925
-0.0100222
-0.0130428
-0.00467032
-0.0132754
-0.0133848
0.006385
-0.0189997
0.0119527
-0.0187929
0.0174002
-0.0184079
0.0226715
-0.0178513
0.0277114
-0.0171297
0.032465
-0.0162476
0.0368789
-0.0152054
0.0409016
-0.0139978
0.0444849
-0.0126145
0.0475849
-0.0110409
0.0501629
-0.00925935
0.0521866
-0.00725085
0.0536297
-0.00499471
0.0544693
-0.00246681
0.05468
0.000366987
0.0542333
0.00355461
0.0530985
0.00712532
0.0511919
0.0110273
0.0482401
0.0151201
0.043791
0.019114
0.0376084
0.0223902
0.0299718
0.0242987
0.0215223
0.0247766
0.0127733
0.0244288
0.00396333
0.0239473
-0.00484713
0.0237548
-0.0136489
0.0239751
-0.022369
0.0244541
-0.0307424
0.0247348
-0.0382284
0.0241099
-0.0442006
0.0220222
-0.0484407
0.0186168
-0.0512297
0.0145757
-0.0530149
0.010482
-0.0540413
0.00659922
-0.0543807
0.00305886
-0.0540627
-9.8267e-05
-0.053116
-0.00290671
-0.0515653
-0.00541275
-0.0494343
-0.00764831
-0.0467501
-0.00963629
-0.0435467
-0.0113968
-0.0398642
-0.0129485
-0.0357482
-0.0143084
-0.0312483
-0.0154908
-0.0264175
-0.0165052
-0.0213106
-0.0173561
-0.0159835
-0.0180427
-0.0104926
-0.0185599
-0.00489479
-0.0189015
0.000752789
-0.0190616
0.00639271
-0.019037
0.0119676
-0.0188281
0.0174204
-0.0184391
0.0226944
-0.0178761
0.0277332
-0.0171454
0.0324811
-0.0162511
0.0368837
-0.0151925
0.0408889
-0.0139639
0.044448
-0.0125543
0.0475166
-0.0109486
0.0500563
-0.00912929
0.052035
-0.00707719
0.0534268
-0.00477185
0.0542084
-0.00218881
0.0543538
0.000707511
0.0538343
0.0039653
0.0526169
0.00760503
0.0505987
0.0115601
0.0474686
0.0156756
0.042777
0.0196191
0.0363561
0.022726
0.0285679
0.0244057
0.0200605
0.0247171
0.0113032
0.0243212
0.00249662
0.0238801
-0.00631471
0.0237662
-0.0151193
0.0240592
-0.0238223
0.0245598
-0.0321165
0.0247612
-0.0394226
0.0239419
-0.0451464
0.0216311
-0.0491561
0.0180871
-0.0517874
0.0140211
-0.0534719
0.00996045
-0.0544191
0.0061363
-0.0546876
0.00266676
-0.0543063
-0.000421814
-0.0533033
-0.00316989
-0.0517029
-0.00562254
-0.0495285
-0.00781044
-0.0468077
-0.0097564
-0.0435746
-0.0114806
-0.0398695
-0.0130018
-0.0357375
-0.0143369
-0.0312278
-0.0154995
-0.0263924
-0.0164987
-0.0212854
-0.0173382
-0.0159616
-0.0180163
-0.0104765
-0.0185278
-0.0048862
-0.0188658
-0.0190242
0.00644093
-0.0246806
0.0120473
-0.0243992
0.0175139
-0.0238746
0.0227769
-0.0231144
0.0277744
-0.0221271
0.0324466
-0.0209199
0.0367378
-0.0194966
0.0405966
-0.0178566
0.0439767
-0.0159947
0.0468381
-0.0139022
0.0491458
-0.0115671
0.0508705
-0.00897553
0.0519872
-0.00611138
0.0524755
-0.0029551
0.0523238
0.000518609
0.0515401
0.00433829
0.0501507
0.00851472
0.0481639
0.0130142
0.0455225
0.0177614
0.0420309
0.0226056
0.037229
0.0271921
0.0306797
0.030848
0.0225803
0.0328759
0.0135996
0.0334095
0.00425445
0.0332925
-0.00517704
0.0331863
-0.0144923
0.0332904
-0.0233954
0.0333571
-0.0313407
0.0326801
-0.0376776
0.0304468
-0.0422884
0.026633
-0.0456489
0.0219773
-0.0481892
0.017116
-0.050083
0.0123758
-0.0513774
0.00789363
-0.0520593
0.0037408
-0.0521035
-5.41464e-05
-0.0515049
-0.00350528
-0.0502769
-0.00664073
-0.0484409
-0.00948432
-0.0460228
-0.0120544
-0.0430533
-0.0143663
-0.0395686
-0.0164331
-0.0356108
-0.0182662
-0.0312279
-0.0198737
-0.0264731
-0.0212601
-0.0214041
-0.0224251
-0.016082
-0.0233647
-0.0105705
-0.0240715
-0.00493474
-0.0245373
0.000758999
-0.0247553
0.00644382
-0.0247218
0.0120529
-0.0244372
0.0175203
-0.0239064
0.022781
-0.0231369
0.0277722
-0.0221366
0.0324334
-0.0209123
0.0367081
-0.0194671
0.0405442
-0.0178001
0.0438954
-0.0159056
0.0467213
-0.0137745
0.048987
-0.011395
0.0506633
-0.00875345
0.0517253
-0.00583387
0.0521532
-0.00261677
0.0519375
0.000923269
0.0510893
0.0048135
0.0496354
0.00905888
0.0475773
0.0136182
0.0448435
0.0184094
0.0412045
0.0232582
0.0361634
0.0277671
0.0293546
0.0312145
0.0210854
0.0329862
0.0120315
0.0333752
0.00266332
0.0332483
-0.00676504
0.0331946
-0.0160475
0.0333416
-0.024856
0.0333683
-0.0326012
0.0325064
-0.0386724
0.0300132
-0.0430666
0.0260253
-0.046299
0.0213195
-0.0487546
0.0164768
-0.05058
0.0117858
-0.0518103
0.00736658
-0.0524274
0.00328395
-0.0524081
-0.000441185
-0.0517504
-0.00382752
-0.0504693
-0.00690369
-0.0485864
-0.00969337
-0.0461278
-0.012215
-0.0431243
-0.014484
-0.0396122
-0.0165139
-0.0356333
-0.0183158
-0.0312352
-0.0198977
-0.0264705
-0.0212634
-0.0213962
-0.0224125
-0.0160726
-0.0233399
-0.0105624
-0.024038
-0.00492975
-0.0244984
-0.0247139
0.0063202
-0.0302549
0.0118126
-0.0298916
0.0171521
-0.0292141
0.0222698
-0.0282321
0.0270998
-0.0269571
0.0315802
-0.0254004
0.0356544
-0.0235708
0.0392719
-0.0214741
0.0423887
-0.0191115
0.0449674
-0.0164809
0.046977
-0.0135766
0.0483918
-0.0103904
0.0491919
-0.00691144
0.0493634
-0.00312659
0.0489032
0.000978855
0.047825
0.00541641
0.0461596
0.0101801
0.0439414
0.0152324
0.0411972
0.0205057
0.0379052
0.0258976
0.0338722
0.0312251
0.0286315
0.0360888
0.0217285
0.0397789
0.0133743
0.0417637
0.00423198
0.0424348
-0.00512533
0.0425436
-0.0142074
0.0423724
-0.022425
0.0415747
-0.0291321
0.0393872
-0.0341983
0.0355131
-0.0381165
0.0305511
-0.0413244
0.0251852
-0.0439894
0.019781
-0.0461228
0.0145092
-0.0476962
0.00946699
-0.0486746
0.00471926
-0.0490291
0.000300273
-0.048748
-0.00378634
-0.0478365
-0.00755227
-0.0463094
-0.0110114
-0.0441882
-0.0141757
-0.0414995
-0.0170549
-0.0382762
-0.0196565
-0.0345573
-0.0219851
-0.0303889
-0.0240421
-0.0258237
-0.0258252
-0.0209206
-0.0273283
-0.0157432
-0.0285421
-0.0103592
-0.0294554
-0.0048392
-0.0300573
0.00074434
-0.0303389
0.00631809
-0.0302955
0.0118089
-0.029928
0.0171446
-0.0292422
0.0222554
-0.0282477
0.0270746
-0.0269558
0.0315395
-0.0253772
0.035593
-0.0235206
0.0391841
-0.0213911
0.0422685
-0.01899
0.0448089
-0.0163149
0.0467742
-0.0133603
0.048139
-0.0101183
0.0488836
-0.00657849
0.0489952
-0.00272832
0.0484724
0.00144607
0.0473319
0.00595401
0.0456058
0.0107849
0.0433284
0.0158956
0.0405236
0.0212142
0.0371526
0.0266292
0.032983
0.0319368
0.027511
0.0366865
0.0203564
0.0401407
0.0118409
0.0418908
0.00263509
0.042454
-0.00671287
0.0425425
-0.0157084
0.0423372
-0.0237349
0.0413948
-0.030183
0.0389545
-0.0350425
0.0348727
-0.0388439
0.0298267
-0.0419806
0.0244562
-0.044586
0.0190822
-0.0466599
0.0138597
-0.0481721
0.00887877
-0.0490878
0.00419966
-0.04938
-0.000148982
-0.0490399
-0.0041676
-0.0480741
-0.00786947
-0.0464984
-0.0112691
-0.0443342
-0.0143791
-0.0416086
-0.0172096
-0.0383543
-0.0197683
-0.0346103
-0.0220598
-0.0304224
-0.0240855
-0.0258429
-0.0258429
-0.02093
-0.0273254
-0.0157465
-0.0285234
-0.0103593
-0.0294252
-0.00483801
-0.0300197
-0.0302979
0.00605468
-0.0355948
0.0113085
-0.0351455
0.0164019
-0.0343075
0.0212634
-0.0330935
0.0258254
-0.0315191
0.0300259
-0.0296009
0.033809
-0.0273539
0.0371259
-0.0247909
0.0399352
-0.0219208
0.0422027
-0.0187485
0.0439013
-0.0152752
0.0450101
-0.0114992
0.0455145
-0.00741584
0.0454076
-0.00301967
0.0446929
0.00169355
0.0433879
0.00672138
0.0415233
0.0120448
0.0391357
0.0176199
0.036263
0.0233783
0.0329354
0.0292252
0.0291325
0.035028
0.0246551
0.0405662
0.0190491
0.0453848
0.0119995
0.0488134
0.00385355
0.0505808
-0.00464276
0.0510399
-0.0126999
0.0504296
-0.0195919
0.0484666
-0.025042
0.0448373
-0.0294158
0.039887
-0.0331471
0.0342824
-0.0364075
0.0284455
-0.0392075
0.022581
-0.0415148
0.0168165
-0.0432914
0.0112436
-0.0445009
0.00592871
-0.0451138
0.000913209
-0.0451146
-0.00378554
-0.0445014
-0.0081655
-0.0432824
-0.0122303
-0.0414735
-0.0159846
-0.039097
-0.0194314
-0.0361818
-0.0225717
-0.032764
-0.0254029
-0.0288871
-0.0279189
-0.0246023
-0.03011
-0.0199677
-0.0319629
-0.0150476
-0.0334622
-0.00991161
-0.0345915
-0.0046329
-0.035336
0.000712621
-0.0356844
0.00604785
-0.0356308
0.0112959
-0.035176
0.0163814
-0.0343277
0.021232
-0.0330983
0.0257795
-0.0315033
0.029961
-0.0295588
0.0337203
-0.0272799
0.0370081
-0.024679
0.039783
-0.0217649
0.0420108
-0.0185427
0.0436644
-0.0150139
0.0447232
-0.0111771
0.0451732
-0.00702852
0.0450086
-0.00256365
0.0442344
0.00222022
0.0428704
0.00731803
0.0409486
0.0127067
0.0385061
0.0183381
0.035581
0.0241394
0.0321994
0.0300107
0.0283246
0.0358116
0.023715
0.0412962
0.0178947
0.0459611
0.0106374
0.0491481
0.00238622
0.0507052
-0.00609382
0.0510226
-0.0140137
0.0502571
-0.0206842
0.0480653
-0.0259381
0.0442084
-0.0302001
0.0391346
-0.0338676
0.0334942
-0.0370752
0.0276638
-0.0398221
0.0218291
-0.0420739
0.0161115
-0.0437927
0.0105976
-0.0449427
0.00534967
-0.0454963
0.000404603
-0.04544
-0.00422396
-0.0447733
-0.00853615
-0.0435054
-0.012537
-0.0416527
-0.0162319
-0.0392376
-0.0196247
-0.0362893
-0.0227166
-0.0328436
-0.0255055
-0.028944
-0.0279851
-0.0246413
-0.0301457
-0.019993
-0.0319737
-0.0150629
-0.0334535
-0.00991954
-0.0345686
-0.00463536
-0.0353039
-0.035648
0.00567191
-0.040597
0.0105864
-0.04006
0.0153378
-0.0390588
0.019854
-0.0376097
0.0240681
-0.0357331
0.0279189
-0.0334517
0.0313526
-0.0307877
0.0343233
-0.0277616
0.0367929
-0.0243903
0.0387312
-0.0206867
0.0401155
-0.0166595
0.0409301
-0.0123138
0.0411664
-0.00765215
0.0408236
-0.00267694
0.0399107
0.00260654
0.0384474
0.00818461
0.0364644
0.0140278
0.0339986
0.0200857
0.0310909
0.026286
0.027782
0.0325342
0.0241002
0.0387098
0.020017
0.0446494
0.0153353
0.0500666
0.00971806
0.0544306
0.00315457
0.0571443
-0.00377544
0.05797
-0.0102535
0.0569077
-0.0157538
0.0539669
-0.0203467
0.0494302
-0.02437
0.0439103
-0.0279978
0.0379102
-0.0312478
0.0316955
-0.034089
0.0254222
-0.0364804
0.0192079
-0.0383813
0.0131445
-0.0397551
0.00730253
-0.0405725
0.00173057
-0.0408148
-0.00354319
-0.0404748
-0.00850551
-0.0395546
-0.0131506
-0.0380639
-0.0174752
-0.0360202
-0.0214752
-0.0334478
-0.0251441
-0.030379
-0.0284717
-0.026854
-0.0314439
-0.0229212
-0.0340428
-0.018637
-0.0362472
-0.0140647
-0.0380345
-0.0092734
-0.0393827
-0.00433714
-0.0402723
0.000667123
-0.0406887
0.00566091
-0.0406245
0.010566
-0.0400811
0.015306
-0.0390677
0.0198081
-0.0376005
0.0240046
-0.0356997
0.0278339
-0.0333881
0.0312418
-0.0306878
0.034182
-0.0276191
0.0366163
-0.0241992
0.0385147
-0.0204411
0.0398548
-0.0163539
0.0406211
-0.0119434
0.0408057
-0.00721318
0.040409
-0.00216688
0.039441
0.00318822
0.0379234
0.00883563
0.0358879
0.0147422
0.0333725
0.0208535
0.0304183
0.0270935
0.0270654
0.0333637
0.0233379
0.0395391
0.0191892
0.0454449
0.0143875
0.0507628
0.00860873
0.0549268
0.00193778
0.0573761
-0.00497415
0.0579345
-0.0113204
0.0566034
-0.0166629
0.0534077
-0.0211528
0.0486983
-0.025119
0.0431008
-0.0287025
0.0370777
-0.0319079
0.0308692
-0.0347018
0.0246231
-0.0370427
0.0184524
-0.0388905
0.0124454
-0.0402095
0.00666867
-0.0409718
0.00116689
-0.0411604
-0.00403529
-0.0407694
-0.00892718
-0.0398017
-0.0135047
-0.0382678
-0.0177658
-0.0361852
-0.0217073
-0.0335786
-0.0253232
-0.0304803
-0.0286038
-0.0269304
-0.031535
-0.0229771
-0.034099
-0.0186762
-0.0362746
-0.0140904
-0.0380393
-0.00928827
-0.0393707
-0.00434287
-0.0402493
-0.0406605
0.00519425
-0.0451778
0.00968809
-0.0445538
0.0140204
-0.0433912
0.0181205
-0.0417099
0.0219233
-0.0395359
0.0253703
-0.0368986
0.0284108
-0.0338282
0.0310025
-0.0303533
0.0331114
-0.0264993
0.034712
-0.0222874
0.0357867
-0.0177342
0.0363252
-0.0128523
0.036325
-0.00765191
0.0357911
-0.00214302
0.0347371
0.00366046
0.0331862
0.00973554
0.0311698
0.0160442
0.0287259
0.0225296
0.0258974
0.0291145
0.022731
0.0357005
0.0192743
0.0421665
0.0155645
0.0483592
0.0115828
0.0540482
0.00719816
0.0588153
0.00232712
0.0620153
-0.00276056
0.0630576
-0.00758305
0.0617302
-0.0119121
0.058296
-0.0158532
0.0533712
-0.0195266
0.0475837
-0.0229414
0.041325
-0.0260578
0.0348118
-0.0288279
0.0281924
-0.0312054
0.0215854
-0.0331477
0.0150868
-0.0346173
0.00877219
-0.0355838
0.002697
-0.0360251
-0.00310183
-0.0359289
-0.00860168
-0.0352914
-0.0137881
-0.0341166
-0.01865
-0.0324162
-0.0231756
-0.0302096
-0.0273506
-0.0275246
-0.0311568
-0.0243972
-0.0345713
-0.0208723
-0.0375677
-0.0170031
-0.0401164
-0.0128503
-0.0421873
-0.00848151
-0.0437515
-0.0039692
-0.0447846
0.00061051
-0.0452684
0.00517983
-0.0451939
0.00966125
-0.0445625
0.0139794
-0.0433859
0.018063
-0.041684
0.0218461
-0.0394829
0.02527
-0.0368119
0.0282835
-0.0337013
0.0308443
-0.0301799
0.0329184
-0.0262733
0.0344803
-0.022003
0.0355128
-0.0173864
0.0360061
-0.0124368
0.0359584
-0.00716541
0.0353755
-0.00158403
0.0342724
0.00429128
0.0326735
0.0104346
0.0306113
0.0168044
0.0281248
0.0233401
0.0252576
0.0299606
0.022057
0.0365643
0.0185702
0.0430259
0.0148302
0.0491849
0.0108021
0.0547909
0.00634266
0.0593863
0.00141009
0.0623087
-0.00366648
0.0630111
-0.00841691
0.0613538
-0.0126774
0.0576682
-0.0165785
0.0525993
-0.0202226
0.046745
-0.0236065
0.0404615
-0.0266874
0.0339501
-0.0294177
0.0273534
-0.0317516
0.0207862
-0.0336473
0.0143411
-0.0350684
0.00808976
-0.0359855
0.00208394
-0.036378
-0.00364278
-0.0362347
-0.00907052
-0.0355525
-0.0141869
-0.0343362
-0.0189821
-0.0325979
-0.0234456
-0.0303573
-0.0275638
-0.0276422
-0.0313189
-0.0244888
-0.0346885
-0.0209415
-0.0376462
-0.0170534
-0.0401628
-0.0128847
-0.042208
-0.00850213
-0.0437532
-0.00397767
-0.0447737
-0.0452516
0.00464007
-0.0492698
0.00864786
-0.0485616
0.0124996
-0.0472429
0.0161276
-0.0453378
0.0194699
-0.0428783
0.022472
-0.0399007
0.0250873
-0.0364435
0.0272779
-0.0325439
0.0290147
-0.0282361
0.0302773
-0.02355
0.0310534
-0.0185103
0.0313386
-0.0131375
0.0311361
-0.00744936
0.0304565
-0.0014635
0.0293187
0.00479831
0.0277492
0.011305
0.0257823
0.0180112
0.0234584
0.0248535
0.0208243
0.0317486
0.0179328
0.038592
0.0148444
0.0452549
0.011627
0.0515766
0.00834274
0.0573325
0.00500809
0.06215
0.00159301
0.0654304
-0.00186701
0.0665177
-0.00527136
0.0651346
-0.00859563
0.0616202
-0.0118687
0.0566443
-0.0150671
0.0507822
-0.0181263
0.0443842
-0.0209787
0.0376642
-0.0235648
0.0307785
-0.0258323
0.0238528
-0.0277351
0.0169896
-0.0292333
0.0102704
-0.0302935
0.00375724
-0.0308901
-0.00250531
-0.0310054
-0.0084864
-0.0306298
-0.0141637
-0.0297616
-0.0195182
-0.0284068
-0.0245304
-0.0265793
-0.0291781
-0.0243018
-0.0334343
-0.0216055
-0.0372676
-0.0185309
-0.0406423
-0.0151269
-0.0435204
-0.0114507
-0.0458635
-0.00756622
-0.047636
-0.00354321
-0.0488076
0.000544958
-0.0493565
0.00462308
-0.049272
0.00861624
-0.0485556
0.0124518
-0.0472215
0.0160616
-0.0452937
0.0193831
-0.0428044
0.0223613
-0.0397902
0.0249496
-0.0362896
0.0271099
-0.0323402
0.0288133
-0.0279767
0.0300395
-0.0232293
0.0307767
-0.0181236
0.031021
-0.012681
0.0307762
-0.00692066
0.0300541
-0.000861927
0.0288744
0.00547104
0.0272648
0.0120442
0.0252606
0.0188086
0.0229035
0.0256972
0.0202409
0.0326232
0.0173272
0.039478
0.0142241
0.046129
0.0110004
0.0524087
0.00771415
0.0580771
0.00437172
0.0627287
0.000945247
0.0657352
-0.00251243
0.0664687
-0.00590463
0.064746
-0.00922345
0.0609871
-0.0124942
0.0558701
-0.0156841
0.049935
-0.0187264
0.0435038
-0.0215548
0.0367785
-0.0241111
0.0299097
-0.0263441
0.0230192
-0.0282087
0.0162057
-0.0296661
0.00954715
-0.030684
0.00310183
-0.0312378
-0.00308901
-0.0313109
-0.00899736
-0.0308948
-0.014603
-0.0299881
-0.0198887
-0.0285974
-0.0248362
-0.0267372
-0.029424
-0.02443
-0.033626
-0.0217075
-0.0374111
-0.0186097
-0.040744
-0.0151854
-0.043587
-0.0114914
-0.045902
-0.00759122
-0.0476534
-0.00355381
-0.0488112
-0.0493536
0.00402415
-0.0528185
0.00749339
-0.0520308
0.0108156
-0.0505651
0.0139274
-0.0484497
0.0167717
-0.0457226
0.0192986
-0.0424276
0.0214666
-0.0386115
0.0232431
-0.0343203
0.0246042
-0.0295972
0.0255349
-0.0244806
0.0260284
-0.0190039
0.0260862
-0.0131953
0.025717
-0.00708013
0.024937
-0.000683515
0.0237698
0.00596546
0.0222464
0.0128285
0.0204043
0.0198533
0.0182877
0.0269701
0.0159473
0.034089
0.013442
0.0410973
0.0108405
0.0478565
0.00822421
0.0541929
0.00568305
0.0598736
0.00328512
0.0645479
0.00102554
0.06769
-0.00118151
0.0687247
-0.00345154
0.0674046
-0.00586332
0.064032
-0.00841179
0.0591928
-0.0110237
0.0533941
-0.0136091
0.0469695
-0.0160877
0.0401429
-0.0183919
0.0330828
-0.0204638
0.0259248
-0.0222534
0.0187791
-0.0237171
0.0117341
-0.024818
0.00485814
-0.0255261
-0.00179723
-0.0258187
-0.00819374
-0.0256809
-0.0143016
-0.0251049
-0.0200941
-0.0240911
-0.0255442
-0.022648
-0.0306212
-0.0207925
-0.0352897
-0.0185508
-0.0395093
-0.015958
-0.0432352
-0.0130578
-0.0464205
-0.00990268
-0.0490187
-0.00655187
-0.0509868
-0.00307055
-0.0522889
0.00047222
-0.0528993
0.00400552
-0.0528053
0.0074587
-0.0520088
0.0107636
-0.0505263
0.0138563
-0.0483865
0.0166794
-0.0456275
0.0191826
-0.0422935
0.0213245
-0.0384314
0.0230723
-0.034088
0.0244023
-0.0293067
0.0252999
-0.0241269
0.0257589
-0.0185825
0.025781
-0.0127032
0.0253759
-0.00651555
0.0245607
-4.67067e-05
0.0233599
0.0066718
0.0218055
0.0135986
0.0199363
0.0206779
0.0177972
0.0278363
0.0154405
0.0349799
0.0129263
0.0419921
0.0103256
0.0487298
0.00772174
0.0550125
0.00520445
0.0605944
0.00283378
0.0650994
0.000590817
0.0679781
-0.00161897
0.0686785
-0.00390967
0.0670367
-0.00634909
0.0634265
-0.00891874
0.0584397
-0.0115398
0.052556
-0.0141231
0.0460871
-0.0165907
0.0392461
-0.0188768
0.0321958
-0.0209249
0.0250673
-0.022686
0.0179668
-0.0241178
0.010979
-0.0251845
0.00416845
-0.0258569
-0.00241657
-0.0261135
-0.00874074
-0.02594
-0.0147765
-0.0253296
-0.0204991
-0.0242831
-0.0258828
-0.0228093
-0.0308978
-0.0209257
-0.0355096
-0.0186583
-0.0396784
-0.0160423
-0.04336
-0.0131214
-0.0465079
-0.00994762
-0.0490759
-0.0065798
-0.0510212
-0.00308261
-0.0523083
-0.0529117
0.00335838
-0.0557799
0.00624691
-0.0549194
0.00900062
-0.0533188
0.011562
-0.0510111
0.0138798
-0.0480403
0.0159099
-0.0444578
0.0176167
-0.0403183
0.0189731
-0.0356767
0.019961
-0.0305851
0.0205709
-0.0250905
0.0208016
-0.0192345
0.0206597
-0.0130534
0.0201595
-0.00657991
0.0193222
0.000153761
0.0181761
0.00711158
0.016756
0.0142486
0.015103
0.0215063
0.0132643
0.0288088
0.0112938
0.0360594
0.00925318
0.0431379
0.00721359
0.0498961
0.00525673
0.0561497
0.00346998
0.0616604
0.00191875
0.0660991
0.000587596
0.0690211
-0.000657548
0.0699698
-0.00200689
0.0687539
-0.00358248
0.0656076
-0.00538773
0.060998
-0.0073521
0.0553584
-0.00938789
0.0490053
-0.0114143
0.0421693
-0.0133613
0.0350297
-0.0151679
0.0277314
-0.016781
0.0203922
-0.018154
0.0131071
-0.0192463
0.0059505
-0.020024
-0.00101959
-0.0204596
-0.00775814
-0.0205329
-0.0142282
-0.020231
-0.020396
-0.0195486
-0.0262266
-0.0184887
-0.0316812
-0.0170626
-0.0367158
-0.0152907
-0.0412812
-0.0132023
-0.0453236
-0.0108353
-0.0487875
-0.00823602
-0.0516179
-0.00545795
-0.0537649
-0.00256032
-0.0551865
0.000393696
-0.0558533
0.00333901
-0.0557506
0.00621085
-0.0548806
0.00894687
-0.0532623
0.0114892
-0.0509288
0.0137862
-0.0479245
0.0157937
-0.044301
0.017476
-0.0401137
0.0188062
-0.0354181
0.0197663
-0.0302668
0.0203472
-0.0247078
0.0205483
-0.0187836
0.0203769
-0.0125318
0.019848
-0.00598658
0.0189836
0.000817697
0.0178129
0.00784247
0.0163718
0.0150397
0.0147023
0.0223473
0.0128528
0.0296857
0.0108784
0.0369543
0.00884228
0.0440283
0.00681724
0.0507548
0.00488678
0.056943
0.00313771
0.0623435
0.00162739
0.0666097
0.000322404
0.0692831
-0.000927172
0.0699281
-0.00230861
0.0684182
-0.00392566
0.0650435
-0.00576594
0.06028
-0.00775342
0.0545435
-0.00980087
0.0481346
-0.0118293
0.0412746
-0.0137704
0.0341368
-0.0155645
0.0268614
-0.0171598
0.0195621
-0.0185106
0.0123298
-0.0195776
0.00523537
-0.0203274
-0.00166671
-0.0207338
-0.00833433
-0.0207774
-0.014733
-0.0204458
-0.0208307
-0.0197346
-0.026594
-0.0186471
-0.0319853
-0.0171951
-0.0369617
-0.0153991
-0.0414745
-0.0132883
-0.0454707
-0.0109009
-0.0488953
-0.00828288
-0.0516939
-0.00548735
-0.0538168
-0.00257318
-0.0552225
-0.0558818
0.00265229
-0.0581186
0.00492623
-0.0571933
0.00708069
-0.0554732
0.00906526
-0.0529957
0.0108355
-0.0498106
0.0123541
-0.0459764
0.0135919
-0.041556
0.0145279
-0.0366127
0.0151497
-0.031207
0.0154535
-0.0253942
0.015443
-0.0192241
0.0151301
-0.0127405
0.0145336
-0.0059834
0.0136791
0.00100824
0.0125988
0.00819192
0.0113306
0.0155168
0.00991817
0.0229187
0.00841039
0.0303166
0.00686189
0.0376079
0.00533339
0.0446664
0.00389204
0.0513374
0.00261013
0.0574317
0.00155734
0.0627132
0.000775215
0.0668812
0.000227518
0.0695688
-0.000231297
0.0704287
-0.000798411
0.069321
-0.00160828
0.0664175
-0.00268594
0.0620757
-0.00398445
0.056657
-0.00543284
0.0504537
-0.00695906
0.0436955
-0.00849653
0.0365672
-0.00998514
0.02922
-0.0113708
0.0217779
-0.0126051
0.0143413
-0.0136449
0.00699035
-0.0144529
-0.000211555
-0.0149978
-0.00721323
-0.0152549
-0.0139712
-0.0152065
-0.0204445
-0.0148421
-0.0265909
-0.0141595
-0.0323638
-0.0131644
-0.0377109
-0.0118712
-0.0425744
-0.0103028
-0.046892
-0.00849076
-0.0505996
-0.00647437
-0.0536343
-0.00430003
-0.0559392
-0.00201978
-0.0574668
0.000310504
-0.0581836
0.00263307
-0.0580732
0.00489045
-0.057138
0.00702761
-0.0553995
0.00899385
-0.0528951
0.0107446
-0.0496752
0.0122424
-0.0457988
0.0134581
-0.0413294
0.014371
-0.036331
0.0149691
-0.0308649
0.0152487
-0.0249874
0.0152144
-0.0187494
0.0148787
-0.012196
0.014261
-0.00536892
0.013388
0.00169076
0.0122925
0.00893794
0.0110135
0.0163186
0.00959554
0.0237653
0.00808844
0.0311928
0.00654788
0.0384948
0.00503569
0.0455405
0.00362011
0.0521704
0.00237397
0.0581891
0.00136508
0.0633523
0.000626662
0.0673481
0.000105856
0.0698039
-0.000357476
0.0703914
-0.000957815
0.0690185
-0.00181279
0.0658985
-0.00293265
0.0613999
-0.00426428
0.0558751
-0.00573581
0.0496061
-0.00727597
0.0428148
-0.00881932
0.0356802
-0.0103068
0.0283489
-0.0116854
0.0209407
-0.0129075
0.013552
-0.0139311
0.00625898
-0.0147197
-0.000878147
-0.0152428
-0.00781122
-0.0154766
-0.0144992
-0.015404
-0.0209032
-0.0150155
-0.0269825
-0.014309
-0.0326917
-0.013291
-0.0379798
-0.0119759
-0.0427896
-0.0103869
-0.0470597
-0.00855551
-0.0507267
-0.00652098
-0.0537284
-0.00432951
-0.0560082
-0.0020328
-0.0575192
-0.0582281
0.00191367
-0.0598059
0.00354593
-0.0588256
0.00507691
-0.0570042
0.00646447
-0.0543832
0.00767211
-0.0510182
0.00867003
-0.0469743
0.00943592
-0.0423219
0.0099553
-0.0371321
0.0102216
-0.0314733
0.0102361
-0.0254087
0.0100075
-0.0189955
0.00955175
-0.0122848
0.00889164
-0.00532329
0.00805617
0.00184371
0.00708019
0.00916791
0.00600365
0.0165933
0.00487106
0.0240513
0.00373111
0.0314565
0.00263643
0.0387026
0.00164308
0.0456598
0.000809403
0.0521711
0.000192622
0.0580484
-0.000160565
0.0630664
-0.000236153
0.0669568
-8.88086e-05
0.0694215
0.000139881
0.0702
0.000268885
0.069192
0.000165249
0.0665211
-0.000216333
0.0624573
-0.000856478
0.0572971
-0.00170639
0.0513036
-0.00270829
0.0446974
-0.00380386
0.0376628
-0.00493729
0.0303534
-0.00605625
0.0228969
-0.0071124
0.0153975
-0.00806161
0.00793957
-0.00886445
0.000591285
-0.00948674
-0.00659094
-0.00990029
-0.0135576
-0.0100834
-0.0202614