/*--------------------------------*- C++ -*----------------------------------*\
| =========                 |                                                 |
| \\      /  F ield         | OpenFOAM: The Open Source CFD Toolbox           |
|  \\    /   O peration     | Version:  2.3.0                                 |
|   \\  /    A nd           | Web:      www.OpenFOAM.org                      |
|    \\/     M anipulation  |                                                 |
\*---------------------------------------------------------------------------*/
FoamFile
{
    version     2.0;
    format      ascii;
    class       volScalarField;
    location    "16000";
    object      T;
}
// * * * * * * * * * * * * * * * * * * * * * * * * * * * * * * * * * * * * * //

dimensions      [0 0 0 1 0 0 0];

internalField   nonuniform List<scalar> 
765
(
31.4903
31.6145
31.8319
32.131
32.502
32.9355
33.4106
33.8462
34.2707
34.6792
35.0449
35.3212
35.4457
35.3645
35.1169
34.7671
34.3657
33.9441
33.5105
33.0404
32.5954
32.2092
31.8927
31.6551
31.5075
31.4642
31.5368
31.7094
31.9687
32.3042
32.7067
33.1626
33.6219
34.0534
34.4722
34.8644
35.1935
35.4046
35.4327
35.2628
34.9582
34.5777
34.163
33.7343
33.2864
32.8203
32.4019
32.0484
31.7689
31.5737
31.4752
23.158
23.4529
23.9669
24.6718
25.5466
26.5743
27.7324
28.9724
30.2055
31.3799
32.4155
33.1988
33.562
33.3233
32.618
31.63
30.4802
29.2604
28.0278
26.8297
25.7667
24.8548
24.1087
23.5476
23.1974
23.094
23.2671
23.676
24.288
25.0789
26.0307
27.1273
28.3443
29.5799
30.7877
31.9064
32.8348
33.4399
33.5232
33.032
32.1714
31.0905
29.897
28.6599
27.4293
26.3011
25.3106
24.4772
23.8181
23.3562
23.1217
17.2525
17.6499
18.339
19.2774
20.4357
21.7972
23.3512
25.0801
26.904
28.7033
30.3006
31.4994
32.0536
31.6886
30.6105
29.0867
27.3164
25.4867
23.7286
22.1312
20.7245
19.5185
18.5272
17.7762
17.3046
17.1652
17.3988
17.9487
18.7662
19.8157
21.0748
22.532
24.1779
25.9614
27.7894
29.5147
30.9431
31.8667
31.9943
31.245
29.9247
28.2571
26.4383
24.6312
22.9415
21.4348
20.1238
19.0191
18.1402
17.5199
17.2037
13.5332
14.0022
14.8089
15.8911
17.2054
18.7334
20.4792
22.4588
24.6095
26.7774
28.7356
30.2065
30.8731
30.4355
29.1163
27.242
25.0989
22.9276
20.8983
19.1039
17.529
16.1659
15.0274
14.151
13.5951
13.4309
13.7066
14.3538
15.3043
16.5044
17.9232
19.5545
21.4087
23.4866
25.6687
27.7666
29.5259
30.6507
30.8031
29.8964
28.272
26.2358
24.0546
21.9365
20.0175
18.3281
16.8539
15.5956
14.5778
13.8494
13.4759
11.3371
11.8804
12.8061
14.0215
15.4577
17.0842
18.9129
20.9884
23.256
25.5607
27.6596
29.2343
29.9322
29.4767
28.0673
26.0558
23.772
21.4776
19.3457
17.4726
15.8056
14.3265
13.0557
12.0543
11.4108
11.2214
11.5405
12.2883
13.3688
14.6988
16.2278
17.9473
19.887
22.0693
24.3786
26.6186
28.5072
29.7032
29.8608
28.9041
27.1619
24.9833
22.6698
20.4412
18.4321
16.6573
15.0785
13.6936
12.5432
11.7041
11.2713
10.0284
10.6641
11.7391
13.1203
14.7003
16.4245
18.2986
20.3787
22.6201
24.8892
26.9518
28.4879
29.1537
28.7216
27.3509
25.3756
23.1281
20.8647
18.7408
16.8297
15.077
13.4634
12.0291
10.8706
10.1178
9.89756
10.2702
11.144
12.3874
13.8763
15.528
17.3192
19.285
21.451
23.7265
25.93
27.7817
28.9391
29.0877
28.1683
26.4641
24.3218
22.0434
19.8366
17.8127
15.9795
14.29
12.7526
11.4365
10.4585
9.95231
9.16332
9.90969
11.1656
12.7515
14.5142
16.364
18.2859
20.3219
22.4506
24.5725
26.4816
27.8861
28.4827
28.0974
26.8485
25.0245
22.9285
20.7897
18.7316
16.7905
14.9284
13.1431
11.5056
10.156
9.27189
9.0149
9.45126
10.4768
11.9195
13.6073
15.4162
17.296
19.2656
21.3482
23.4897
25.5395
27.2443
28.2938
28.4255
27.5968
26.033
24.0452
21.9081
19.8003
17.7971
15.8954
14.0638
12.3343
10.8145
9.66877
9.07497
8.47938
9.34636
10.7981
12.6081
14.5772
16.579
18.5666
20.5375
22.5096
24.4214
26.1106
27.3386
27.8577
27.5227
26.4329
24.8244
22.9453
20.9789
19.0094
17.032
15.0354
13.0538
11.1926
9.63596
8.60915
8.31142
8.81798
10.0081
11.6672
13.5755
15.567
17.5598
19.5302
21.4995
23.4535
25.2822
26.7806
27.6949
27.8093
27.0879
25.7173
23.9517
22.0147
20.043
18.0732
16.0802
14.0807
12.1362
10.3944
9.06705
8.3773
7.83292
8.82019
10.4552
12.4707
14.631
16.7719
18.807
20.7139
22.5324
24.2336
25.7029
26.7585
27.2048
26.9167
25.9812
24.5876
22.9263
21.1301
19.2467
17.2475
15.1307
12.9666
10.9001
9.1513
7.98504
7.64314
8.22361
9.57174
11.4305
13.5419
15.7041
17.7937
19.7554
21.614
23.3816
24.9881
26.2818
27.0661
27.1645
26.5451
25.3647
23.8218
22.0848
20.2467
18.3152
16.2492
14.0922
11.9488
10.0031
8.50361
7.71552
7.12472
8.20129
9.9616
12.114
14.4059
16.6502
18.7275
20.5937
22.2946
23.8228
25.1045
26.0112
26.3946
26.147
25.3453
24.1358
22.6556
20.9925
19.1683
17.1459
14.9364
12.6448
10.4408
8.56217
7.2949
6.91723
7.556
9.016
11.0086
13.257
15.5409
17.7092
19.671
21.4494
23.068
24.4877
25.6052
26.2767
26.3614
25.8303
24.8138
23.4597
21.8851
20.1471
18.2385
16.109
13.8375
11.5589
9.47703
7.85806
6.99465
6.28696
7.3912
9.17842
11.356
13.6765
15.9502
18.0391
19.8804
21.5052
22.9119
24.055
24.8479
25.1824
24.9665
24.2676
23.1957
21.8445
20.2697
18.4818
16.4549
14.2173
11.8956
9.66574
7.76087
6.465
6.07303
6.73362
8.2224
10.2407
12.5161
14.8313
17.0248
18.9811
20.7096
22.2273
23.512
24.4966
25.081
25.1549
24.6922
23.8002
22.584
21.1211
19.446
17.552
15.4033
13.1012
10.7948
8.6878
7.04085
6.15159
5.27571
6.31939
7.99561
10.0374
12.2272
14.3961
16.4124
18.2015
19.7616
21.0811
22.1264
22.8382
23.1372
22.9445
22.3193
21.3447
20.0853
18.5806
16.8462
14.8843
12.743
10.5467
8.45364
6.66825
5.44652
5.07235
5.70098
7.10146
8.99254
11.1316
13.3279
15.4339
17.3323
19.0049
20.4465
21.6358
22.5263
23.0479
23.1138
22.7005
21.8969
20.7779
19.3964
17.78
15.937
13.8703
11.6814
9.51009
7.53599
5.98948
5.14616
4.06158
4.93681
6.33311
8.03461
9.87493
11.73
13.5039
15.1275
16.5564
17.7593
18.7015
19.3363
19.6024
19.4311
18.875
17.9993
16.8541
15.4764
13.8972
12.1559
10.3139
8.46179
6.71521
5.22877
4.20645
3.89004
4.42021
5.58975
7.16374
8.95182
10.8114
12.635
14.3368
15.8651
17.1842
18.2625
19.0602
19.5236
19.5821
19.2147
18.4963
17.4843
16.2218
14.7413
13.0752
11.2734
9.4124
7.59368
5.95038
4.66096
3.95179
2.62681
3.22038
4.15945
5.29991
6.53957
7.81281
9.08266
10.3092
11.4166
12.3599
13.1014
13.6009
13.8107
13.6758
13.2384
12.5494
11.6503
10.5788
9.37722
8.112
6.83839
5.58708
4.41605
3.41768
2.72594
2.50971
2.87115
3.66057
4.71629
5.91573
7.1765
8.44829
9.7069
10.8791
11.9088
12.7565
13.3842
13.7487
13.7947
13.5053
12.9399
12.1436
11.1552
10.0124
8.76314
7.4929
6.22514
5.00361
3.90235
3.03384
2.55164
0.960873
1.1769
1.51262
1.91271
2.3424
2.78821
3.26316
3.76965
4.24573
4.66139
4.99329
5.21883
5.31387
5.25279
5.05512
4.74594
4.34805
3.88441
3.38289
2.89571
2.44608
2.01259
1.60336
1.24807
0.997283
0.91782
1.05029
1.33514
1.70879
2.12609
2.56265
3.0161
3.51746
4.01274
4.46147
4.83832
5.12071
5.28561
5.30644
5.17537
4.92047
4.56514
4.13179
3.64402
3.13396
2.67307
2.23286
1.80915
1.42126
1.10934
0.933202
)
;

boundaryField
{
    top
    {
        type            fixedValue;
        value           uniform 0;
    }
    bottom
    {
        type            fixedValue;
        value           uniform 36.5;
    }
    frontAndBack
    {
        type            empty;
    }
    left_cyc
    {
        type            cyclic;
    }
    right_cyc
    {
        type            cyclic;
    }
}


// ************************************************************************* //
