/*--------------------------------*- C++ -*----------------------------------*\
| =========                 |                                                 |
| \\      /  F ield         | OpenFOAM: The Open Source CFD Toolbox           |
|  \\    /   O peration     | Version:  2.3.0                                 |
|   \\  /    A nd           | Web:      www.OpenFOAM.org                      |
|    \\/     M anipulation  |                                                 |
\*---------------------------------------------------------------------------*/
FoamFile
{
    version     2.0;
    format      ascii;
    class       volScalarField;
    location    "16000";
    object      T;
}
// * * * * * * * * * * * * * * * * * * * * * * * * * * * * * * * * * * * * * //

dimensions      [0 0 0 1 0 0 0];

internalField   nonuniform List<scalar> 
3060
(
34.1957
34.2067
34.2271
34.2562
34.2936
34.3389
34.3917
34.4518
34.5191
34.5935
34.6753
34.7645
34.8607
34.962
35.0658
35.1723
35.2812
35.3916
35.5017
35.609
35.7104
35.8024
35.8808
35.9412
35.9794
35.9917
35.9765
35.9357
35.8731
35.793
35.6997
35.5973
35.4894
35.3789
35.2684
35.1595
35.053
34.9489
34.8477
34.752
34.6635
34.5826
34.5092
34.443
34.3842
34.3328
34.2891
34.2535
34.2264
34.2084
34.1998
34.2011
34.2123
34.2328
34.2622
34.3
34.3457
34.3991
34.4599
34.528
34.6035
34.6864
34.7768
34.8743
34.9763
35.081
35.1881
35.2977
35.4084
35.5185
35.6253
35.7256
35.8158
35.8917
35.9489
35.9832
35.9911
35.9716
35.9271
35.8614
35.779
35.6842
35.5808
35.4725
35.3621
35.252
35.1437
35.038
34.9348
34.8344
34.7399
34.6527
34.5729
34.5004
34.435
34.3769
34.326
34.2828
34.2476
34.2207
34.2029
34.1944
29.7197
29.7506
29.8074
29.8888
29.9937
30.1209
30.2696
30.4395
30.6305
30.8427
31.0766
31.3327
31.6109
31.9106
32.2228
32.5421
32.8688
33.1999
33.5299
33.8512
34.155
34.4308
34.6665
34.8492
34.9652
35.003
34.9564
34.8326
34.6435
34.4026
34.1229
33.8163
33.4931
33.162
32.8304
32.5036
32.1843
31.8714
31.5734
31.2972
31.0436
30.8124
30.6031
30.4154
30.2492
30.1045
29.9819
29.8823
29.8066
29.7561
29.732
29.7358
29.767
29.8244
29.9066
30.0124
30.141
30.2914
30.4634
30.6568
30.8719
31.109
31.3686
31.6506
31.954
32.2681
32.5897
32.9183
33.2504
33.5803
33.9001
34.2006
34.4711
34.6995
34.8725
34.9768
35.0011
34.9415
34.8064
34.6083
34.3606
34.0763
33.7668
33.4424
33.1114
32.7811
32.4563
32.1393
31.8287
31.5345
31.2621
31.012
30.7839
30.5774
30.3921
30.2278
30.0847
29.9634
29.8647
29.7898
29.7397
29.7159
25.5494
25.598
25.6871
25.8149
25.9796
26.1797
26.4141
26.6822
26.9838
27.319
27.6883
28.0923
28.5311
29.0037
29.5075
30.028
30.5634
31.1073
31.6496
32.1775
32.6766
33.1304
33.5196
33.8226
34.0164
34.0799
34.0016
33.7951
33.4815
33.084
32.6239
32.1202
31.5892
31.0451
30.5006
29.9654
29.4456
28.9428
28.4728
28.0374
27.6372
27.2721
26.9417
26.6454
26.3831
26.1552
25.9624
25.8057
25.6869
25.6077
25.5699
25.5759
25.6249
25.7148
25.8439
26.0103
26.2126
26.4498
26.7211
27.0265
27.3661
27.7405
28.1499
28.5944
29.0728
29.5813
30.1061
30.6448
31.1905
31.7325
32.2578
32.7516
33.197
33.5743
33.8615
34.0358
34.0767
33.9767
33.7515
33.4233
33.0148
32.5471
32.0388
31.5057
30.9619
30.4194
29.8877
29.3721
28.8747
28.4106
27.981
27.5863
27.2261
26.8999
26.6073
26.3482
26.1228
25.932
25.777
25.6594
25.5809
25.5435
21.8333
21.8971
22.0143
22.1823
22.3989
22.662
22.9703
23.3226
23.7186
24.1584
24.6422
25.1708
25.7444
26.3625
27.0231
27.7161
28.4362
29.1731
29.9111
30.6311
31.312
31.9313
32.4636
32.8796
33.147
33.2351
33.1266
32.8418
32.4117
31.8682
31.2404
30.5532
29.8291
29.0889
28.3517
27.6326
26.9414
26.2837
25.6694
25.1003
24.5767
24.0984
23.6649
23.2757
22.931
22.6313
22.3777
22.1717
22.0155
21.9113
21.8616
21.8694
21.9339
22.0522
22.2219
22.4408
22.7068
23.0187
23.3753
23.7762
24.2217
24.712
25.2476
25.8287
26.4543
27.1221
27.8215
28.5468
29.2867
30.0246
30.741
31.4146
32.0225
32.5387
32.9333
33.1739
33.2307
33.0921
32.7818
32.3317
31.7734
31.1354
30.4418
29.715
28.9755
28.2417
27.5277
26.8422
26.1932
25.5868
25.0252
24.5086
24.0365
23.6085
23.2242
22.8835
22.5872
22.3363
22.1325
21.9779
21.8747
21.8256
18.6634
18.7403
18.8814
19.0836
19.3439
19.66
20.0296
20.4513
20.9243
21.4484
22.0241
22.6521
23.3331
24.0669
24.8519
25.684
26.5553
27.4527
28.357
29.2443
30.0862
30.8524
31.5112
32.0269
32.3593
32.4693
32.3342
31.9802
31.4471
30.7746
29.9979
29.1486
28.2568
27.3505
26.4535
25.5843
24.7557
23.9746
23.2455
22.5699
21.9479
21.3787
20.8618
20.3968
19.9841
19.6246
19.3199
19.0722
18.8841
18.7586
18.6988
18.7082
18.7858
18.9283
19.1326
19.3957
19.7152
20.0891
20.5158
20.9947
21.5255
22.1087
22.745
23.4348
24.178
24.9721
25.8126
26.6907
27.5922
28.4972
29.3806
30.2135
30.9655
31.6045
32.0938
32.393
32.4638
32.291
31.9056
31.3478
30.657
29.8676
29.0107
28.1162
27.2115
26.3195
25.4577
24.6378
23.8659
23.1459
22.4791
21.8652
21.3033
20.7928
20.3335
19.9256
19.5701
19.2688
19.0237
18.8375
18.7133
18.6541
16.0669
16.1551
16.3168
16.5481
16.8455
17.2056
17.6254
18.1029
18.6367
19.2264
19.8723
20.5755
21.3372
22.1582
23.0377
23.976
24.9635
25.9855
27.0208
28.0418
29.0153
29.904
30.6681
31.2656
31.6509
31.7783
31.6218
31.2117
30.594
29.8141
28.9136
27.932
26.9064
25.8697
24.8487
23.8642
22.9305
22.0561
21.2408
20.4851
19.7884
19.1496
18.5677
18.0426
17.575
17.1663
16.819
16.5359
16.3206
16.1766
16.1081
16.1188
16.2079
16.3712
16.605
16.9055
17.2695
17.6941
18.1772
18.7175
19.3145
19.9688
20.6812
21.4529
22.2844
23.1746
24.1228
25.1186
26.1459
27.1825
28.1997
29.1634
30.0356
30.7765
31.3433
31.6899
31.772
31.5716
31.125
30.4787
29.6773
28.7622
27.7724
26.7446
25.7104
24.6959
23.7205
22.7979
21.9332
21.1278
20.3818
19.6941
19.0632
18.4885
17.9697
17.5074
17.1033
16.7597
16.4796
16.2665
16.1241
16.0562
14.014
14.1125
14.2928
14.5504
14.8804
15.2784
15.7405
16.2635
16.8453
17.4851
18.183
18.9406
19.7597
20.6424
21.5894
22.6034
23.6742
24.786
25.9164
27.0357
28.1073
29.0886
29.9331
30.5922
31.0158
31.1556
30.984
30.533
29.8516
28.9896
27.9956
26.9157
25.792
24.6606
23.5504
22.4834
21.4746
20.5338
19.6573
18.8445
18.0936
17.4027
16.7709
16.198
15.6853
15.2351
14.8508
14.5364
14.2966
14.136
14.0595
14.0715
14.1709
14.3531
14.6133
14.9467
15.349
15.8162
16.3451
16.9338
17.5814
18.2883
19.0557
19.8855
20.7797
21.7387
22.7638
23.8438
24.9619
26.0943
27.21
28.2712
29.2345
30.0531
30.6779
31.0588
31.1486
30.9288
30.4373
29.7238
28.8381
27.8282
26.7399
25.6143
24.4862
23.3834
22.3264
21.3295
20.3999
19.5345
18.7321
17.9906
17.3083
16.6841
16.1178
15.6109
15.1656
14.7853
14.4742
14.2368
14.0779
14.0021
12.4362
12.5449
12.7436
13.0267
13.3879
13.8214
14.3216
14.8841
15.5057
16.1848
16.9215
17.7174
18.5753
19.4986
20.49
21.5529
22.6771
23.8469
25.0392
26.2228
27.359
28.4016
29.2994
29.9987
30.4459
30.5925
30.4124
29.9362
29.2131
28.2967
27.2409
26.0964
24.9085
23.7156
22.548
21.4279
20.3706
19.3859
18.469
17.6172
16.8276
16.0976
15.426
14.8131
14.2609
13.7729
13.3539
13.0095
12.7458
12.5688
12.4843
12.4976
12.6072
12.8079
13.0938
13.4587
13.8966
14.4022
14.9709
15.5996
16.2868
17.0326
17.8387
18.7079
19.6432
20.6475
21.7222
22.8565
24.0331
25.2278
26.408
27.5335
28.5571
29.4272
30.0895
30.4911
30.5853
30.3542
29.8346
29.077
28.1353
27.0628
25.9096
24.7201
23.531
22.3713
21.2619
20.2168
19.2446
18.3394
17.4985
16.7187
15.9976
15.3338
14.7278
14.1816
13.6987
13.284
12.943
12.6819
12.5067
12.4231
11.2462
11.3657
11.5841
11.8941
12.288
12.7577
13.2959
13.8962
14.5541
15.2668
16.034
16.8574
17.7407
18.6883
19.7055
20.7947
21.9468
23.1465
24.3708
25.588
26.7578
27.832
28.7566
29.4748
29.9316
30.0804
29.8976
29.4108
28.6679
27.7242
26.6365
25.4583
24.2371
23.0124
21.815
20.6672
19.5837
18.5731
17.6314
16.7536
15.9356
15.1741
14.4681
13.8183
13.228
12.7022
12.2475
11.8716
11.5826
11.3882
11.2953
11.3098
11.4304
11.6508
11.9638
12.3615
12.8359
13.3795
13.9862
14.6512
15.3721
16.1485
16.9823
17.8769
18.8369
19.8672
20.9687
22.1313
23.3382
24.5652
25.779
26.9379
27.9925
28.8881
29.5679
29.9777
30.0731
29.8382
29.3065
28.5277
27.5576
26.4527
25.2657
24.0429
22.8223
21.6332
20.4964
19.4253
18.4278
17.4981
16.6314
15.8234
15.0708
14.3727
13.7299
13.1457
12.6251
12.1749
11.8027
11.5164
11.3238
11.2318
10.3543
10.4859
10.7263
11.0665
11.4965
12.006
12.5851
13.2252
13.9196
14.6645
15.4587
16.3036
17.2035
18.1642
19.1925
20.29
21.4489
22.6549
23.8855
25.1094
26.2855
27.3649
28.2923
29.0103
29.4645
29.6114
29.4309
28.9465
28.2035
27.2568
26.1638
24.9792
23.7514
22.5204
21.3167
20.1618
19.0695
18.0472
17.0915
16.1959
15.355
14.5653
13.8258
13.1385
12.5079
11.9411
11.4473
11.0364
10.7191
10.5051
10.4028
10.4188
10.5516
10.7941
11.1374
11.5714
12.0857
12.6703
13.3167
14.0183
14.7713
15.5745
16.4297
17.3409
18.3139
19.3553
20.4652
21.6345
22.8479
24.0813
25.3017
26.4668
27.5261
28.424
29.1031
29.5101
29.6042
29.3719
28.8423
28.0628
27.0892
25.9788
24.7853
23.5558
22.3289
21.1335
19.9897
18.9098
17.9006
16.9569
16.0723
15.2413
14.4604
13.7288
13.0484
12.4239
11.8626
11.3733
10.9662
10.6518
10.4397
10.3384
9.67926
9.82471
10.09
10.4645
10.9355
11.4899
12.1149
12.799
13.5333
14.3122
15.1332
15.9975
16.9095
17.8759
18.9046
19.9967
21.1456
22.3387
23.5546
24.7625
25.922
26.9841
27.8943
28.5962
29.038
29.1799
29.0052
28.5339
27.8071
26.8777
25.8019
24.634
23.4221
22.2056
21.0144
19.8688
18.7811
17.7571
16.7943
15.885
15.023
14.2047
13.4297
12.7012
12.0259
11.4132
10.8751
10.4247
10.0752
9.83898
9.72605
9.7437
9.89036
10.1579
10.5355
11.0107
11.57
12.2005
12.8909
13.6323
14.4191
15.2489
16.1231
17.0461
18.0244
19.0659
20.1699
21.3291
22.5293
23.7478
24.9521
26.1003
27.1425
28.0232
28.6866
29.0821
29.1729
28.9481
28.4323
27.6694
26.713
25.6197
24.4427
23.229
22.0165
20.8333
19.6984
18.6229
17.6115
16.6604
15.7618
14.9094
14.0997
13.3324
12.6107
11.9415
11.3342
10.8008
10.3543
10.0079
9.77365
9.66172
9.15392
9.31481
9.60814
10.0211
10.5384
11.1434
11.82
12.5536
13.3327
14.1493
14.9995
15.8838
16.8064
17.7744
18.7963
19.8728
20.9994
22.1648
23.3491
24.5229
25.647
26.6741
27.5512
28.2248
28.6466
28.7814
28.6154
28.1649
27.4671
26.571
25.5304
24.3977
23.2196
22.0342
20.87
19.7458
18.6723
17.6533
16.6871
15.7652
14.8812
14.0316
13.2171
12.4426
11.7169
11.0525
10.4646
9.96957
9.58403
9.32285
9.19802
9.2175
9.37966
9.67532
10.0916
10.6131
11.223
11.9052
12.645
13.431
14.2552
15.1139
16.0076
16.9406
17.9201
18.9539
20.0417
21.1779
22.3499
23.5365
24.7065
25.8194
26.8266
27.6749
28.3111
28.6885
28.7748
28.561
28.0678
27.3348
26.4123
25.3542
24.2124
23.0322
21.8503
20.6937
19.5796
18.5175
17.5105
16.5554
15.6437
14.7688
13.9274
13.1203
12.3525
11.6329
10.9739
10.3908
9.89979
9.51738
9.25834
9.13454
8.7259
8.9037
9.22778
9.68313
10.2513
10.9121
11.6459
12.4345
13.2635
14.1224
15.0055
15.9122
16.846
17.8142
18.8246
19.8787
20.9741
22.101
23.2412
24.3672
25.4418
26.4201
27.2525
27.8889
28.2856
28.4117
28.2561
27.8321
27.1724
26.3215
25.3297
24.2464
23.1158
21.9738
20.847
19.7527
18.6996
17.6898
16.7214
15.7861
14.8774
13.9928
13.1341
12.3082
11.5267
10.8051
10.1622
9.61815
9.19295
8.90445
8.76661
8.78809
8.9672
9.29371
9.75249
10.3249
10.9908
11.7301
12.5249
13.3606
14.2267
15.1178
16.0332
16.9767
17.9556
18.9768
20.0414
21.1455
22.2783
23.4203
24.5421
25.6055
26.5646
27.3692
27.9699
28.3248
28.4056
28.2052
27.7409
27.0474
26.171
25.1622
24.0696
22.9366
21.7975
20.6775
19.5925
18.5499
17.551
16.593
15.6671
14.767
13.8901
13.0385
12.2191
11.4435
10.7275
10.0894
9.5495
9.12756
8.84128
8.70453
8.35632
8.55212
8.909
9.40958
10.0321
10.7529
11.5481
12.3964
13.2799
14.1855
15.1054
16.0374
16.9842
17.9526
18.9492
19.9773
21.0359
22.1173
23.2047
24.2729
25.2876
26.2077
26.9873
27.5807
27.9491
28.0658
27.9214
27.5274
26.9118
26.1143
25.181
24.1573
23.0839
21.9937
20.9111
19.8519
18.8229
17.8245
16.8534
15.9025
14.9661
14.0423
13.135
12.2531
11.4112
10.6282
9.92642
9.32996
8.86245
8.54483
8.39314
8.41674
8.61389
8.9733
9.47742
10.1044
10.8301
11.631
12.4853
13.3752
14.2877
15.215
16.155
17.1107
18.0886
19.0949
20.1322
21.1986
22.2851
23.3734
24.4371
25.4409
26.3424
27.0958
27.6556
27.9852
28.0602
27.8745
27.4429
26.7955
25.9738
25.024
23.9911
22.9148
21.8268
20.7501
19.6991
18.6794
17.6905
16.729
15.7867
14.8581
13.9415
13.0409
12.1654
11.3294
10.5519
9.85503
9.26282
8.79868
8.48338
8.33284
8.01729
8.2317
8.62252
9.16986
9.84867
10.6314
11.4907
12.4013
13.3424
14.2982
15.2584
16.2188
17.181
18.1504
19.133
20.1334
21.1526
22.1855
23.2144
24.218
25.1659
26.0211
26.7427
27.2905
27.63
27.7375
27.6042
27.2407
26.672
25.9333
25.0652
24.108
23.0983
22.0655
21.0299
20.0083
19.0048
18.018
17.0429
16.074
15.1066
14.1403
13.1808
12.24
11.3351
10.4882
9.72554
9.07489
8.56362
8.21586
8.04987
8.07566
8.29148
8.68491
9.23591
9.91921
10.7071
11.5719
12.4884
13.4357
14.398
15.3649
16.3326
17.3025
18.2802
19.2712
20.2796
21.3057
22.3423
23.3713
24.3702
25.3073
26.1449
26.842
27.359
27.663
27.7323
27.5613
27.1633
26.5654
25.804
24.9201
23.9539
22.9408
21.9089
20.8784
19.8639
18.8685
17.8899
16.9231
15.9618
15.0014
14.0417
13.0886
12.154
11.2548
10.4135
9.65582
9.00953
8.50175
8.15642
7.99161
7.68915
7.92235
8.34721
8.94125
9.67611
10.5207
11.4438
12.4171
13.4167
14.4245
15.4274
16.4187
17.3985
18.3706
19.3401
20.3131
21.2915
22.2712
23.2392
24.1763
25.0557
25.8449
26.5081
27.0102
27.3211
27.4194
27.2971
26.9639
26.4422
25.7626
24.9607
24.0717
23.1277
22.1545
21.1705
20.1877
19.2093
18.2329
17.2523
16.2631
15.2623
14.2512
13.238
12.2375
11.2693
10.3588
9.53541
8.83074
8.27573
7.8977
7.71724
7.74525
7.97991
8.40748
9.00528
9.74473
10.5944
11.5232
12.5023
13.5078
14.5219
15.5307
16.5284
17.5148
18.4938
19.4703
20.4499
21.4336
22.4161
23.3836
24.3157
25.1847
25.9575
26.5982
27.0724
27.351
27.4147
27.2582
26.8937
26.3453
25.6449
24.8282
23.9303
22.9825
22.0097
21.0295
20.0524
19.0807
18.1112
17.1374
16.1547
15.1601
14.1548
13.1478
12.1533
11.1909
10.2859
9.46758
8.76739
8.21598
7.84047
7.66125
7.35812
7.60992
8.06788
8.7068
9.49515
10.3985
11.3825
12.4158
13.4714
14.5287
15.5727
16.5952
17.5937
18.57
19.5289
20.477
21.4171
22.3465
23.2554
24.1276
24.94
25.6647
26.2711
26.7289
27.0119
27.1014
26.9897
26.6859
26.2096
25.5876
24.8502
24.0279
23.1479
22.2324
21.297
20.3504
19.3946
18.4262
17.4387
16.4282
15.3941
14.34
13.2759
12.2182
11.1897
10.2185
9.3374
8.58113
7.98398
7.57639
7.3815
7.41177
7.66509
8.12585
8.76863
9.56164
10.4702
11.4597
12.4987
13.56
14.623
15.6725
16.7005
17.7046
18.6864
19.6509
20.6041
21.5482
22.4794
23.3872
24.2541
25.0566
25.7662
26.3522
26.7848
27.0389
27.0972
26.9547
26.6228
26.1225
25.4814
24.7302
23.8993
23.0153
22.0995
21.1665
20.2243
19.2738
18.311
17.3289
16.3239
15.2952
14.2466
13.1881
12.1362
11.1133
10.1476
9.27167
8.51997
7.92654
7.52156
7.32797
7.01367
7.28279
7.77088
8.45003
9.28587
10.2412
11.2792
12.3661
13.4727
14.5761
15.6595
16.7126
17.7307
18.7131
19.6646
20.5918
21.4981
22.3822
23.2366
24.0482
24.7977
25.4619
26.0148
26.4309
26.6877
26.7688
26.667
26.3908
25.9573
25.3894
24.7126
23.9526
23.1323
22.2699
21.378
20.4631
19.5259
18.5626
17.5664
16.5342
15.4676
14.3726
13.2612
12.152
11.0696
10.0447
9.11249
8.31031
7.67527
7.24065
7.03223
7.06466
7.33534
7.82628
8.50936
9.34993
10.3105
11.354
12.4464
13.5585
14.6672
15.7556
16.8135
17.8361
18.8229
19.7786
20.7096
21.6186
22.5035
23.3561
24.1623
24.9025
25.5527
26.0872
26.4807
26.7117
26.765
26.6357
26.3345
25.8794
25.2942
24.6047
23.8365
23.0118
22.1483
21.2578
20.3459
19.4127
18.4537
17.4617
16.4341
15.3722
14.2822
13.1762
12.0723
10.9955
9.9762
9.04916
8.25163
7.62038
7.18843
6.98135
6.64755
6.93125
7.44432
8.15641
9.03088
10.0285
11.1107
12.242
13.3917
14.5351
15.6538
16.7354
17.7728
18.763
19.7105
20.6217
21.5
22.3452
23.1517
23.9092
24.6021
25.2114
25.7157
26.0937
26.3266
26.4
26.3073
26.0562
25.6617
25.1428
24.5208
23.8168
23.0495
22.2335
21.3788
20.4899
19.5667
18.6052
17.5991
16.5459
15.4494
14.3181
13.166
12.0133
10.8865
9.8178
8.84404
8.0045
7.33836
6.88125
6.66139
6.69568
6.98095
7.49691
8.21296
9.0922
10.0951
11.1828
12.3195
13.4745
14.6229
15.7462
16.8319
17.873
18.8663
19.8169
20.7306
21.6105
22.4556
23.2597
24.0117
24.6957
25.2923
25.78
26.1379
26.3479
26.3966
26.2795
26.0062
25.5925
25.058
24.4243
23.7123
22.9404
22.1227
21.2683
20.3813
19.4608
18.5025
17.4995
16.4499
15.3576
14.2309
13.0838
11.9364
10.8151
9.75195
8.78342
7.94857
7.28627
6.83187
6.61337
6.25387
6.5482
7.07906
7.81421
8.71547
9.74243
10.8556
12.0187
13.2003
14.3745
15.5214
16.6268
17.6814
18.6799
19.6263
20.5262
21.3828
22.1962
22.9626
23.6739
24.318
24.8794
25.3411
25.6856
25.8973
25.9638
25.8791
25.6502
25.2899
24.8138
24.2395
23.5837
22.8614
22.0842
21.2595
20.3906
19.4769
18.5148
17.4988
16.4271
15.306
14.146
12.9629
11.7784
10.6199
9.52067
8.51815
7.65269
6.96472
6.49152
6.26328
6.29894
6.59485
7.12859
7.8677
8.77371
9.80592
10.9246
12.0931
13.2798
14.4587
15.6098
16.7189
17.7765
18.7771
19.7256
20.627
21.4841
22.2966
23.0601
23.7659
24.4014
24.9512
25.398
25.7247
25.9161
25.9608
25.8545
25.606
25.2285
24.7385
24.1533
23.4899
22.7628
21.9831
21.1578
20.2897
19.3777
18.4178
17.404
16.3353
15.2179
14.0622
12.8839
11.7046
10.5516
9.45786
8.46058
7.5998
6.91568
6.44519
6.21832
5.8285
6.12838
6.66793
7.41373
8.32692
9.36691
10.4943
11.6728
12.8711
14.0628
15.227
16.3482
17.4151
18.42
19.3666
20.2587
21.099
21.8877
22.6219
23.2955
23.899
24.4204
24.8461
25.1621
25.3557
25.4163
25.3384
25.1283
24.7969
24.3569
23.8223
23.2064
22.5208
21.7744
20.973
20.1189
19.2116
18.2482
17.2248
16.1402
15.0031
13.8259
12.6256
11.4248
10.2513
9.13817
8.12294
7.24588
6.54774
6.06656
5.83386
5.87029
6.17173
6.71412
7.46383
8.38174
9.42694
10.5597
11.7436
12.9469
14.1432
15.3114
16.4358
17.5051
18.5116
19.4594
20.3522
21.1922
21.9793
22.71
23.378
23.9734
24.4841
24.8965
25.1967
25.3724
25.4136
25.3167
25.0892
24.7425
24.2899
23.7452
23.1219
22.4313
21.682
20.8793
20.0251
19.1186
18.1566
17.1347
16.0526
14.9189
13.7457
12.5502
11.3545
10.1864
9.07878
8.06876
7.19634
6.502
6.02352
5.79217
5.36854
5.66788
6.20526
6.94692
7.85435
8.88775
10.0088
11.1823
12.3777
13.569
14.7352
15.8596
16.9297
17.9358
18.8804
19.7657
20.5931
21.3623
22.071
22.7145
23.2853
23.7742
24.1705
24.4632
24.6419
24.6975
24.6251
24.4305
24.1226
23.712
23.2095
22.6256
21.9692
21.2472
20.4641
19.622
18.7206
17.7586
16.7338
15.6462
14.5063
13.3279
12.1287
10.9315
9.76345
8.65694
7.64828
6.77671
6.08225
5.60281
5.37038
5.40684
5.70768
6.24783
6.99332
7.90535
8.94385
10.0702
11.249
12.4494
13.6452
14.8151
15.9425
17.0147
18.022
18.9673
19.8526
20.679
21.4461
22.151
22.7888
23.352
23.831
24.2152
24.4938
24.6566
24.6951
24.6059
24.3958
24.0743
23.6522
23.1404
22.5493
21.8878
21.1624
20.3774
19.5345
18.6334
17.6721
16.6485
15.5631
14.4264
13.2519
12.0574
10.8652
9.70257
8.60143
7.59787
6.73085
6.04011
5.56328
5.33218
4.87213
5.16393
5.68675
6.40744
7.2888
8.29291
9.38349
10.5275
11.6959
12.864
14.0112
15.1209
16.1796
17.1766
18.1125
18.9874
19.8011
20.5527
21.2398
21.8584
22.4025
22.8651
23.2375
23.5113
23.6778
23.7294
23.6614
23.4792
23.1905
22.8036
22.3272
21.7693
21.1371
20.4361
19.6699
18.8408
17.9496
16.9965
15.9815
14.9062
13.7822
12.6239
11.4491
10.2797
9.14181
8.06578
7.08591
6.23938
5.56444
5.0978
4.8711
4.90671
5.19995
5.72542
6.44976
7.33555
8.34459
9.44033
10.5895
11.7627
12.9351
14.086
15.1985
16.2591
17.2572
18.1937
19.0682
19.8806
20.6297
21.3128
21.9257
22.4626
22.9159
23.2775
23.5385
23.6909
23.7272
23.6443
23.4483
23.1474
22.75
22.2648
21.7001
21.0627
20.358
19.5896
18.7593
17.8679
16.9152
15.9012
14.828
13.7071
12.5527
11.3825
10.2181
9.08548
8.01467
7.03973
6.19756
5.52618
5.06204
4.83661
4.33827
4.61486
5.10957
5.79081
6.62376
7.57331
8.6062
9.69228
10.8051
11.9219
13.0237
14.0945
15.1209
16.0919
17.0058
17.8605
18.654
19.3844
20.0488
20.6434
21.1633
21.6026
21.9545
22.212
22.3682
22.4164
22.3521
22.1806
21.9082
21.5418
21.0884
20.5546
19.946
19.2673
18.5223
17.7135
16.843
15.9128
14.9253
13.884
12.8007
11.6894
10.5673
9.4545
8.37491
7.35627
6.42987
5.62988
4.99178
4.55009
4.33509
4.36891
4.64683
5.14401
5.82867
6.66578
7.61998
8.65779
9.74879
10.8663
11.9874
13.0927
14.1661
15.1941
16.1667
17.0812
17.9354
18.7274
19.455
20.1154
20.7045
21.2175
21.6483
21.9902
22.2364
22.3799
22.4144
22.3368
22.1529
21.8694
21.4935
21.0321
20.4916
19.8779
19.1956
18.448
17.6378
16.7669
15.8372
14.8508
13.8116
12.7313
11.624
10.5063
9.39838
8.32381
7.31012
6.38838
5.59248
4.95771
4.51835
4.30453
3.76675
4.02004
4.4724
5.09479
5.85569
6.72371
7.66942
8.66631
9.69123
10.7243
11.7486
12.7498
13.716
14.6367
15.5076
16.3243
17.0833
17.7814
18.415
18.9804
19.473
19.8875
20.2185
20.46
20.6061
20.6509
20.5905
20.4294
20.1733
19.8282
19.3997
18.8933
18.3141
17.6665
16.9542
16.1808
15.3495
14.4641
13.5293
12.5505
11.5388
10.507
9.47016
8.44613
7.45586
6.52362
5.67698
4.94623
4.36318
3.95918
3.76219
3.79322
4.04772
4.5023
5.12779
5.89247
6.76475
7.715
8.71648
9.74582
10.7829
11.8107
12.8147
13.7825
14.705
15.5765
16.3928
17.1503
17.8457
18.4755
19.0357
19.5218
19.9286
20.2505
20.4818
20.6166
20.6492
20.5767
20.4046
20.1386
19.7848
19.3489
18.8364
18.2523
17.601
16.8863
16.1115
15.2798
14.3949
13.4615
12.485
11.4764
10.4484
9.41581
8.39634
7.41073
6.48306
5.64067
4.91365
4.33361
3.93171
3.73579
3.15809
3.37998
3.7757
4.31973
4.98471
5.74375
6.57189
7.44684
8.3493
9.26278
10.1733
11.0693
11.9405
12.7791
13.5776
14.3299
15.0312
15.6772
16.2638
16.7868
17.2419
17.6243
17.9289
18.1509
18.285
18.326
18.2702
18.1219
17.8861
17.568
17.1724
16.7043
16.1682
15.5686
14.9097
14.1955
13.4305
12.62
11.7705
10.8892
9.98527
9.06912
8.1532
7.25224
6.38362
5.56761
4.82742
4.1888
3.67911
3.32558
3.15295
3.18017
3.4031
3.80075
4.34746
5.01574
5.77852
6.61066
7.48972
8.3962
9.31345
10.2274
11.1261
11.9995
12.8398
13.639
14.391
15.0909
15.7345
16.3175
16.8359
17.2852
17.6606
17.9572
18.1702
18.2943
18.3245
18.2581
18.1
17.8555
17.5296
17.1273
16.6536
16.1132
15.5103
14.8491
14.1338
13.3686
12.5588
11.711
10.8321
9.93121
9.01861
8.1066
7.20975
6.34528
5.53329
4.79681
4.16143
3.65434
3.30264
3.13093
2.51352
2.69625
3.02174
3.46883
4.01512
4.63883
5.31994
6.04082
6.78633
7.54377
8.30262
9.05429
9.79177
10.51
11.1993
11.8527
12.4644
13.0297
13.5442
14.0035
14.4033
14.7392
15.0069
15.2017
15.3194
15.3553
15.3061
15.1757
14.9684
14.6888
14.341
13.9296
13.4589
12.9333
12.3569
11.7345
11.071
10.3724
9.64666
8.90212
8.14482
7.38219
6.6234
5.87963
5.16431
4.49336
3.88521
3.36056
2.94163
2.65078
2.50856
2.53101
2.71458
3.04163
3.4909
4.03989
4.66668
5.35111
6.07542
6.82436
7.5851
8.34704
9.10147
9.84138
10.5612
11.2514
11.9046
12.5153
13.0785
13.59
14.0453
14.4401
14.7701
15.0309
15.2181
15.3273
15.354
15.2958
15.1571
14.9424
14.6561
14.3026
13.8865
13.412
12.8836
12.3054
11.6821
11.0187
10.3211
9.59728
8.85516
8.10066
7.34116
6.58572
5.8454
5.13353
4.46589
3.86079
3.33878
2.92196
2.6326
2.49112
1.83485
1.9715
2.21462
2.54824
2.9556
3.42052
3.92832
4.46619
5.02335
5.59096
6.16202
6.73127
7.29517
7.85185
8.39095
8.90528
9.38935
9.83854
10.2487
10.6157
10.9359
11.2052
11.4199
11.5763
11.6707
11.6995
11.6599
11.5551
11.3886
11.1641
10.8853
10.556
10.1799
9.76107
9.30348
8.81144
8.2898
7.74446
7.18336
6.61532
6.04264
5.46932
4.90109
4.34547
3.81187
3.3117
2.85836
2.4671
2.15442
1.93712
1.83073
1.84754
1.98481
2.22909
2.56432
2.97367
3.44087
3.95115
4.49161
5.05139
5.62158
6.19516
6.76685
7.33311
7.89134
8.43124
8.94562
9.42898
9.87668
10.2845
10.6485
10.9648
11.2294
11.4388
11.5891
11.677
11.6985
11.6518
11.5405
11.3681
11.1385
10.8552
10.5222
10.1432
9.72229
9.26338
8.77082
8.24944
7.70519
7.14614
6.58028
6.00992
5.43906
4.87339
4.32038
3.78935
3.29164
2.84055
2.45124
2.14013
1.92391
1.81807
1.12425
1.20915
1.36002
1.56679
1.81893
2.10636
2.41999
2.75201
3.09593
3.44664
3.80037
4.15482
4.50946
4.86566
5.21394
5.54846
5.86499
6.16005
6.43048
6.67329
6.88557
7.06451
7.20738
7.31155
7.3745
7.39369
7.36723
7.2973
7.1864
7.03703
6.85182
6.63348
6.38485
6.10885
5.80851
5.48709
5.14826
4.79659
4.43865
4.08227
3.72615
3.37126
3.02026
2.67731
2.34791
2.03893
1.7586
1.51636
1.32253
1.18764
1.12153
1.13198
1.21726
1.36883
1.57658
1.82993
2.11875
2.4339
2.7675
3.11305
3.46541
3.8208
4.17699
4.53356
4.89096
5.2399
5.57456
5.89074
6.18492
6.45392
6.69476
6.90454
7.08045
7.21981
7.32002
7.3786
7.39301
7.36189
7.28769
7.17293
7.02018
6.83207
6.61135
6.36089
6.08359
5.7825
5.46085
5.12235
4.77162
4.41547
4.06069
3.70613
3.35279
3.00339
2.66203
2.3342
2.02672
1.74776
1.5067
1.31382
1.1796
1.11382
0.384012
0.41308
0.464658
0.535196
0.620997
0.718525
0.824615
0.936566
1.05218
1.1698
1.28829
1.40729
1.52767
1.65245
1.77586
1.89525
2.00886
2.11531
2.21331
2.30164
2.37912
2.44461
2.49699
2.53524
2.55837
2.56542
2.55569
2.53
2.48928
2.43453
2.36678
2.28713
2.19674
2.0968
1.98855
1.8733
1.75254
1.62818
1.50344
1.38284
1.26338
1.14449
1.02673
0.911364
0.80022
0.695634
0.600454
0.517974
0.451815
0.405689
0.38305
0.38663
0.415823
0.467633
0.538497
0.624698
0.722682
0.829266
0.941735
1.05788
1.17604
1.2951
1.41477
1.5361
1.66141
1.78511
1.9046
2.01813
2.1243
2.22182
2.30946
2.38605
2.45044
2.50155
2.53835
2.55987
2.56517
2.55374
2.52648
2.48436
2.42837
2.35957
2.27908
2.18805
2.08768
1.9792
1.86392
1.74334
1.61943
1.49563
1.37567
1.25674
1.13836
1.02112
0.906269
0.795633
0.691535
0.596803
0.514715
0.448871
0.402965
0.380438
)
;

boundaryField
{
    top
    {
        type            fixedValue;
        value           uniform 0;
    }
    bottom
    {
        type            fixedValue;
        value           uniform 36.5;
    }
    frontAndBack
    {
        type            empty;
    }
    left_cyc
    {
        type            cyclic;
    }
    right_cyc
    {
        type            cyclic;
    }
}


// ************************************************************************* //
