/*--------------------------------*- C++ -*----------------------------------*\
| =========                 |                                                 |
| \\      /  F ield         | OpenFOAM: The Open Source CFD Toolbox           |
|  \\    /   O peration     | Version:  2.3.0                                 |
|   \\  /    A nd           | Web:      www.OpenFOAM.org                      |
|    \\/     M anipulation  |                                                 |
\*---------------------------------------------------------------------------*/
FoamFile
{
    version     2.0;
    format      ascii;
    class       volScalarField;
    location    "16000";
    object      T;
}
// * * * * * * * * * * * * * * * * * * * * * * * * * * * * * * * * * * * * * //

dimensions      [0 0 0 1 0 0 0];

internalField   nonuniform List<scalar> 
3060
(
33.5833
33.6102
33.6592
33.7284
33.8152
33.9165
34.0284
34.1466
34.2665
34.384
34.4961
34.6084
34.7227
34.8386
34.956
35.0758
35.198
35.3216
35.4447
35.5644
35.6773
35.7795
35.8668
35.9346
35.9782
35.9935
35.9784
35.935
35.8673
35.7801
35.6778
35.5647
35.4447
35.3211
35.197
35.0742
34.9537
34.8355
34.7188
34.604
34.4915
34.3791
34.2612
34.1423
34.0261
33.917
33.8191
33.7363
33.6716
33.6275
33.606
33.6088
33.6357
33.6847
33.7538
33.8404
33.9412
34.0524
34.1695
34.2884
34.4051
34.5172
34.6302
34.7456
34.8625
34.9812
35.1023
35.2255
35.3497
35.4727
35.5915
35.7024
35.8017
35.8848
35.9473
35.9845
35.9927
35.9705
35.9209
35.8482
35.757
35.652
35.5373
35.4165
35.293
35.1695
35.0478
34.9285
34.8115
34.6959
34.5821
34.4701
34.3575
34.2387
34.1187
34.0016
33.8918
33.7936
33.7106
33.6459
33.6018
33.5804
28.1964
28.2628
28.3839
28.5548
28.769
29.0191
29.2967
29.5929
29.9007
30.2173
30.5447
30.8792
31.222
31.5682
31.9178
32.2748
32.639
33.0074
33.3737
33.7292
34.0641
34.368
34.6286
34.8323
34.9644
35.0114
34.9652
34.8337
34.6304
34.3698
34.0656
33.73
33.3736
33.006
32.6361
32.27
31.9109
31.5587
31.2094
30.8651
30.5303
30.2041
29.8907
29.5867
29.2957
29.0249
28.7832
28.5788
28.419
28.3101
28.257
28.2641
28.3304
28.4514
28.622
28.8356
29.0848
29.361
29.6556
29.9621
30.2783
30.6065
30.9435
31.29
31.6394
31.9929
32.3537
32.7211
33.0911
33.457
33.8095
34.1388
34.4341
34.6828
34.8709
34.9838
35.0087
34.941
34.791
34.5729
34.3012
33.9891
33.6485
33.2897
32.9221
32.5542
32.1913
31.836
31.4876
31.1415
30.8008
30.4681
30.1423
29.8283
29.5228
29.2302
28.9582
28.7156
28.5109
28.3511
28.2422
28.1892
23.5004
23.592
23.7593
23.9954
24.2924
24.641
25.0313
25.4536
25.9005
26.3678
26.8554
27.3641
27.8966
28.4571
29.0293
29.6163
30.2157
30.8204
31.4197
31.9993
32.545
33.0407
33.4676
33.8037
34.0237
34.1027
34.0252
33.8063
33.4708
33.0439
32.5476
32.0008
31.4195
30.8183
30.2111
29.609
29.0189
28.4433
27.8815
27.3484
26.8402
26.3546
25.8909
25.4495
25.0345
24.6536
24.3165
24.0329
23.812
23.6615
23.5882
23.5979
23.6894
23.8567
24.0927
24.3893
24.7374
25.1269
25.5485
25.9954
26.464
26.9547
27.4683
28.0072
28.5746
29.1535
29.7467
30.3507
30.9577
31.5557
32.1303
32.667
33.1491
33.557
33.8679
34.0563
34.0982
33.9846
33.7355
33.3763
32.9316
32.4228
31.868
31.2825
30.6807
30.0763
29.479
28.8949
28.3249
27.7711
27.2443
26.7406
26.2576
25.7949
25.3532
24.9375
24.556
24.2185
23.9348
23.7139
23.5637
23.4905
19.6121
19.718
19.9116
20.1855
20.5312
20.9395
21.4006
21.9059
22.4483
23.0239
23.632
24.2737
24.9514
25.6675
26.4179
27.1952
27.9955
28.8093
29.6206
30.4085
31.1511
31.8253
32.4069
32.8669
33.1703
33.2802
33.1725
32.8708
32.4117
31.8301
31.1551
30.4111
29.6211
28.8072
27.9906
27.1872
26.4068
25.6533
24.9366
24.2587
23.618
23.0125
22.4412
21.905
21.4082
20.9578
20.5625
20.232
19.9754
19.801
19.7161
19.7274
19.8333
20.0272
20.3014
20.6475
21.0562
21.518
22.0243
22.5688
23.148
23.7615
24.4107
25.0978
25.8256
26.5844
27.3703
28.1777
28.9954
29.8058
30.5872
31.3174
31.9732
32.5294
32.9556
33.2156
33.2738
33.1162
32.7733
32.2823
31.677
30.985
30.2299
29.4346
28.621
27.8091
27.0134
26.2423
25.4983
24.7915
24.1223
23.4885
22.8879
22.3197
21.7854
21.2896
20.8398
20.4452
20.1152
19.8592
19.6853
19.6007
16.5361
16.6497
16.8576
17.1523
17.5253
17.9676
18.4707
19.0266
19.6294
20.2758
20.965
21.6983
22.478
23.3065
24.1846
25.105
26.0611
27.0405
28.025
28.9899
29.9052
30.7387
31.458
32.0278
32.405
32.5425
32.4081
32.0331
31.4644
30.7453
29.9111
28.9941
28.0269
27.0397
26.0572
25.0981
24.1749
23.2948
22.4652
21.6854
20.9532
20.2666
19.6246
19.0281
18.4808
17.9888
17.5598
17.2027
16.9261
16.7385
16.6473
16.6593
16.7731
16.9817
17.2774
17.6517
18.0958
18.6011
19.1601
19.7672
20.4194
21.1164
21.8594
22.6507
23.4923
24.3831
25.3155
26.2814
27.2669
28.2521
29.2106
30.1115
30.9221
31.61
32.1382
32.4619
32.5345
32.3376
31.9117
31.3039
30.5553
29.7002
28.7706
27.7987
26.8135
25.8381
24.8895
23.9786
23.1113
22.294
21.5252
20.8022
20.1228
19.4863
18.8938
18.3494
17.8596
17.4325
17.0768
16.8014
16.6146
16.524
14.1959
14.3143
14.5314
14.8392
15.2291
15.6923
16.2206
16.8067
17.4457
18.1345
18.8729
19.6625
20.5065
21.4083
22.3709
23.3902
24.4574
25.5586
26.6734
27.7743
28.8268
29.7914
30.6259
31.2865
31.7239
31.8834
31.7277
31.2931
30.634
29.7999
28.8346
27.7805
26.6773
25.5597
24.4554
23.3852
22.3634
21.399
20.496
19.6517
18.8628
18.1266
17.4416
16.8085
16.2304
15.7127
15.2626
14.8885
14.5991
14.4029
14.3075
14.3201
14.439
14.6572
14.9666
15.3587
15.8249
16.3569
16.9479
17.593
18.2897
19.0379
19.8393
20.6969
21.6139
22.5924
23.6265
24.7063
25.8159
26.9331
28.0285
29.066
30.005
30.8028
31.4149
31.79
31.8741
31.6457
31.1521
30.4473
29.579
28.5904
27.5235
26.4167
25.3029
24.2081
23.151
22.1443
21.1956
20.3074
19.4762
18.6985
17.9715
17.294
16.6668
16.0934
15.5794
15.1323
14.7605
14.4729
14.2779
14.1832
12.4697
12.5931
12.8193
13.1396
13.5447
14.0252
14.5725
15.1794
15.8409
16.5544
17.32
18.1401
19.019
19.962
20.9744
22.0544
23.1929
24.375
25.5791
26.7755
27.9267
28.9879
29.9095
30.6386
31.1195
31.2943
31.124
30.6463
29.9191
28.9982
27.9365
26.7838
25.5851
24.3782
23.193
22.0516
20.969
19.9549
19.0103
18.1303
17.3101
16.5456
15.8349
15.1783
14.5785
14.041
13.5731
13.1836
12.8819
12.6771
12.5777
12.5907
12.7148
12.9423
13.2648
13.6729
14.1573
14.7095
15.3226
15.9917
16.7146
17.4915
18.3251
19.2195
20.1796
21.2104
22.3078
23.4612
24.6539
25.8621
27.0541
28.1902
29.2243
30.1054
30.7803
31.1922
31.2841
31.0338
30.4904
29.7121
28.7538
27.6676
26.5024
25.3013
24.1001
22.9265
21.8005
20.7355
19.7396
18.8118
17.9468
17.1394
16.3858
15.6842
15.0349
14.4411
13.9084
13.4443
13.0579
12.7584
12.5552
12.4565
11.2223
11.3525
11.5909
11.9278
12.3523
12.8535
13.4215
14.0481
14.7278
15.4577
16.2383
17.0727
17.9667
18.9274
19.9628
21.0729
22.2489
23.4764
24.7331
25.988
27.201
28.3239
29.3016
30.0747
30.5822
30.7652
30.5871
30.0833
29.3125
28.3357
27.2126
25.9982
24.7411
23.4816
22.251
21.0719
19.959
18.9214
17.9584
17.0623
16.2265
15.4456
14.7171
14.0409
13.4202
12.8611
12.3721
11.9632
11.6454
11.4293
11.3243
11.338
11.469
11.709
12.0484
12.4763
12.9821
13.5558
14.1894
14.8777
15.618
16.4111
17.2602
18.1709
19.1503
20.2061
21.3356
22.5285
23.7684
25.0308
26.2822
27.4805
28.5752
29.51
30.2248
30.6585
30.7545
30.4919
29.9179
29.0923
28.076
26.9278
25.7012
24.4429
23.1907
21.9735
20.8118
19.7184
18.7009
17.7562
16.8764
16.0547
15.2858
14.5673
13.8994
13.2855
12.7319
12.2473
11.842
11.5268
11.3125
11.2084
10.3268
10.4665
10.7221
11.082
11.5333
12.0628
12.6583
13.3096
14.0098
14.7554
15.5467
16.3875
17.2849
18.248
19.2874
20.4041
21.5909
22.8342
24.112
25.3927
26.6346
27.7868
28.7908
29.5834
30.1008
30.2858
30.1059
29.5925
28.8024
27.7996
26.6474
25.4043
24.1215
22.8409
21.5944
20.4042
19.2843
18.2419
17.2753
16.3745
15.5306
14.7374
13.9914
13.2931
12.6465
12.0591
11.5416
11.1062
10.7663
10.5346
10.4219
10.4366
10.5771
10.8344
11.197
11.6521
12.1864
12.788
13.4468
14.1561
14.9127
15.717
16.5732
17.4882
18.471
19.5321
20.6696
21.8747
23.1317
24.4164
25.6945
26.9218
28.0453
29.005
29.737
30.1783
30.275
30.0091
29.4229
28.5759
27.5324
26.3547
25.0999
23.8167
22.5446
21.3129
20.1415
19.0424
18.0214
17.0742
16.1904
15.3613
14.5806
13.8452
13.1556
12.5162
11.9348
11.422
10.9905
10.6534
10.4236
10.3119
9.67621
9.82843
10.1066
10.497
10.984
11.5513
12.1835
12.8678
13.5951
14.3606
15.1641
16.0096
16.9053
17.8622
18.893
19.9993
21.1763
22.4118
23.6847
24.9635
26.2056
27.3588
28.3629
29.1531
29.6659
29.8477
29.671
29.1622
28.3748
27.3721
26.219
24.9758
23.6951
22.4193
21.1804
19.9995
18.8891
17.8544
16.8927
15.9918
15.1414
14.3341
13.5663
12.8392
12.1584
11.5337
10.9784
10.5081
10.1392
9.88689
9.76417
9.78018
9.93321
10.2131
10.6064
11.0973
11.6695
12.3079
12.9998
13.7364
14.513
15.3297
16.1908
17.1045
18.0815
19.1345
20.2623
21.4583
22.7085
23.989
25.2657
26.4935
27.6178
28.5768
29.3057
29.7422
29.8371
29.5754
28.9934
28.1483
27.1044
25.9258
24.6711
23.3906
22.1241
20.9008
19.7395
18.6506
17.6377
16.6957
15.8123
14.9768
14.1821
13.425
12.7068
12.0332
11.4146
10.8642
10.3979
10.0319
9.78164
9.66003
9.18718
9.35472
9.66061
10.0888
10.6204
11.2351
11.914
12.641
13.404
14.1963
15.0168
15.8694
16.7631
17.71
18.7243
19.8089
20.9611
22.1708
23.4181
24.6722
25.8908
27.0214
28.0036
28.7736
29.2703
29.4449
29.2752
28.7824
28.0152
27.0345
25.9042
24.6846
23.4285
22.1782
20.9647
19.8081
18.7185
17.6988
16.7455
15.8449
14.9854
14.1589
13.3624
12.5979
11.8733
11.2013
10.5989
10.0853
9.68054
9.40316
9.26821
9.28579
9.45413
9.76183
10.1929
10.7283
11.348
12.0331
12.7675
13.5396
14.3429
15.1763
16.0443
16.9559
17.9233
18.9594
20.0652
21.2366
22.4612
23.7164
24.9687
26.1731
27.2748
28.2123
28.9216
29.3437
29.4348
29.1829
28.6184
27.794
26.7722
25.6165
24.3856
23.13
21.8893
20.6917
19.5547
18.4866
17.4885
16.5548
15.6715
14.8267
14.0126
13.2264
12.4706
11.7532
11.0873
10.4898
9.98016
9.57846
9.30318
9.1694
8.79837
8.9836
9.32174
9.79405
10.3778
11.0489
11.7839
12.5628
13.3704
14.1976
15.0416
15.9061
16.8001
17.737
18.7307
19.7862
20.9034
22.0741
23.28
24.4917
25.6678
26.757
27.7003
28.4364
28.9086
29.0735
28.9131
28.4447
27.7111
26.7693
25.6804
24.5033
23.2896
22.0805
20.9056
19.7832
18.7215
17.7207
16.7759
15.873
14.9995
14.1473
13.3139
12.5032
11.7256
10.9972
10.3391
9.77473
9.32832
9.02184
8.87277
8.89218
9.0782
9.41813
9.89326
10.4809
11.1568
11.8978
12.684
13.5004
14.338
15.1945
16.0738
16.9851
17.942
18.9566
20.0328
21.1687
22.3539
23.5676
24.7773
25.9394
27.0002
27.8997
28.5771
28.9779
29.0639
28.8257
28.2884
27.4994
26.5173
25.4034
24.2151
23.0018
21.802
20.6427
19.5395
18.4985
17.5184
16.5927
15.7065
14.8471
14.0068
13.1833
12.3809
11.6102
10.8878
10.2345
9.67419
9.23087
8.92656
8.77872
8.46659
8.67137
9.0452
9.56652
10.2087
10.9432
11.742
12.581
13.4414
14.3111
15.1856
16.0676
16.9659
17.8945
18.8664
19.8893
20.9651
22.0877
23.2408
24.3967
25.5162
26.5499
27.4416
28.1342
28.5762
28.7298
28.5802
28.1415
27.4512
26.5609
25.5274
24.4068
23.2487
22.0921
20.9648
19.883
18.8528
17.8721
16.9338
16.0244
15.1312
14.2463
13.3684
12.5034
11.6647
10.8724
10.1516
9.53067
9.03798
8.69931
8.53468
8.5561
8.76163
9.13725
9.66139
10.3074
11.0466
11.8513
12.6973
13.5659
14.4454
15.3317
16.2276
17.1424
18.0896
19.0813
20.1238
21.2173
22.3536
23.5139
24.6677
25.7733
26.7793
27.6288
28.2656
28.6406
28.7209
28.4988
27.9953
27.2521
26.3229
25.2649
24.1332
22.9752
21.8274
20.7147
19.651
18.6403
17.6789
16.7588
15.8651
14.9851
14.1113
13.2427
12.3856
11.5536
10.767
10.0511
9.43418
8.94465
8.60823
8.44489
8.16244
8.38798
8.79982
9.37342
10.0782
10.8809
11.7493
12.6545
13.5741
14.493
15.4045
16.3098
17.2172
18.1402
19.0914
20.0807
21.1121
22.1811
23.2736
24.3644
25.417
26.3858
27.2167
27.8592
28.2679
28.4096
28.2712
27.8653
27.2248
26.395
25.4263
24.3723
23.279
22.1827
21.1084
20.0701
19.0721
18.1106
17.1758
16.2553
15.3365
14.4125
13.4835
12.5578
11.6521
10.7903
10.0022
9.32059
8.77855
8.40562
8.22447
8.24802
8.4743
8.88793
9.46436
10.1729
10.9804
11.8544
12.7663
13.6936
14.6216
15.544
16.4622
17.3846
18.3247
19.2942
20.3017
21.3493
22.4307
23.5294
24.6177
25.657
26.5986
27.3896
27.9801
28.3269
28.4013
28.1964
27.7306
27.0406
26.1738
25.1812
24.1163
23.0226
21.934
20.873
19.8513
18.8714
17.9276
17.0093
16.1031
15.1965
14.2827
13.3623
12.4441
11.5447
10.6885
9.90523
9.22774
8.68894
8.31834
8.13856
7.86628
8.1132
8.56414
9.19153
9.96073
10.8341
11.775
12.7501
13.7333
14.7064
15.6603
16.5944
17.5156
18.4366
19.3696
20.3271
21.3142
22.3268
23.3539
24.373
25.3512
26.247
27.0132
27.604
27.9789
28.1088
27.9815
27.6087
27.0194
26.2539
25.3577
24.3779
23.356
22.3246
21.306
20.3111
19.3437
18.3987
17.464
16.5275
15.5778
14.6094
13.6245
12.6339
11.6575
10.7233
9.86556
9.1216
8.52879
8.12058
7.92241
7.94816
8.19582
8.64858
9.27882
10.0518
10.9299
11.8763
12.8578
13.8483
14.8298
15.7936
16.7393
17.6741
18.6102
19.5597
20.5338
21.5349
22.5582
23.5903
24.6062
25.5711
26.4417
27.171
27.714
28.0326
28.1012
27.9133
27.4858
26.8511
26.0512
25.1326
24.1419
23.1187
22.0936
21.0866
20.1061
19.1552
18.2261
17.3059
16.3822
15.4435
14.4843
13.5073
12.5236
11.5534
10.6248
9.77189
9.03208
8.44263
8.03686
7.84015
7.56502
7.83346
8.32342
9.00417
9.83718
10.7807
11.7941
12.8401
13.8887
14.9189
15.9191
16.8866
17.8264
18.7493
19.6674
20.5937
21.5353
22.4913
23.452
24.398
25.3004
26.1226
26.8234
27.3624
27.704
27.8222
27.7058
27.3657
26.8276
26.1269
25.3039
24.3994
23.45
22.4844
21.5217
20.5712
19.6337
18.7021
17.7635
16.8065
15.8216
14.8051
13.7614
12.7043
11.6566
10.65
9.72319
8.9174
8.27413
7.83066
7.61534
7.64333
7.91249
8.40431
9.08798
9.92486
10.8731
11.8921
12.9441
13.9995
15.0376
16.0467
17.0244
17.976
18.912
19.8443
20.7847
21.7387
22.7036
23.668
24.6103
25.4999
26.2988
26.9659
27.4617
27.7524
27.8153
27.6443
27.2548
26.6754
25.9432
25.0994
24.1842
23.2328
22.2721
21.3191
20.3813
19.4578
18.5398
17.6136
16.6677
15.6924
14.6842
13.6479
12.5973
11.5555
10.5544
9.63258
8.83107
8.19129
7.75039
7.53661
7.24982
7.53957
8.06733
8.79908
9.69261
10.7024
11.7839
12.8971
14.0092
15.0962
16.1441
17.1477
18.1098
19.0387
19.9464
20.8465
21.7472
22.6497
23.5466
24.4216
25.2501
26.0005
26.6376
27.1263
27.4355
27.5424
27.4366
27.1281
26.6396
26.0019
25.25
24.4189
23.5399
22.6373
21.7272
20.8166
19.9041
18.9813
18.0349
17.054
16.0313
14.9657
13.864
12.7426
11.6273
10.5528
9.56069
8.69614
8.00452
7.52671
7.29427
7.32454
7.61503
8.14471
8.87948
9.77697
10.7915
11.8785
12.9976
14.1161
15.2104
16.2663
17.2789
18.251
19.1908
20.1103
21.0222
21.9331
22.8428
23.7421
24.6129
25.4292
26.1584
26.7651
27.2149
27.4787
27.5361
27.3814
27.0288
26.5033
25.8372
25.066
24.2246
23.3429
22.4438
21.5415
20.6413
19.7404
18.829
17.8928
16.9213
15.9069
14.8487
13.7537
12.6385
11.5291
10.4602
9.47307
8.61295
7.92498
7.44989
7.21908
6.91321
7.22249
7.78432
8.56156
9.50883
10.5776
11.7207
12.8955
14.067
15.2088
16.3043
17.3457
18.3331
19.2723
20.1751
21.055
21.9211
22.7758
23.6142
24.4232
25.1823
25.8653
26.4422
26.8833
27.1619
27.258
27.1621
26.8834
26.4418
25.8635
25.1784
24.4159
23.6021
22.7572
21.8939
21.0168
20.1232
19.204
18.2458
17.2381
16.1763
15.0621
13.9048
12.7235
11.5464
10.4108
9.3605
8.44374
7.70888
7.20003
6.95181
6.98423
7.29427
7.85809
8.63844
9.58979
10.6634
11.8119
12.9926
14.1703
15.3188
16.4214
17.4705
18.4663
19.4143
20.3266
21.216
22.0902
22.9503
23.7898
24.5942
25.3418
26.0054
26.5551
26.9617
27.2001
27.2523
27.1132
26.7954
26.3208
25.717
25.0142
24.2417
23.4246
22.5818
21.7244
20.8555
19.9712
19.0611
18.111
17.111
16.0563
14.9487
13.7977
12.6224
11.4512
10.3211
9.27598
8.3638
7.63277
7.12676
6.88027
6.54961
6.87524
7.46519
8.27968
9.27098
10.3885
11.5833
12.8111
14.0351
15.2271
16.3679
17.4472
18.4623
19.4157
20.3193
21.186
22.0249
22.8396
23.627
24.3773
25.074
25.6956
26.2176
26.6151
26.8656
26.9518
26.8649
26.6135
26.2146
25.6905
25.0658
24.3649
23.609
22.8141
21.9898
21.1388
20.2573
19.3361
18.3624
17.326
16.2255
15.0652
13.8575
12.6235
11.3936
10.2066
9.10839
8.14885
7.37853
6.84397
6.5825
6.61676
6.94316
7.53518
8.3529
9.34841
10.4709
11.6712
12.9049
14.135
15.3331
16.4803
17.5662
18.5881
19.5483
20.4594
21.3333
22.1783
22.9966
23.784
24.5292
25.215
25.8191
26.3169
26.684
26.8991
26.9467
26.8218
26.536
26.108
25.561
24.9203
24.2097
23.4499
22.6556
21.8354
20.9905
20.116
19.2018
18.2342
17.204
16.1095
14.9552
13.7534
12.5253
11.3013
10.12
9.02715
8.07238
7.30603
6.77445
6.51479
6.15514
6.49266
7.10266
7.94344
8.96588
10.1185
11.3515
12.6201
13.8863
15.1205
16.3015
17.4166
18.4597
19.4306
20.3404
21.2009
22.0209
22.8044
23.55
24.2507
24.8936
25.4619
25.9356
26.2945
26.5199
26.5972
26.5184
26.291
25.9298
25.4531
24.8809
24.2328
23.5256
22.7714
21.9773
21.1442
20.2679
19.3396
18.3475
17.2823
16.1458
14.9451
13.6953
12.4193
11.1491
9.92447
8.79188
7.80209
7.00668
6.45372
6.18255
6.21819
6.5565
7.16864
8.01276
9.03957
10.1973
11.436
12.7104
13.9826
15.2227
16.4095
17.5301
18.5787
19.5547
20.4701
21.3359
22.16
22.9455
23.69
24.3852
25.0178
25.5701
26.0224
26.3546
26.5492
26.5926
26.4804
26.2231
25.8362
25.3392
24.7523
24.0949
23.3831
22.6283
21.8365
21.0075
20.1362
19.2129
18.2253
17.165
16.0336
14.8385
13.5943
12.3243
11.06
9.84126
8.71421
7.72936
6.93807
6.3882
6.11892
5.72712
6.07087
6.69078
7.54413
8.58155
9.75181
11.0056
12.2985
13.5923
14.8568
16.0691
17.2142
18.2833
19.2727
20.1927
21.0534
21.8625
22.6241
23.3379
23.9991
24.5981
25.1219
25.555
25.8811
26.0852
26.1547
26.0826
25.8757
25.5463
25.1092
24.5805
23.9754
23.3066
22.5833
21.8102
20.9871
20.1099
19.1707
18.1596
17.0684
15.9019
14.6704
13.391
12.0881
10.7943
9.54944
8.39971
7.39537
6.58787
6.02571
5.74939
5.7858
6.13037
6.75246
7.60927
8.6512
9.82676
11.0864
12.3852
13.685
14.9551
16.1728
17.3226
18.3959
19.3892
20.3134
21.1777
21.9892
22.7513
23.4628
24.1182
24.7073
25.2167
25.6307
25.9335
26.1106
26.1506
26.0494
25.8163
25.4643
25.0091
24.4669
23.8527
23.1788
22.4537
21.6812
20.8605
19.9865
19.0508
18.0428
16.9555
15.7936
14.5672
13.2933
11.9964
10.7088
9.46999
8.32598
7.32675
6.5235
5.9645
5.69011
5.26384
5.60701
6.22469
7.07423
8.10721
9.27392
10.5268
11.8228
13.1247
14.4023
15.632
16.7967
17.8854
18.8911
19.8226
20.6876
21.4922
22.2401
22.9316
23.5633
24.1285
24.6172
25.0178
25.3174
25.504
25.5671
25.5004
25.3099
25.006
24.6005
24.1058
23.5336
22.8932
22.1914
21.4312
20.6119
19.7299
18.779
17.7518
16.6416
15.4562
14.2084
12.9169
11.607
10.311
9.06772
7.92178
6.92178
6.11775
5.55738
5.28137
5.31783
5.66184
6.28176
7.13483
8.17243
9.34457
10.6034
11.9055
13.2134
14.4966
15.7312
16.9
17.9916
19.0007
19.9353
20.8026
21.6082
22.3553
23.0436
23.6692
24.2249
24.7004
25.0839
25.363
25.526
25.5633
25.4712
25.2578
24.9341
24.5123
24.0051
23.4239
22.778
22.0733
21.3124
20.494
19.6138
18.6651
17.64
16.5329
15.3518
14.109
12.8231
11.5194
10.2296
8.99258
7.8525
6.85772
6.05799
5.50083
5.22677
4.7644
5.09916
5.70069
6.52757
7.53357
8.6718
9.89759
11.1705
12.4554
13.723
14.9497
16.1175
17.2133
18.2278
19.1674
20.0367
20.8399
21.5795
22.2558
22.8665
23.4067
23.869
24.2446
24.5236
24.6964
24.7544
24.6918
24.5141
24.2297
23.8482
23.379
22.8308
22.2106
21.5232
20.7707
19.9526
19.0663
18.1079
17.0727
15.9563
14.7693
13.5261
12.2462
10.9547
9.68277
8.46707
7.34949
6.3757
5.59301
5.04709
4.7777
4.81337
5.14898
5.75277
6.58319
7.59386
8.73758
9.9694
11.2485
12.5395
13.8127
15.0442
16.2158
17.3139
18.3315
19.2732
20.1437
20.9468
21.6846
22.357
22.9613
23.4923
23.9424
24.3026
24.5635
24.7157
24.7509
24.666
24.4681
24.1662
23.7699
23.289
22.7321
22.1059
21.4148
20.6606
19.8422
18.9567
17.9996
16.9659
15.8524
14.6694
13.4312
12.157
10.8718
9.6063
8.39693
7.28527
6.31672
5.53833
4.99559
4.72813
4.22871
4.54638
5.1164
5.89971
6.85352
7.93493
9.10334
10.322
11.5589
12.7866
13.9828
15.1293
16.2118
17.2208
18.1579
19.0249
19.8235
20.5549
21.2188
21.8132
22.3341
22.7762
23.1325
23.3956
23.5578
23.6117
23.5521
23.3841
23.1148
22.7516
22.3018
21.7721
21.1677
20.4923
19.7477
18.9342
18.0509
17.096
16.0685
14.9669
13.803
12.5923
11.3542
10.1124
8.89573
7.73768
6.6763
5.75316
5.01163
4.49415
4.23837
4.27231
4.59082
5.16305
5.94985
6.90826
7.99513
9.16955
10.3945
11.6374
12.8709
14.0719
15.2223
16.3073
17.3187
18.2574
19.1248
19.9225
20.6514
21.3109
21.8987
22.4108
22.8415
23.1839
23.4308
23.5747
23.6085
23.5292
23.3432
23.0581
22.6815
22.2208
21.6825
21.0718
20.3922
19.6452
18.8307
17.9474
16.9935
15.9673
14.8685
13.7087
12.5032
11.2709
10.0354
8.82516
7.67341
6.61787
5.69986
4.96252
4.44812
4.1942
3.65755
3.94891
4.47106
5.18849
6.06298
7.05662
8.13388
9.26268
10.4149
11.5663
12.6968
13.7892
14.8297
15.8085
16.7231
17.5719
18.3543
19.0695
19.7164
20.2925
20.7945
21.2178
21.5572
21.8065
21.9596
22.01
21.9531
21.7934
21.5371
21.1902
20.7585
20.2473
19.6609
19.0025
18.2744
17.4779
16.6138
15.6833
14.6885
13.6313
12.524
11.3815
10.2218
9.06634
7.9404
6.8734
5.89854
5.05232
4.37309
3.89892
3.66421
3.69541
3.98757
4.51183
5.23259
6.11147
7.11036
8.19343
9.32833
10.4866
11.6438
12.7792
13.8758
14.9191
15.9002
16.8159
17.6648
18.4458
19.1582
19.8004
20.37
20.8634
21.2762
21.6029
21.8377
21.9744
22.007
21.9325
21.7568
21.4863
21.1271
20.6852
20.1658
19.5731
18.9102
18.1793
17.3813
16.5171
15.5874
14.5942
13.5401
12.437
11.2998
10.1459
8.99659
7.87693
6.81599
5.84672
5.00536
4.33008
3.8588
3.62583
3.05261
3.30826
3.76591
4.39469
5.16187
6.03544
6.98564
7.98577
9.01244
10.0455
11.068
12.0652
13.0251
13.9386
14.7993
15.6028
16.346
17.0264
17.6415
18.1884
18.6636
19.063
19.3821
19.6158
19.7589
19.8058
19.7519
19.6018
19.3607
19.0338
18.6259
18.1415
17.5846
16.9585
16.2661
15.5101
14.6931
13.8187
12.8921
11.9187
10.9096
9.87793
8.83881
7.81033
6.8136
5.87303
5.01631
4.27403
3.67869
3.26297
3.05693
3.08437
3.34075
3.80032
4.43213
5.20332
6.0817
7.03729
8.04313
9.07557
10.1142
11.1417
12.1433
13.1064
14.0222
14.8841
15.6875
16.4293
17.1067
17.7173
18.258
18.7253
19.115
19.4227
19.6435
19.772
19.803
19.7335
19.5691
19.3154
18.9773
18.56
18.0679
17.505
16.8745
16.1793
15.4219
14.6048
13.7315
12.807
11.837
10.8323
9.80566
8.77214
7.7495
6.75861
5.82361
4.97199
4.23411
3.64234
3.22921
3.02472
2.41657
2.62742
3.00452
3.52256
4.15514
4.87675
5.66389
6.49569
7.35402
8.22337
9.09064
9.94487
10.7769
11.5799
12.3441
13.0629
13.7315
14.3459
14.9027
15.3982
15.8288
16.1904
16.479
16.6901
16.8191
16.8612
16.8121
16.6761
16.4579
16.1619
15.7923
15.3532
14.8485
14.282
13.6571
12.9777
12.2477
11.4726
10.6595
9.81764
8.95496
8.08117
7.20788
6.34892
5.52057
4.74182
4.03436
3.42237
2.93183
2.58919
2.41918
2.44185
2.65333
3.03207
3.55269
4.18871
4.91445
5.70626
6.54307
7.40653
8.28094
9.153
10.0116
10.8473
11.6527
12.4182
13.1371
13.8044
14.4162
14.9689
15.4589
15.8824
16.2355
16.5141
16.7139
16.8304
16.8586
16.7961
16.6478
16.4185
16.1127
15.7348
15.2889
14.7789
14.2084
13.5811
12.9004
12.1707
11.397
10.5868
9.74845
8.88998
8.02091
7.15264
6.29881
5.47553
4.70158
3.99847
3.39022
2.90269
2.56223
2.39352
1.75308
1.91093
2.19297
2.58031
3.0535
3.59393
4.18466
4.81082
5.45965
6.12048
6.7846
7.44518
8.09718
8.73678
9.35251
9.93674
10.4839
10.9895
11.4495
11.8601
12.2177
12.5183
12.7583
12.9339
13.0412
13.0761
13.0351
12.9217
12.7399
12.4934
12.186
11.8214
11.4034
10.9355
10.4218
9.86638
9.27387
8.65021
8.00354
7.34567
6.67991
6.0118
5.34872
4.69994
4.07675
3.49254
2.96281
2.50503
2.13821
1.88187
1.75454
1.77154
1.92988
2.21318
2.60251
3.07834
3.62197
4.21633
4.84643
5.49937
6.16435
6.83257
7.49711
8.15289
8.79497
9.41206
9.99655
10.5428
11.0464
11.5031
11.9093
12.2611
12.5548
12.7867
12.9532
13.0503
13.074
13.022
12.8987
12.7079
12.4536
12.1395
11.7693
11.3469
10.876
10.3604
9.8042
9.21216
8.59028
7.94703
7.29248
6.63037
5.96616
5.30711
4.66239
4.04315
3.46264
2.93625
2.48134
2.11682
1.86214
1.73581
1.06677
1.16485
1.33995
1.58026
1.87378
2.20908
2.5759
2.96533
3.36986
3.78344
4.20152
4.62122
5.04176
5.46321
5.8742
6.26787
6.63942
6.98496
7.30107
7.58448
7.83209
8.04083
8.20776
8.33001
8.40475
8.42903
8.40036
8.32126
8.19461
8.02317
7.80979
7.55738
7.26899
6.94776
6.597
6.22024
5.8215
5.40583
4.98048
4.55745
4.13529
3.71523
3.30058
2.89629
2.50884
2.14611
1.81744
1.53346
1.30583
1.14665
1.0675
1.07808
1.17648
1.35237
1.59394
1.88913
2.22645
2.59559
2.98753
3.39473
3.81107
4.23201
4.65472
5.07859
5.50214
5.91431
6.30837
6.67949
7.02378
7.33775
7.61816
7.86187
8.06588
8.22727
8.34323
8.41099
8.42758
8.39139
8.30544
8.17264
7.9958
7.77781
7.52165
7.23037
6.90715
6.55525
6.17821
5.7801
5.36609
4.94391
4.52361
4.10409
3.68666
3.27463
2.87294
2.48799
2.12761
1.80105
1.51887
1.29268
1.13455
1.05602
0.363042
0.396689
0.456657
0.538806
0.638927
0.753047
0.877617
1.00959
1.14647
1.28632
1.42793
1.57111
1.71785
1.87208
2.02527
2.17384
2.31551
2.44848
2.57109
2.68177
2.77901
2.86134
2.9274
2.97587
3.00554
3.01518
3.0038
2.97241
2.92221
2.85441
2.7703
2.67127
2.55876
2.43431
2.29951
2.15605
2.00582
1.85117
1.6959
1.54914
1.40541
1.26322
1.12302
0.9862
0.854849
0.731621
0.61971
0.522798
0.444953
0.390415
0.363256
0.366889
0.400643
0.460882
0.543456
0.64414
0.75894
0.884283
1.0171
1.15487
1.29568
1.43833
1.58282
1.7316
1.88687
2.04067
2.18951
2.33112
2.46369
2.58554
2.69508
2.79081
2.87129
2.93515
2.98113
3.00802
3.0146
3.00023
2.96612
2.91347
2.84354
2.75763
2.65716
2.54358
2.41842
2.28328
2.13984
1.99
1.83623
1.6829
1.53755
1.39485
1.25358
1.11426
0.978305
0.847788
0.725343
0.614138
0.517834
0.440479
0.386297
0.359349
)
;

boundaryField
{
    top
    {
        type            fixedValue;
        value           uniform 0;
    }
    bottom
    {
        type            fixedValue;
        value           uniform 36.5;
    }
    frontAndBack
    {
        type            empty;
    }
    left_cyc
    {
        type            cyclic;
    }
    right_cyc
    {
        type            cyclic;
    }
}


// ************************************************************************* //
