/*--------------------------------*- C++ -*----------------------------------*\
| =========                 |                                                 |
| \\      /  F ield         | OpenFOAM: The Open Source CFD Toolbox           |
|  \\    /   O peration     | Version:  2.3.0                                 |
|   \\  /    A nd           | Web:      www.OpenFOAM.org                      |
|    \\/     M anipulation  |                                                 |
\*---------------------------------------------------------------------------*/
FoamFile
{
    version     2.0;
    format      ascii;
    class       volVectorField;
    location    "16000";
    object      U;
}
// * * * * * * * * * * * * * * * * * * * * * * * * * * * * * * * * * * * * * //

dimensions      [0 1 -1 0 0 0 0];

internalField   nonuniform List<vector> 
3060
(
(0.606866 0 -0.409269)
(1.5559 0 -0.395357)
(2.48151 0 -0.369649)
(3.37034 0 -0.332806)
(4.21015 0 -0.285898)
(4.99005 0 -0.230733)
(5.70077 0 -0.170145)
(6.33466 0 -0.108)
(6.88543 0 -0.0486356)
(7.34735 0 0.00415873)
(7.71362 0 0.0480778)
(7.97455 0 0.0825656)
(8.11608 0 0.108375)
(8.11898 0 0.126794)
(7.96184 0 0.140449)
(7.6253 0 0.155505)
(7.10291 0 0.177792)
(6.40806 0 0.203477)
(5.57538 0 0.219858)
(4.66134 0 0.218478)
(3.72893 0 0.20162)
(2.83336 0 0.174706)
(2.01181 0 0.145348)
(1.27322 0 0.120564)
(0.601566 0 0.104742)
(-0.0344383 0 0.0997278)
(-0.672414 0 0.105949)
(-1.34965 0 0.122867)
(-2.09625 0 0.148408)
(-2.92591 0 0.177861)
(-3.82655 0 0.204016)
(-4.75821 0 0.219338)
(-5.66418 0 0.218683)
(-6.48122 0 0.200627)
(-7.15458 0 0.174767)
(-7.65202 0 0.153284)
(-7.96214 0 0.13855)
(-8.09363 0 0.124103)
(-8.06635 0 0.104282)
(-7.90202 0 0.0767608)
(-7.61929 0 0.0403071)
(-7.2318 0 -0.00561958)
(-6.74895 0 -0.0601313)
(-6.17756 0 -0.12057)
(-5.52369 0 -0.182921)
(-4.79412 0 -0.242818)
(-3.99706 0 -0.29653)
(-3.14234 0 -0.341404)
(-2.24134 0 -0.375788)
(-1.30673 0 -0.398703)
(-0.352249 0 -0.409528)
(0.607641 0 -0.407848)
(1.55821 0 -0.393752)
(2.48517 0 -0.367711)
(3.37503 0 -0.330416)
(4.21544 0 -0.282988)
(4.99542 0 -0.227322)
(5.70556 0 -0.166366)
(6.33807 0 -0.104094)
(6.88647 0 -0.0448842)
(7.34465 0 0.00752394)
(7.7053 0 0.0509404)
(7.95799 0 0.0849186)
(8.08784 0 0.110277)
(8.07484 0 0.128338)
(7.89758 0 0.142093)
(7.53755 0 0.158218)
(6.99127 0 0.181637)
(6.27544 0 0.206769)
(5.42862 0 0.220681)
(4.50961 0 0.216643)
(3.58121 0 0.197793)
(2.69667 0 0.170005)
(1.88916 0 0.140969)
(1.16325 0 0.117394)
(0.499838 0 0.103212)
(-0.133869 0 0.09997)
(-0.775831 0 0.107943)
(-1.46272 0 0.126424)
(-2.22275 0 0.152981)
(-3.06609 0 0.182444)
(-3.97618 0 0.207405)
(-4.90965 0 0.220548)
(-5.80816 0 0.217088)
(-6.60888 0 0.196965)
(-7.26012 0 0.171117)
(-7.73343 0 0.15092)
(-8.02067 0 0.137032)
(-8.13313 0 0.122502)
(-8.09107 0 0.10226)
(-7.91602 0 0.0742598)
(-7.62579 0 0.0372841)
(-7.23319 0 -0.00913194)
(-6.74696 0 -0.0639828)
(-6.17343 0 -0.124506)
(-5.51837 0 -0.186658)
(-4.78835 0 -0.246139)
(-3.99147 0 -0.29933)
(-3.13745 0 -0.34369)
(-2.23755 0 -0.377642)
(-1.30433 0 -0.400255)
(-0.35141 0 -0.410931)
(0.914975 0 -1.66237)
(2.35317 0 -1.64128)
(3.7749 0 -1.60258)
(5.1708 0 -1.54784)
(6.53246 0 -1.47889)
(7.85201 0 -1.39724)
(9.12118 0 -1.30346)
(10.3297 0 -1.19667)
(11.4635 0 -1.07424)
(12.5038 0 -0.931663)
(13.4263 0 -0.762491)
(14.2013 0 -0.558191)
(14.7937 0 -0.308536)
(15.162 0 -0.00394552)
(15.2575 0 0.35488)
(15.0259 0 0.739972)
(14.4228 0 1.09868)
(13.4334 0 1.38822)
(12.0766 0 1.58627)
(10.4286 0 1.68576)
(8.60705 0 1.68696)
(6.73189 0 1.60165)
(4.90081 0 1.47041)
(3.16228 0 1.34169)
(1.51337 0 1.25258)
(-0.084104 0 1.22315)
(-1.68421 0 1.25908)
(-3.34015 0 1.35327)
(-5.08725 0 1.48383)
(-6.92335 0 1.61189)
(-8.794 0 1.68866)
(-10.5972 0 1.67575)
(-12.2119 0 1.56418)
(-13.5226 0 1.35388)
(-14.4598 0 1.05324)
(-15.0096 0 0.68668)
(-15.1904 0 0.299922)
(-15.0493 0 -0.0551992)
(-14.6408 0 -0.354437)
(-14.013 0 -0.599295)
(-13.2066 0 -0.79974)
(-12.2566 0 -0.965868)
(-11.1922 0 -1.10596)
(-10.0371 0 -1.22623)
(-8.8098 0 -1.33093)
(-7.52376 0 -1.42246)
(-6.18906 0 -1.50146)
(-4.81404 0 -1.56721)
(-3.40678 0 -1.61813)
(-1.97603 0 -1.65244)
(-0.531415 0 -1.66872)
(0.916956 0 -1.66621)
(2.35887 0 -1.64502)
(3.78426 0 -1.60612)
(5.18376 0 -1.55108)
(6.54883 0 -1.48167)
(7.87143 0 -1.3993)
(9.14294 0 -1.3044)
(10.3525 0 -1.19586)
(11.4855 0 -1.07079)
(12.5219 0 -0.924443)
(13.4367 0 -0.750052)
(14.1991 0 -0.538801)
(14.7727 0 -0.280337)
(15.115 0 0.0343501)
(15.1757 0 0.401707)
(14.9001 0 0.788713)
(14.2477 0 1.14125)
(13.2076 0 1.41944)
(11.8065 0 1.6037)
(10.1293 0 1.68892)
(8.29671 0 1.6757)
(6.42699 0 1.58071)
(4.61155 0 1.44739)
(2.89044 0 1.32343)
(1.25387 0 1.24332)
(-0.340056 0 1.22463)
(-1.9463 0 1.27104)
(-3.61646 0 1.37337)
(-5.38133 0 1.50707)
(-7.23114 0 1.63091)
(-9.10315 0 1.69633)
(-10.8906 0 1.66883)
(-12.4714 0 1.543)
(-13.7352 0 1.31932)
(-14.6216 0 1.00839)
(-15.1229 0 0.637507)
(-15.2619 0 0.25481)
(-15.0884 0 -0.0909069)
(-14.6558 0 -0.380208)
(-14.0109 0 -0.616731)
(-13.1933 0 -0.810709)
(-12.2367 0 -0.972032)
(-11.1693 0 -1.10868)
(-10.0138 0 -1.22658)
(-8.78796 0 -1.32971)
(-7.50445 0 -1.42023)
(-6.17289 0 -1.49859)
(-4.80132 0 -1.56392)
(-3.39766 0 -1.61456)
(-1.97059 0 -1.64869)
(-0.529677 0 -1.66489)
(1.02565 0 -3.16194)
(2.63671 0 -3.12835)
(4.2262 0 -3.06627)
(5.78101 0 -2.97748)
(7.28806 0 -2.86391)
(8.73403 0 -2.72678)
(10.105 0 -2.56577)
(11.3864 0 -2.37848)
(12.5626 0 -2.1603)
(13.6175 0 -1.9047)
(14.5351 0 -1.60365)
(15.3001 0 -1.24809)
(15.8996 0 -0.828611)
(16.3239 0 -0.33661)
(16.565 0 0.235462)
(16.6057 0 0.895864)
(16.3901 0 1.64557)
(15.8201 0 2.43914)
(14.7995 0 3.14532)
(13.2772 0 3.6141)
(11.3203 0 3.81847)
(9.08646 0 3.80225)
(6.74782 0 3.64103)
(4.41688 0 3.43899)
(2.1333 0 3.28572)
(-0.115582 0 3.23309)
(-2.36587 0 3.29634)
(-4.65242 0 3.45645)
(-6.98366 0 3.65721)
(-9.31258 0 3.80561)
(-11.5188 0 3.79863)
(-13.4269 0 3.56402)
(-14.8861 0 3.06223)
(-15.8432 0 2.33477)
(-16.3585 0 1.53865)
(-16.5309 0 0.795755)
(-16.4557 0 0.143442)
(-16.1826 0 -0.421314)
(-15.7265 0 -0.906494)
(-15.0953 0 -1.31964)
(-14.2993 0 -1.66945)
(-13.3521 0 -1.9653)
(-12.2692 0 -2.21619)
(-11.067 0 -2.43)
(-9.76187 0 -2.61305)
(-8.36949 0 -2.7697)
(-6.90467 0 -2.90203)
(-5.38143 0 -3.01009)
(-3.81328 0 -3.09257)
(-2.21354 0 -3.14758)
(-0.595501 0 -3.17351)
(1.02745 0 -3.16951)
(2.64192 0 -3.13572)
(4.23455 0 -3.07321)
(5.79204 0 -2.98375)
(7.30106 0 -2.86913)
(8.74798 0 -2.73041)
(10.1186 0 -2.56702)
(11.3978 0 -2.37628)
(12.5699 0 -2.15326)
(13.6182 0 -1.8912)
(14.5266 0 -1.58185)
(15.2798 0 -1.21605)
(15.8652 0 -0.784464)
(16.2731 0 -0.278774)
(16.4956 0 0.308436)
(16.5118 0 0.985325)
(16.2584 0 1.74908)
(15.6343 0 2.5425)
(14.5458 0 3.22259)
(12.9565 0 3.65174)
(10.9516 0 3.82012)
(8.69701 0 3.77727)
(6.35875 0 3.60446)
(4.03762 0 3.4068)
(1.76313 0 3.2687)
(-0.482955 0 3.23586)
(-2.73805 0 3.31818)
(-5.03466 0 3.49119)
(-7.37438 0 3.6924)
(-9.69907 0 3.8246)
(-11.8772 0 3.78816)
(-13.731 0 3.51595)
(-15.1208 0 2.97549)
(-16.0128 0 2.22903)
(-16.4781 0 1.43798)
(-16.6168 0 0.710583)
(-16.5195 0 0.0745221)
(-16.2284 0 -0.475487)
(-15.7566 0 -0.947374)
(-15.1118 0 -1.3489)
(-14.3046 0 -1.68898)
(-13.3489 0 -1.97704)
(-12.26 0 -2.22192)
(-11.0541 0 -2.43128)
(-9.74736 0 -2.61119)
(-8.35495 0 -2.76568)
(-6.89135 0 -2.89657)
(-5.37026 0 -3.00368)
(-3.80491 0 -3.08554)
(-2.20838 0 -3.14017)
(-0.59379 0 -3.16593)
(1.07341 0 -4.83326)
(2.75755 0 -4.78137)
(4.414 0 -4.68495)
(6.02596 0 -4.54583)
(7.57675 0 -4.36594)
(9.04982 0 -4.14647)
(10.4289 0 -3.88727)
(11.6981 0 -3.58647)
(12.8425 0 -3.2405)
(13.8482 0 -2.84444)
(14.7026 0 -2.3924)
(15.395 0 -1.87781)
(15.9168 0 -1.29346)
(16.2608 0 -0.630793)
(16.4201 0 0.122637)
(16.3869 0 0.985069)
(16.1524 0 1.96757)
(15.7054 0 3.04561)
(15.0062 0 4.15424)
(13.9361 0 5.17979)
(12.3396 0 5.90716)
(10.2236 0 6.19366)
(7.76234 0 6.15229)
(5.15443 0 5.96673)
(2.51129 0 5.79528)
(-0.132801 0 5.73245)
(-2.77608 0 5.80616)
(-5.41516 0 5.98165)
(-8.00977 0 6.1567)
(-10.438 0 6.16777)
(-12.4972 0 5.83204)
(-14.0245 0 5.05642)
(-15.0376 0 4.00965)
(-15.6969 0 2.89679)
(-16.1109 0 1.82368)
(-16.3131 0 0.851369)
(-16.3142 0 -0.000717979)
(-16.1228 0 -0.745903)
(-15.7466 0 -1.40179)
(-15.1925 0 -1.98001)
(-14.4679 0 -2.48872)
(-13.5819 0 -2.93493)
(-12.5458 0 -3.3251)
(-11.3724 0 -3.66499)
(-10.0762 0 -3.95938)
(-8.67254 0 -4.21162)
(-7.17774 0 -4.42333)
(-5.60844 0 -4.59446)
(-3.98152 0 -4.72372)
(-2.31396 0 -4.80925)
(-0.622874 0 -4.84939)
(1.07454 0 -4.8432)
(2.76104 0 -4.79085)
(4.41944 0 -4.69349)
(6.03267 0 -4.5529)
(7.58376 0 -4.37088)
(9.05589 0 -4.14843)
(10.4325 0 -3.88519)
(11.6974 0 -3.57905)
(12.8356 0 -3.22626)
(13.8329 0 -2.82172)
(14.6769 0 -2.35947)
(15.3568 0 -1.83291)
(15.8641 0 -1.23483)
(16.1917 0 -0.556483)
(16.3325 0 0.215247)
(16.2787 0 1.09886)
(16.0212 0 2.10184)
(15.5474 0 3.19291)
(14.8081 0 4.30152)
(13.672 0 5.30066)
(11.9949 0 5.96415)
(9.81731 0 6.19131)
(7.32684 0 6.11855)
(4.71261 0 5.92946)
(2.07078 0 5.77412)
(-0.57248 0 5.73596)
(-3.21712 0 5.833)
(-5.85661 0 6.02045)
(-8.44052 0 6.18496)
(-10.8309 0 6.15662)
(-12.8211 0 5.7562)
(-14.268 0 4.92465)
(-15.2227 0 3.86047)
(-15.8468 0 2.75175)
(-16.2354 0 1.69424)
(-16.4152 0 0.743236)
(-16.3963 0 -0.0882917)
(-16.187 0 -0.815959)
(-15.7949 0 -1.45674)
(-15.2268 0 -2.02172)
(-14.4901 0 -2.51894)
(-13.5942 0 -2.95541)
(-12.5502 0 -3.33755)
(-11.3711 0 -3.67103)
(-10.071 0 -3.96044)
(-8.66532 0 -4.20892)
(-7.16989 0 -4.41787)
(-5.60115 0 -4.58704)
(-3.97567 0 -4.71495)
(-2.31018 0 -4.79965)
(-0.621503 0 -4.83941)
(1.08326 0 -6.55714)
(2.78125 0 -6.48465)
(4.44702 0 -6.34958)
(6.06118 0 -6.15397)
(7.60481 0 -5.89998)
(9.05959 0 -5.5892)
(10.4081 0 -5.22207)
(11.6343 0 -4.79752)
(12.7234 0 -4.31305)
(13.6624 0 -3.76497)
(14.4402 0 -3.14883)
(15.0471 0 -2.45968)
(15.4749 0 -1.69212)
(15.7169 0 -0.83972)
(15.7677 0 0.106223)
(15.6261 0 1.15675)
(15.2983 0 2.31858)
(14.7924 0 3.58461)
(14.1039 0 4.93274)
(13.207 0 6.29925)
(12.0104 0 7.53179)
(10.3282 0 8.39168)
(8.08183 0 8.71884)
(5.46901 0 8.69236)
(2.6925 0 8.5732)
(-0.139386 0 8.52018)
(-2.96737 0 8.57907)
(-5.72992 0 8.6929)
(-8.30989 0 8.68973)
(-10.4968 0 8.30401)
(-12.1108 0 7.38638)
(-13.2609 0 6.12494)
(-14.1257 0 4.7507)
(-14.786 0 3.40583)
(-15.2641 0 2.1465)
(-15.5625 0 0.992943)
(-15.6725 0 -0.0494088)
(-15.5889 0 -0.988215)
(-15.3136 0 -1.83421)
(-14.8522 0 -2.59557)
(-14.212 0 -3.27837)
(-13.4014 0 -3.8878)
(-12.4303 0 -4.42867)
(-11.3106 0 -4.90528)
(-10.0557 0 -5.32115)
(-8.68083 0 -5.67859)
(-7.2028 0 -5.97844)
(-5.63947 0 -6.2201)
(-4.00962 0 -6.40191)
(-2.33261 0 -6.52181)
(-0.628197 0 -6.57795)
(1.08359 0 -6.5693)
(2.78265 0 -6.49604)
(4.44902 0 -6.35945)
(6.06302 0 -6.1615)
(7.60543 0 -5.90421)
(9.05768 0 -5.58901)
(10.4021 0 -5.21614)
(11.6224 0 -4.78435)
(12.7038 0 -4.29097)
(13.6332 0 -3.73224)
(14.3993 0 -3.1037)
(14.9926 0 -2.40044)
(15.405 0 -1.61712)
(15.6297 0 -0.747282)
(15.6616 0 0.218)
(15.5004 0 1.28961)
(15.1535 0 2.47253)
(14.6278 0 3.75731)
(13.9162 0 5.11843)
(12.9875 0 6.48025)
(11.7344 0 7.67606)
(9.96517 0 8.45847)
(7.64983 0 8.71639)
(5.00409 0 8.66467)
(2.21623 0 8.5539)
(-0.61796 0 8.5235)
(-3.44176 0 8.60286)
(-6.18891 0 8.71804)
(-8.7272 0 8.67772)
(-10.8357 0 8.21401)
(-12.3683 0 7.22824)
(-13.47 0 5.93999)
(-14.3065 0 4.56726)
(-14.9449 0 3.2376)
(-15.4036 0 1.99784)
(-15.6826 0 0.865628)
(-15.7732 0 -0.155998)
(-15.671 0 -1.076)
(-15.3788 0 -1.90504)
(-14.9024 0 -2.65111)
(-14.2491 0 -3.32026)
(-13.4273 0 -3.91776)
(-12.447 0 -4.44845)
(-11.32 0 -4.9166)
(-10.0597 0 -5.32563)
(-8.68116 0 -5.67768)
(-7.20091 0 -5.9734)
(-5.63664 0 -6.21199)
(-4.00682 0 -6.39166)
(-2.33054 0 -6.5102)
(-0.627271 0 -6.56572)
(1.06335 0 -8.25283)
(2.72872 0 -8.15653)
(4.35876 0 -7.97693)
(5.93239 0 -7.71659)
(7.42933 0 -7.37843)
(8.83033 0 -6.9651)
(10.1176 0 -6.47843)
(11.2749 0 -5.9191)
(12.288 0 -5.28649)
(13.1449 0 -4.57889)
(13.8353 0 -3.79364)
(14.3506 0 -2.92735)
(14.6842 0 -1.97587)
(14.8306 0 -0.934135)
(14.787 0 0.203942)
(14.5544 0 1.44416)
(14.1402 0 2.7867)
(13.5552 0 4.22039)
(12.8095 0 5.72459)
(11.9081 0 7.26951)
(10.8332 0 8.79047)
(9.49086 0 10.1236)
(7.69067 0 11.0134)
(5.35061 0 11.3614)
(2.67507 0 11.4087)
(-0.136058 0 11.397)
(-2.93892 0 11.4017)
(-5.58698 0 11.3294)
(-7.87217 0 10.9249)
(-9.60956 0 9.97053)
(-10.9098 0 8.60028)
(-11.9581 0 7.06639)
(-12.836 0 5.51879)
(-13.5574 0 4.01604)
(-14.116 0 2.58636)
(-14.5014 0 1.24971)
(-14.7029 0 0.0160175)
(-14.7141 0 -1.11577)
(-14.5344 0 -2.15146)
(-14.1672 0 -3.09682)
(-13.6182 0 -3.95657)
(-12.8945 0 -4.73456)
(-12.005 0 -5.43393)
(-10.9605 0 -6.05712)
(-9.77366 0 -6.60561)
(-8.45945 0 -7.07978)
(-7.0346 0 -7.47878)
(-5.51758 0 -7.80066)
(-3.92819 0 -8.04275)
(-2.28724 0 -8.20226)
(-0.616245 0 -8.2769)
(1.06284 0 -8.26541)
(2.72796 0 -8.16799)
(4.35726 0 -7.98623)
(5.92937 0 -7.7226)
(7.42372 0 -7.37994)
(8.82083 0 -6.96076)
(10.1027 0 -6.46674)
(11.2529 0 -5.89841)
(12.2573 0 -5.25508)
(13.1036 0 -4.53498)
(13.7815 0 -3.73549)
(14.2827 0 -2.85328)
(14.6004 0 -1.88429)
(14.7294 0 -0.823552)
(14.6672 0 0.334899)
(14.4157 0 1.59628)
(13.9831 0 2.95917)
(13.3801 0 4.41056)
(12.6168 0 5.92859)
(11.6963 0 7.48048)
(10.5937 0 8.99114)
(9.19719 0 10.2765)
(7.31238 0 11.0823)
(4.90547 0 11.3684)
(2.19963 0 11.4011)
(-0.6187 0 11.3987)
(-3.40883 0 11.409)
(-6.01836 0 11.3109)
(-8.22664 0 10.8325)
(-9.88536 0 9.80052)
(-11.1401 0 8.3938)
(-12.1643 0 6.85606)
(-13.0237 0 5.31784)
(-13.7276 0 3.83005)
(-14.2681 0 2.41891)
(-14.6348 0 1.10305)
(-14.8174 0 -0.109581)
(-14.8102 0 -1.22136)
(-14.6134 0 -2.23847)
(-14.2308 0 -3.16676)
(-13.668 0 -4.01105)
(-12.9323 0 -4.77527)
(-12.0326 0 -5.46262)
(-10.9797 0 -6.07554)
(-9.78624 0 -6.61547)
(-8.467 0 -7.08267)
(-7.03858 0 -7.47615)
(-5.51924 0 -7.79382)
(-3.92852 0 -8.0329)
(-2.28697 0 -8.19048)
(-0.615798 0 -8.26422)
(1.01903 0 -9.89933)
(2.61373 0 -9.77765)
(4.17129 0 -9.55071)
(5.66973 0 -9.2218)
(7.08812 0 -8.79494)
(8.40693 0 -8.2742)
(9.6084 0 -7.66313)
(10.6768 0 -6.96439)
(11.5985 0 -6.17947)
(12.3623 0 -5.30875)
(12.9591 0 -4.35151)
(13.3815 0 -3.30617)
(13.6243 0 -2.1704)
(13.6841 0 -0.941341)
(13.5601 0 0.383758)
(13.2552 0 1.80605)
(12.7771 0 3.32162)
(12.1364 0 4.91839)
(11.3444 0 6.57609)
(10.4125 0 8.26538)
(9.34745 0 9.94297)
(8.13288 0 11.5314)
(6.66452 0 12.8596)
(4.76906 0 13.7047)
(2.43337 0 14.063)
(-0.121571 0 14.1403)
(-2.66381 0 14.0323)
(-4.95925 0 13.6229)
(-6.8001 0 12.7128)
(-8.22927 0 11.3386)
(-9.42069 0 9.7285)
(-10.4662 0 8.04104)
(-11.3774 0 6.34737)
(-12.1465 0 4.689)
(-12.762 0 3.09411)
(-13.2125 0 1.5822)
(-13.4876 0 0.164541)
(-13.5803 0 -1.15553)
(-13.4882 0 -2.37927)
(-13.2124 0 -3.50924)
(-12.7568 0 -4.54798)
(-12.1271 0 -5.49747)
(-11.3309 0 -6.35901)
(-10.378 0 -7.13296)
(-9.28021 0 -7.81868)
(-8.05186 0 -8.41441)
(-6.70934 0 -8.91732)
(-5.27112 0 -9.32375)
(-3.75735 0 -9.62969)
(-2.18954 0 -9.83131)
(-0.590163 0 -9.92565)
(1.01773 0 -9.91112)
(2.61093 0 -9.78799)
(4.16651 0 -9.55824)
(5.66221 0 -9.22515)
(7.07684 0 -8.79262)
(8.39067 0 -8.26465)
(9.58574 0 -7.64469)
(10.6462 0 -6.93531)
(11.5584 0 -6.13797)
(12.3111 0 -5.25303)
(12.8951 0 -4.27985)
(13.3033 0 -3.21697)
(13.5304 0 -2.06221)
(13.5732 0 -0.812973)
(13.4315 0 0.533117)
(13.1087 0 1.97648)
(12.6131 0 3.51195)
(11.9555 0 5.12596)
(11.1475 0 6.79694)
(10.2 0 8.4936)
(9.11846 0 10.1698)
(7.87782 0 11.7377)
(6.35575 0 13.0082)
(4.38511 0 13.7744)
(1.99941 0 14.0823)
(-0.56801 0 14.138)
(-3.08831 0 14.0035)
(-5.32343 0 13.5332)
(-7.0914 0 12.545)
(-8.47519 0 11.1238)
(-9.6448 0 9.49988)
(-10.6744 0 7.8139)
(-11.5699 0 6.12939)
(-12.3228 0 4.48548)
(-12.9212 0 2.90867)
(-13.3541 0 1.41711)
(-13.6112 0 0.0205972)
(-13.6862 0 -1.27869)
(-13.5774 0 -2.48258)
(-13.2863 0 -3.59396)
(-12.8167 0 -4.61558)
(-12.1746 0 -5.5496)
(-11.3677 0 -6.39739)
(-10.4056 0 -7.15939)
(-9.30031 0 -7.83492)
(-8.0659 0 -8.42218)
(-6.7187 0 -8.91824)
(-5.27697 0 -9.31936)
(-3.76065 0 -9.62142)
(-2.19099 0 -9.82055)
(-0.590183 0 -9.91372)
(0.954927 0 -11.4574)
(2.44817 0 -11.3095)
(3.90359 0 -11.0336)
(5.29896 0 -10.6342)
(6.61331 0 -10.1164)
(7.82734 0 -9.48621)
(8.92377 0 -8.74915)
(9.88759 0 -7.91011)
(10.7062 0 -6.97294)
(11.3693 0 -5.94028)
(11.8691 0 -4.81359)
(12.1999 0 -3.59328)
(12.3579 0 -2.27906)
(12.3417 0 -0.870441)
(12.1522 0 0.632346)
(11.7938 0 2.22671)
(11.2743 0 3.90519)
(10.604 0 5.65365)
(9.79469 0 7.45105)
(8.85906 0 9.26945)
(7.8085 0 11.0721)
(6.65085 0 12.8055)
(5.36427 0 14.3706)
(3.84387 0 15.5879)
(1.99067 0 16.2938)
(-0.096805 0 16.4942)
(-2.16981 0 16.2333)
(-3.98638 0 15.4611)
(-5.47304 0 14.1885)
(-6.73925 0 12.5908)
(-7.88162 0 10.8394)
(-8.91552 0 9.02609)
(-9.83238 0 7.20137)
(-10.6205 0 5.40095)
(-11.2673 0 3.652)
(-11.7611 0 1.97496)
(-12.0916 0 0.383365)
(-12.2516 0 -1.11577)
(-12.2371 0 -2.51999)
(-12.0476 0 -3.8289)
(-11.6849 0 -5.04271)
(-11.1532 0 -6.16133)
(-10.4587 0 -7.18394)
(-9.60979 0 -8.1087)
(-8.61739 0 -8.93259)
(-7.4948 0 -9.65149)
(-6.25777 0 -10.2603)
(-4.9243 0 -10.7534)
(-3.51438 0 -11.125)
(-2.04958 0 -11.3701)
(-0.552664 0 -11.4848)
(0.952932 0 -11.4672)
(2.44356 0 -11.3175)
(3.89593 0 -11.0382)
(5.28753 0 -10.6337)
(6.59718 0 -10.1092)
(7.8054 0 -9.47051)
(8.89474 0 -8.72316)
(9.85011 0 -7.872)
(10.6588 0 -6.9209)
(11.3107 0 -5.87252)
(11.7979 0 -4.72843)
(12.1147 0 -3.48923)
(12.2577 0 -2.15486)
(12.2255 0 -0.7252)
(12.0196 0 0.798982)
(11.6447 0 2.41427)
(11.109 0 4.11207)
(10.4233 0 5.87697)
(9.59961 0 7.68683)
(8.65047 0 9.51237)
(7.58698 0 11.3152)
(6.41565 0 13.0373)
(5.1036 0 14.5685)
(3.53552 0 15.7197)
(1.63295 0 16.3497)
(-0.469579 0 16.4859)
(-2.51667 0 16.1581)
(-4.2802 0 15.3092)
(-5.72471 0 13.9784)
(-6.97023 0 12.3543)
(-8.0996 0 10.5953)
(-9.12048 0 8.78429)
(-10.0236 0 6.96825)
(-10.797 0 5.18144)
(-11.4282 0 3.44981)
(-11.9057 0 1.79262)
(-12.2196 0 0.22215)
(-12.3631 0 -1.25566)
(-12.3329 0 -2.63907)
(-12.1285 0 -3.92818)
(-11.7522 0 -5.12349)
(-11.2082 0 -6.22517)
(-10.5027 0 -7.23253)
(-9.64426 0 -8.14381)
(-8.64372 0 -8.95606)
(-7.51433 0 -9.66511)
(-6.27175 0 -10.2659)
(-4.93381 0 -10.7526)
(-3.52031 0 -11.1196)
(-2.05258 0 -11.3616)
(-0.553108 0 -11.4749)
(0.87481 0 -12.9005)
(2.24169 0 -12.7262)
(3.57107 0 -12.4014)
(4.84105 0 -11.9314)
(6.03112 0 -11.3232)
(7.12268 0 -10.5845)
(8.0993 0 -9.72321)
(8.94698 0 -8.7466)
(9.65429 0 -7.66102)
(10.2123 0 -6.47153)
(10.6147 0 -5.18191)
(10.8571 0 -3.79479)
(10.9378 0 -2.31207)
(10.857 0 -0.735606)
(10.6174 0 0.931646)
(10.2246 0 2.68408)
(9.68684 0 4.51147)
(9.0147 0 6.39771)
(8.22038 0 8.32043)
(7.31741 0 10.2509)
(6.32006 0 12.1537)
(5.24304 0 13.9829)
(4.09807 0 15.6655)
(2.85961 0 17.0668)
(1.46563 0 17.9915)
(-0.0675527 0 18.2871)
(-1.59103 0 17.9097)
(-2.96563 0 16.9152)
(-4.18931 0 15.466)
(-5.32428 0 13.7543)
(-6.3901 0 11.9066)
(-7.37367 0 9.99109)
(-8.26037 0 8.05187)
(-9.03595 0 6.12371)
(-9.68696 0 4.23467)
(-10.2014 0 2.40658)
(-10.5688 0 0.655054)
(-10.7812 0 -1.01002)
(-10.8336 0 -2.58316)
(-10.7235 0 -4.06127)
(-10.4511 0 -5.44217)
(-10.0187 0 -6.72352)
(-9.43085 0 -7.90224)
(-8.69472 0 -8.97406)
(-7.81982 0 -9.9335)
(-6.8183 0 -10.7739)
(-5.7049 0 -11.4877)
(-4.49679 0 -12.067)
(-3.21329 0 -12.5043)
(-1.87553 0 -12.793)
(-0.505946 0 -12.9281)
(0.872246 0 -12.9073)
(2.2356 0 -12.7309)
(3.56105 0 -12.4021)
(4.82647 0 -11.9263)
(6.01116 0 -11.3104)
(7.09633 0 -10.5621)
(8.06545 0 -9.68922)
(8.90446 0 -8.69921)
(9.6019 0 -7.59838)
(10.1489 0 -6.3919)
(10.5391 0 -5.0837)
(10.7684 0 -3.67662)
(10.8351 0 -2.17289)
(10.7397 0 -0.57482)
(10.4853 0 1.11401)
(10.0779 0 2.88712)
(9.52594 0 4.73323)
(8.84048 0 6.63506)
(8.03391 0 8.56916)
(7.11996 0 10.5057)
(6.11297 0 12.4081)
(5.02788 0 14.228)
(3.87369 0 15.8851)
(2.61583 0 17.2332)
(1.19538 0 18.0748)
(-0.348174 0 18.2741)
(-1.85464 0 17.8021)
(-3.20293 0 16.7313)
(-4.41053 0 15.2373)
(-5.53734 0 13.5055)
(-6.59467 0 11.6512)
(-7.56825 0 9.73714)
(-8.44361 0 7.80548)
(-9.20662 0 5.88991)
(-9.84404 0 4.01738)
(-10.3441 0 2.20861)
(-10.6967 0 0.478066)
(-10.8943 0 -1.16539)
(-10.9322 0 -2.71707)
(-10.8083 0 -4.17446)
(-10.5229 0 -5.53576)
(-10.0786 0 -6.79896)
(-9.47996 0 -7.96113)
(-8.73422 0 -9.01818)
(-7.85091 0 -9.96468)
(-6.84215 0 -10.794)
(-5.72259 0 -11.4986)
(-4.50929 0 -12.0707)
(-3.22139 0 -12.5026)
(-1.87981 0 -12.7877)
(-0.506752 0 -12.9212)
(0.781767 0 -14.206)
(2.00222 0 -14.0059)
(3.1864 0 -13.6331)
(4.31323 0 -13.0943)
(5.36315 0 -12.3982)
(6.31862 0 -11.5545)
(7.16439 0 -10.5736)
(7.88778 0 -9.46521)
(8.47875 0 -8.2384)
(8.92988 0 -6.90075)
(9.2363 0 -5.45847)
(9.39554 0 -3.9165)
(9.40742 0 -2.279)
(9.27401 0 -0.550155)
(8.9997 0 1.26464)
(8.59129 0 3.15721)
(8.058 0 5.11499)
(7.41109 0 7.11994)
(6.66363 0 9.14804)
(5.83049 0 11.169)
(4.92853 0 13.1458)
(3.97721 0 15.0318)
(2.99981 0 16.7606)
(2.01163 0 18.2157)
(1.00042 0 19.2088)
(-0.0419088 0 19.5381)
(-1.08163 0 19.1196)
(-2.08859 0 18.0561)
(-3.07405 0 16.5542)
(-4.04761 0 14.7951)
(-4.99173 0 12.888)
(-5.88337 0 10.8957)
(-6.70339 0 8.86338)
(-7.43515 0 6.82737)
(-8.06394 0 4.81731)
(-8.57687 0 2.85671)
(-8.96288 0 0.963161)
(-9.21303 0 -0.851025)
(-9.32081 0 -2.57777)
(-9.2822 0 -4.2115)
(-9.09548 0 -5.74769)
(-8.76128 0 -7.18168)
(-8.28257 0 -8.50798)
(-7.6648 0 -9.71984)
(-6.91605 0 -10.8091)
(-6.04707 0 -11.7665)
(-5.0713 0 -12.582)
(-4.00471 0 -13.2451)
(-2.86557 0 -13.7464)
(-1.67408 0 -14.0776)
(-0.451811 0 -14.2327)
(0.77878 0 -14.2088)
(1.99502 0 -14.0064)
(3.17463 0 -13.6292)
(4.29634 0 -13.0839)
(5.34044 0 -12.3792)
(6.28922 0 -11.5249)
(7.12738 0 -10.5314)
(7.84217 0 -9.40856)
(8.42357 0 -8.16543)
(8.86421 0 -6.80978)
(9.15931 0 -5.34801)
(9.30652 0 -3.78533)
(9.30587 0 -2.12628)
(9.15967 0 -0.375554)
(8.87259 0 1.46076)
(8.4518 0 3.37359)
(7.90683 0 5.34933)
(7.24926 0 7.36883)
(6.49245 0 9.407)
(5.65162 0 11.4325)
(4.74398 0 13.4069)
(3.78963 0 15.282)
(2.81206 0 16.9859)
(1.8229 0 18.3914)
(0.806898 0 19.3013)
(-0.237983 0 19.5232)
(-1.27369 0 19.0016)
(-2.27663 0 17.8639)
(-3.26187 0 16.3202)
(-4.23463 0 14.5408)
(-5.17493 0 12.6253)
(-6.06031 0 10.6326)
(-6.87217 0 8.60638)
(-7.59419 0 6.58171)
(-8.21199 0 4.58719)
(-8.713 0 2.64522)
(-9.08644 0 0.772322)
(-9.32373 0 -1.02022)
(-9.41872 0 -2.72516)
(-9.36763 0 -4.33756)
(-9.16901 0 -5.85336)
(-8.82364 0 -7.26825)
(-8.33462 0 -8.57698)
(-7.70748 0 -9.77298)
(-6.95034 0 -10.8482)
(-6.07395 0 -11.7935)
(-5.09168 0 -12.5988)
(-4.01943 0 -13.2539)
(-2.87531 0 -13.7492)
(-1.67934 0 -14.0764)
(-0.452905 0 -14.2296)
(0.678287 0 -15.3557)
(1.73616 0 -15.1309)
(2.75979 0 -14.7125)
(3.72942 0 -14.1082)
(4.62686 0 -13.3286)
(5.43596 0 -12.3858)
(6.14299 0 -11.2924)
(6.73678 0 -10.061)
(7.20886 0 -8.70312)
(7.55344 0 -7.22909)
(7.76728 0 -5.64758)
(7.8496 0 -3.96592)
(7.80194 0 -2.19055)
(7.62806 0 -0.327907)
(7.33394 0 1.61435)
(6.92777 0 3.62575)
(6.41987 0 5.69161)
(5.82251 0 7.79197)
(5.14987 0 9.90085)
(4.41825 0 11.9857)
(3.6466 0 14.0065)
(2.85735 0 15.9132)
(2.07778 0 17.6372)
(1.33565 0 19.0701)
(0.641089 0 20.042)
(-0.0231299 0 20.364)
(-0.688977 0 19.9541)
(-1.38761 0 18.9122)
(-2.1336 0 17.4308)
(-2.91388 0 15.6732)
(-3.69998 0 13.7419)
(-4.4651 0 11.7025)
(-5.18722 0 9.60348)
(-5.84769 0 7.48415)
(-6.43042 0 5.37634)
(-6.92143 0 3.30549)
(-7.30865 0 1.29119)
(-7.58197 0 -0.652114)
(-7.7335 0 -2.514)
(-7.75756 0 -4.2866)
(-7.65076 0 -5.96308)
(-7.41198 0 -7.53644)
(-7.04249 0 -8.99872)
(-6.54609 0 -10.3406)
(-5.92923 0 -11.5512)
(-5.20108 0 -12.6187)
(-4.37352 0 -13.5301)
(-3.46104 0 -14.2728)
(-2.48046 0 -14.835)
(-1.45059 0 -15.2068)
(-0.391706 0 -15.381)
(0.675032 0 -15.3542)
(1.72823 0 -15.1268)
(2.7469 0 -14.7035)
(3.71111 0 -14.0921)
(4.60252 0 -13.3033)
(5.40492 0 -12.349)
(6.10447 0 -11.2422)
(6.69003 0 -9.9954)
(7.15313 0 -8.62041)
(7.48806 0 -7.12764)
(7.69171 0 -5.52602)
(7.76344 0 -3.8232)
(7.70499 0 -2.02605)
(7.52038 0 -0.141566)
(7.21586 0 1.82186)
(6.79992 0 3.85286)
(6.28322 0 5.9357)
(5.67832 0 8.04932)
(4.99976 0 10.1666)
(4.26424 0 12.2539)
(3.49121 0 14.2698)
(2.70383 0 16.1622)
(1.93015 0 17.8583)
(1.19665 0 19.2411)
(0.50917 0 20.132)
(-0.152932 0 20.3495)
(-0.822387 0 19.8394)
(-1.52895 0 18.725)
(-2.28317 0 17.2004)
(-3.06824 0 15.4193)
(-3.85526 0 13.4764)
(-4.61827 0 11.4341)
(-5.33589 0 9.3392)
(-5.98996 0 7.22964)
(-6.56477 0 5.13614)
(-7.04666 0 3.08303)
(-7.42387 0 1.08878)
(-7.68663 0 -0.833134)
(-7.82733 0 -2.67318)
(-7.8406 0 -4.42416)
(-7.72324 0 -6.07976)
(-7.47434 0 -7.63336)
(-7.09532 0 -9.0773)
(-6.59008 0 -10.4025)
(-5.96514 0 -11.5982)
(-5.22967 0 -12.6527)
(-4.39555 0 -13.5532)
(-3.47718 0 -14.2871)
(-2.49128 0 -14.8427)
(-1.45652 0 -15.2101)
(-0.393009 0 -15.3823)
(0.566367 0 -16.3352)
(1.44861 0 -16.0874)
(2.29944 0 -15.6264)
(3.10081 0 -14.9614)
(3.83627 0 -14.1048)
(4.49145 0 -13.0707)
(5.05433 0 -11.8744)
(5.5155 0 -10.5311)
(5.86818 0 -9.05509)
(6.10824 0 -7.45919)
(6.23411 0 -5.75465)
(6.24665 0 -3.95118)
(6.14902 0 -2.05748)
(5.94654 0 -0.0821849)
(5.64666 0 1.96491)
(5.25887 0 4.07126)
(4.79459 0 6.22022)
(4.26706 0 8.38989)
(3.69137 0 10.5522)
(3.08477 0 12.6722)
(2.46704 0 14.7067)
(1.86114 0 16.6017)
(1.29354 0 18.2859)
(0.790756 0 19.6569)
(0.36421 0 20.5688)
(-0.00979842 0 20.867)
(-0.386978 0 20.4857)
(-0.820839 0 19.5053)
(-1.33074 0 18.0838)
(-1.90243 0 16.3624)
(-2.50883 0 14.4392)
(-3.12379 0 12.3829)
(-3.72467 0 10.2459)
(-4.29196 0 8.07052)
(-4.80866 0 5.89102)
(-5.25983 0 3.73491)
(-5.63243 0 1.62368)
(-5.91524 0 -0.426201)
(-6.09901 0 -2.4022)
(-6.17659 0 -4.29425)
(-6.14298 0 -6.09329)
(-5.99543 0 -7.78998)
(-5.73356 0 -9.37389)
(-5.35947 0 -10.8331)
(-4.87792 0 -12.1542)
(-4.29634 0 -13.3223)
(-3.62485 0 -14.322)
(-2.87617 0 -15.1382)
(-2.06533 0 -15.7569)
(-1.20937 0 -16.1664)
(-0.326789 0 -16.3584)
(0.563 0 -16.3288)
(1.44036 0 -16.0783)
(2.28606 0 -15.6121)
(3.08194 0 -14.9396)
(3.81144 0 -14.073)
(4.46012 0 -13.0269)
(5.01594 0 -11.8165)
(5.46948 0 -10.4572)
(5.81403 0 -8.9635)
(6.04555 0 -7.34838)
(6.16261 0 -5.6234)
(6.16623 0 -3.79863)
(6.05978 0 -1.88324)
(5.84885 0 0.113555)
(5.54115 0 2.18119)
(5.14646 0 4.3062)
(4.67649 0 6.47089)
(4.14478 0 8.65223)
(3.56679 0 10.821)
(2.96014 0 12.941)
(2.34513 0 14.9675)
(1.74529 0 16.8445)
(1.1876 0 18.4971)
(0.697651 0 19.8166)
(0.282476 0 20.6515)
(-0.0877932 0 20.8538)
(-0.471245 0 20.3799)
(-0.917478 0 19.3294)
(-1.4397 0 17.8624)
(-2.02026 0 16.1136)
(-2.63177 0 14.1753)
(-3.24864 0 12.1132)
(-3.84882 0 9.97801)
(-4.41326 0 7.81054)
(-4.92533 0 5.64386)
(-5.37043 0 3.5043)
(-5.73582 0 1.41228)
(-6.01057 0 -0.616783)
(-6.18573 0 -2.57121)
(-6.25441 0 -4.44167)
(-6.21185 0 -6.21963)
(-6.05549 0 -7.89619)
(-5.78512 0 -9.46126)
(-5.40298 0 -10.9032)
(-4.9139 0 -12.2087)
(-4.32536 0 -13.3632)
(-3.64748 0 -14.3514)
(-2.89293 0 -15.1582)
(-2.07668 0 -15.7699)
(-1.21565 0 -16.1747)
(-0.328218 0 -16.3645)
(0.44761 0 -17.1326)
(1.14372 0 -16.864)
(1.81194 0 -16.3647)
(2.43636 0 -15.6451)
(3.00266 0 -14.7193)
(3.49849 0 -13.6039)
(3.91383 0 -12.3165)
(4.24113 0 -10.8748)
(4.47542 0 -9.29587)
(4.61426 0 -7.59504)
(4.65766 0 -5.786)
(4.60802 0 -3.88083)
(4.46994 0 -1.89044)
(4.25012 0 0.17444)
(3.95727 0 2.302)
(3.60193 0 4.4778)
(3.19638 0 6.68342)
(2.75447 0 8.89519)
(2.29173 0 11.0832)
(1.8254 0 13.2101)
(1.37469 0 15.2304)
(0.960755 0 17.0875)
(0.605954 0 18.7096)
(0.329982 0 20.0019)
(0.137417 0 20.8429)
(0.00021942 0 21.1138)
(-0.140365 0 20.7657)
(-0.340939 0 19.8585)
(-0.625447 0 18.5143)
(-0.986682 0 16.852)
(-1.40418 0 14.9635)
(-1.85557 0 12.9183)
(-2.31985 0 10.7717)
(-2.77803 0 8.56813)
(-3.213 0 6.3442)
(-3.60941 0 4.12926)
(-3.95354 0 1.94659)
(-4.2333 0 -0.185546)
(-4.43834 0 -2.25266)
(-4.56023 0 -4.24264)
(-4.59258 0 -6.14425)
(-4.53114 0 -7.94587)
(-4.37398 0 -9.63469)
(-4.12157 0 -11.1962)
(-3.77692 0 -12.6144)
(-3.34564 0 -13.8718)
(-2.83591 0 -14.9503)
(-2.25841 0 -15.8324)
(-1.6261 0 -16.5018)
(-0.953846 0 -16.9453)
(-0.257984 0 -17.1534)
(0.444281 0 -17.1214)
(1.13551 0 -16.8499)
(1.79867 0 -16.3451)
(2.41777 0 -15.6176)
(2.9784 0 -14.6815)
(3.46818 0 -13.5535)
(3.87708 0 -12.2516)
(4.1976 0 -10.7935)
(4.42483 0 -9.1965)
(4.55644 0 -7.47623)
(4.59261 0 -5.64671)
(4.53591 0 -3.72039)
(4.39117 0 -1.70868)
(4.16533 0 0.377058)
(3.86735 0 2.52425)
(3.50806 0 4.71751)
(3.09999 0 6.93737)
(2.65728 0 9.15901)
(2.19575 0 11.3513)
(1.73298 0 13.4756)
(1.28851 0 15.4849)
(0.883818 0 17.3207)
(0.541302 0 18.9082)
(0.279451 0 20.1485)
(0.0987982 0 20.9174)
(-0.0345297 0 21.102)
(-0.181617 0 20.6701)
(-0.395264 0 19.696)
(-0.693663 0 18.3049)
(-1.06641 0 16.6119)
(-1.49233 0 14.705)
(-1.9492 0 12.6512)
(-2.41637 0 10.5038)
(-2.87518 0 8.30614)
(-3.30884 0 6.09331)
(-3.70231 0 3.89351)
(-4.04212 0 1.72892)
(-4.31646 0 -0.383239)
(-4.51525 0 -2.42935)
(-4.63031 0 -4.39806)
(-4.65549 0 -6.27869)
(-4.58676 0 -8.0601)
(-4.42235 0 -9.72982)
(-4.1629 0 -11.2737)
(-3.81151 0 -12.6759)
(-3.37385 0 -13.9191)
(-2.85814 0 -14.9857)
(-2.27503 0 -15.8579)
(-1.63745 0 -16.52)
(-0.960181 0 -16.9586)
(-0.259464 0 -17.1644)
(0.323328 0 -17.7384)
(0.824832 0 -17.4518)
(1.30265 0 -16.9191)
(1.74339 0 -16.1522)
(2.13516 0 -15.1669)
(2.46795 0 -13.9819)
(2.73391 0 -12.6171)
(2.92749 0 -11.0927)
(3.04554 0 -9.42822)
(3.08728 0 -7.64144)
(3.05423 0 -5.74842)
(2.95013 0 -3.76346)
(2.78081 0 -1.69959)
(2.55408 0 0.430485)
(2.27956 0 2.6131)
(1.96851 0 4.83216)
(1.63365 0 7.06769)
(1.28898 0 9.29457)
(0.949723 0 11.4814)
(0.632224 0 13.5894)
(0.353789 0 15.5716)
(0.132159 0 17.371)
(-0.0160159 0 18.9178)
(-0.0792896 0 20.1265)
(-0.0610527 0 20.8981)
(0.0084097 0 21.1432)
(0.0747352 0 20.8267)
(0.0852431 0 19.9916)
(0.0129313 0 18.7306)
(-0.14326 0 17.1417)
(-0.370911 0 15.3083)
(-0.653074 0 13.2986)
(-0.971977 0 11.1684)
(-1.31038 0 8.96369)
(-1.652 0 6.72241)
(-1.98173 0 4.47545)
(-2.28566 0 2.24757)
(-2.55123 0 0.0585982)
(-2.76734 0 -2.07527)
(-2.92459 0 -4.14003)
(-3.01545 0 -6.1224)
(-3.03444 0 -8.00859)
(-2.9782 0 -9.78348)
(-2.84566 0 -11.4302)
(-2.63813 0 -12.9301)
(-2.35929 0 -14.2633)
(-2.01527 0 -15.4093)
(-1.61451 0 -16.3481)
(-1.16757 0 -17.0615)
(-0.686828 0 -17.5346)
(-0.186048 0 -17.7566)
(0.320176 0 -17.7224)
(0.817023 0 -17.4327)
(1.29006 0 -16.8944)