/*--------------------------------*- C++ -*----------------------------------*\
| =========                 |                                                 |
| \\      /  F ield         | OpenFOAM: The Open Source CFD Toolbox           |
|  \\    /   O peration     | Version:  2.3.0                                 |
|   \\  /    A nd           | Web:      www.OpenFOAM.org                      |
|    \\/     M anipulation  |                                                 |
\*---------------------------------------------------------------------------*/
FoamFile
{
    version     2.0;
    format      ascii;
    class       volVectorField;
    location    "16000";
    object      U;
}
// * * * * * * * * * * * * * * * * * * * * * * * * * * * * * * * * * * * * * //

dimensions      [0 1 -1 0 0 0 0];

internalField   nonuniform List<vector> 
3060
(
(6.06866e-06 0 -4.09269e-06)
(1.5559e-05 0 -3.95357e-06)
(2.48151e-05 0 -3.69649e-06)
(3.37034e-05 0 -3.32806e-06)
(4.21015e-05 0 -2.85898e-06)
(4.99005e-05 0 -2.30733e-06)
(5.70077e-05 0 -1.70145e-06)
(6.33466e-05 0 -1.08e-06)
(6.88543e-05 0 -4.86356e-07)
(7.34735e-05 0 4.15873e-08)
(7.71362e-05 0 4.80778e-07)
(7.97455e-05 0 8.25656e-07)
(8.11608e-05 0 1.08375e-06)
(8.11898e-05 0 1.26794e-06)
(7.96184e-05 0 1.40449e-06)
(7.6253e-05 0 1.55505e-06)
(7.10291e-05 0 1.77792e-06)
(6.40806e-05 0 2.03477e-06)
(5.57538e-05 0 2.19858e-06)
(4.66134e-05 0 2.18478e-06)
(3.72893e-05 0 2.0162e-06)
(2.83336e-05 0 1.74706e-06)
(2.01181e-05 0 1.45348e-06)
(1.27322e-05 0 1.20564e-06)
(6.01566e-06 0 1.04742e-06)
(-3.44383e-07 0 9.97278e-07)
(-6.72414e-06 0 1.05949e-06)
(-1.34965e-05 0 1.22867e-06)
(-2.09625e-05 0 1.48408e-06)
(-2.92591e-05 0 1.77861e-06)
(-3.82655e-05 0 2.04016e-06)
(-4.75821e-05 0 2.19338e-06)
(-5.66418e-05 0 2.18683e-06)
(-6.48122e-05 0 2.00627e-06)
(-7.15458e-05 0 1.74767e-06)
(-7.65202e-05 0 1.53284e-06)
(-7.96214e-05 0 1.3855e-06)
(-8.09363e-05 0 1.24103e-06)
(-8.06635e-05 0 1.04282e-06)
(-7.90202e-05 0 7.67608e-07)
(-7.61929e-05 0 4.03071e-07)
(-7.2318e-05 0 -5.61958e-08)
(-6.74895e-05 0 -6.01313e-07)
(-6.17756e-05 0 -1.2057e-06)
(-5.52369e-05 0 -1.82921e-06)
(-4.79412e-05 0 -2.42818e-06)
(-3.99706e-05 0 -2.9653e-06)
(-3.14234e-05 0 -3.41404e-06)
(-2.24134e-05 0 -3.75788e-06)
(-1.30673e-05 0 -3.98703e-06)
(-3.52249e-06 0 -4.09528e-06)
(6.07641e-06 0 -4.07848e-06)
(1.55821e-05 0 -3.93752e-06)
(2.48517e-05 0 -3.67711e-06)
(3.37503e-05 0 -3.30416e-06)
(4.21544e-05 0 -2.82988e-06)
(4.99542e-05 0 -2.27322e-06)
(5.70556e-05 0 -1.66366e-06)
(6.33807e-05 0 -1.04094e-06)
(6.88647e-05 0 -4.48842e-07)
(7.34465e-05 0 7.52394e-08)
(7.7053e-05 0 5.09404e-07)
(7.95799e-05 0 8.49186e-07)
(8.08784e-05 0 1.10277e-06)
(8.07484e-05 0 1.28338e-06)
(7.89758e-05 0 1.42093e-06)
(7.53755e-05 0 1.58218e-06)
(6.99127e-05 0 1.81637e-06)
(6.27544e-05 0 2.06769e-06)
(5.42862e-05 0 2.20681e-06)
(4.50961e-05 0 2.16643e-06)
(3.58121e-05 0 1.97793e-06)
(2.69667e-05 0 1.70005e-06)
(1.88916e-05 0 1.40969e-06)
(1.16325e-05 0 1.17394e-06)
(4.99838e-06 0 1.03212e-06)
(-1.33869e-06 0 9.997e-07)
(-7.75831e-06 0 1.07943e-06)
(-1.46272e-05 0 1.26424e-06)
(-2.22275e-05 0 1.52981e-06)
(-3.06609e-05 0 1.82444e-06)
(-3.97618e-05 0 2.07405e-06)
(-4.90965e-05 0 2.20548e-06)
(-5.80816e-05 0 2.17088e-06)
(-6.60888e-05 0 1.96965e-06)
(-7.26012e-05 0 1.71117e-06)
(-7.73343e-05 0 1.5092e-06)
(-8.02067e-05 0 1.37032e-06)
(-8.13313e-05 0 1.22502e-06)
(-8.09107e-05 0 1.0226e-06)
(-7.91602e-05 0 7.42598e-07)
(-7.62579e-05 0 3.72841e-07)
(-7.23319e-05 0 -9.13194e-08)
(-6.74696e-05 0 -6.39828e-07)
(-6.17343e-05 0 -1.24506e-06)
(-5.51837e-05 0 -1.86658e-06)
(-4.78835e-05 0 -2.46139e-06)
(-3.99147e-05 0 -2.9933e-06)
(-3.13745e-05 0 -3.4369e-06)
(-2.23755e-05 0 -3.77642e-06)
(-1.30433e-05 0 -4.00255e-06)
(-3.5141e-06 0 -4.10931e-06)
(9.14975e-06 0 -1.66237e-05)
(2.35317e-05 0 -1.64128e-05)
(3.7749e-05 0 -1.60258e-05)
(5.1708e-05 0 -1.54784e-05)
(6.53246e-05 0 -1.47889e-05)
(7.85201e-05 0 -1.39724e-05)
(9.12118e-05 0 -1.30346e-05)
(0.000103297 0 -1.19667e-05)
(0.000114635 0 -1.07424e-05)
(0.000125038 0 -9.31663e-06)
(0.000134263 0 -7.62491e-06)
(0.000142013 0 -5.58191e-06)
(0.000147937 0 -3.08536e-06)
(0.00015162 0 -3.94552e-08)
(0.000152575 0 3.5488e-06)
(0.000150259 0 7.39972e-06)
(0.000144228 0 1.09868e-05)
(0.000134334 0 1.38822e-05)
(0.000120766 0 1.58627e-05)
(0.000104286 0 1.68576e-05)
(8.60705e-05 0 1.68696e-05)
(6.73189e-05 0 1.60165e-05)
(4.90081e-05 0 1.47041e-05)
(3.16228e-05 0 1.34169e-05)
(1.51337e-05 0 1.25258e-05)
(-8.4104e-07 0 1.22315e-05)
(-1.68421e-05 0 1.25908e-05)
(-3.34015e-05 0 1.35327e-05)
(-5.08725e-05 0 1.48383e-05)
(-6.92335e-05 0 1.61189e-05)
(-8.794e-05 0 1.68866e-05)
(-0.000105972 0 1.67575e-05)
(-0.000122119 0 1.56418e-05)
(-0.000135226 0 1.35388e-05)
(-0.000144598 0 1.05324e-05)
(-0.000150096 0 6.8668e-06)
(-0.000151904 0 2.99922e-06)
(-0.000150493 0 -5.51992e-07)
(-0.000146408 0 -3.54437e-06)
(-0.00014013 0 -5.99295e-06)
(-0.000132066 0 -7.9974e-06)
(-0.000122566 0 -9.65868e-06)
(-0.000111922 0 -1.10596e-05)
(-0.000100371 0 -1.22623e-05)
(-8.8098e-05 0 -1.33093e-05)
(-7.52376e-05 0 -1.42246e-05)
(-6.18906e-05 0 -1.50146e-05)
(-4.81404e-05 0 -1.56721e-05)
(-3.40678e-05 0 -1.61813e-05)
(-1.97603e-05 0 -1.65244e-05)
(-5.31415e-06 0 -1.66872e-05)
(9.16956e-06 0 -1.66621e-05)
(2.35887e-05 0 -1.64502e-05)
(3.78426e-05 0 -1.60612e-05)
(5.18376e-05 0 -1.55108e-05)
(6.54883e-05 0 -1.48167e-05)
(7.87143e-05 0 -1.3993e-05)
(9.14294e-05 0 -1.3044e-05)
(0.000103525 0 -1.19586e-05)
(0.000114855 0 -1.07079e-05)
(0.000125219 0 -9.24443e-06)
(0.000134367 0 -7.50052e-06)
(0.000141991 0 -5.38801e-06)
(0.000147727 0 -2.80337e-06)
(0.00015115 0 3.43501e-07)
(0.000151757 0 4.01707e-06)
(0.000149001 0 7.88713e-06)
(0.000142477 0 1.14125e-05)
(0.000132076 0 1.41944e-05)
(0.000118065 0 1.6037e-05)
(0.000101293 0 1.68892e-05)
(8.29671e-05 0 1.6757e-05)
(6.42699e-05 0 1.58071e-05)
(4.61155e-05 0 1.44739e-05)
(2.89044e-05 0 1.32343e-05)
(1.25387e-05 0 1.24332e-05)
(-3.40056e-06 0 1.22463e-05)
(-1.9463e-05 0 1.27104e-05)
(-3.61646e-05 0 1.37337e-05)
(-5.38133e-05 0 1.50707e-05)
(-7.23114e-05 0 1.63091e-05)
(-9.10315e-05 0 1.69633e-05)
(-0.000108906 0 1.66883e-05)
(-0.000124714 0 1.543e-05)
(-0.000137352 0 1.31932e-05)
(-0.000146216 0 1.00839e-05)
(-0.000151229 0 6.37507e-06)
(-0.000152619 0 2.5481e-06)
(-0.000150884 0 -9.09069e-07)
(-0.000146558 0 -3.80208e-06)
(-0.000140109 0 -6.16731e-06)
(-0.000131933 0 -8.10709e-06)
(-0.000122367 0 -9.72032e-06)
(-0.000111693 0 -1.10868e-05)
(-0.000100138 0 -1.22658e-05)
(-8.78796e-05 0 -1.32971e-05)
(-7.50445e-05 0 -1.42023e-05)
(-6.17289e-05 0 -1.49859e-05)
(-4.80132e-05 0 -1.56392e-05)
(-3.39766e-05 0 -1.61456e-05)
(-1.97059e-05 0 -1.64869e-05)
(-5.29677e-06 0 -1.66489e-05)
(1.02565e-05 0 -3.16194e-05)
(2.63671e-05 0 -3.12835e-05)
(4.2262e-05 0 -3.06627e-05)
(5.78101e-05 0 -2.97748e-05)
(7.28806e-05 0 -2.86391e-05)
(8.73403e-05 0 -2.72678e-05)
(0.00010105 0 -2.56577e-05)
(0.000113864 0 -2.37848e-05)
(0.000125626 0 -2.1603e-05)
(0.000136175 0 -1.9047e-05)
(0.000145351 0 -1.60365e-05)
(0.000153001 0 -1.24809e-05)
(0.000158996 0 -8.28611e-06)
(0.000163239 0 -3.3661e-06)
(0.00016565 0 2.35462e-06)
(0.000166057 0 8.95864e-06)
(0.000163901 0 1.64557e-05)
(0.000158201 0 2.43914e-05)
(0.000147995 0 3.14532e-05)
(0.000132772 0 3.6141e-05)
(0.000113203 0 3.81847e-05)
(9.08646e-05 0 3.80225e-05)
(6.74782e-05 0 3.64103e-05)
(4.41688e-05 0 3.43899e-05)
(2.1333e-05 0 3.28572e-05)
(-1.15582e-06 0 3.23309e-05)
(-2.36587e-05 0 3.29634e-05)
(-4.65242e-05 0 3.45645e-05)
(-6.98366e-05 0 3.65721e-05)
(-9.31258e-05 0 3.80561e-05)
(-0.000115188 0 3.79863e-05)
(-0.000134269 0 3.56402e-05)
(-0.000148861 0 3.06223e-05)
(-0.000158432 0 2.33477e-05)
(-0.000163585 0 1.53865e-05)
(-0.000165309 0 7.95755e-06)
(-0.000164557 0 1.43442e-06)
(-0.000161826 0 -4.21314e-06)
(-0.000157265 0 -9.06494e-06)
(-0.000150953 0 -1.31964e-05)
(-0.000142993 0 -1.66945e-05)
(-0.000133521 0 -1.9653e-05)
(-0.000122692 0 -2.21619e-05)
(-0.00011067 0 -2.43e-05)
(-9.76187e-05 0 -2.61305e-05)
(-8.36949e-05 0 -2.7697e-05)
(-6.90467e-05 0 -2.90203e-05)
(-5.38143e-05 0 -3.01009e-05)
(-3.81328e-05 0 -3.09257e-05)
(-2.21354e-05 0 -3.14758e-05)
(-5.95501e-06 0 -3.17351e-05)
(1.02745e-05 0 -3.16951e-05)
(2.64192e-05 0 -3.13572e-05)
(4.23455e-05 0 -3.07321e-05)
(5.79204e-05 0 -2.98375e-05)
(7.30106e-05 0 -2.86913e-05)
(8.74798e-05 0 -2.73041e-05)
(0.000101186 0 -2.56702e-05)
(0.000113978 0 -2.37628e-05)
(0.000125699 0 -2.15326e-05)
(0.000136182 0 -1.8912e-05)
(0.000145266 0 -1.58185e-05)
(0.000152798 0 -1.21605e-05)
(0.000158652 0 -7.84464e-06)
(0.000162731 0 -2.78774e-06)
(0.000164956 0 3.08436e-06)
(0.000165118 0 9.85325e-06)
(0.000162584 0 1.74908e-05)
(0.000156343 0 2.5425e-05)
(0.000145458 0 3.22259e-05)
(0.000129565 0 3.65174e-05)
(0.000109516 0 3.82012e-05)
(8.69701e-05 0 3.77727e-05)
(6.35875e-05 0 3.60446e-05)
(4.03762e-05 0 3.4068e-05)
(1.76313e-05 0 3.2687e-05)
(-4.82955e-06 0 3.23586e-05)
(-2.73805e-05 0 3.31818e-05)
(-5.03466e-05 0 3.49119e-05)
(-7.37438e-05 0 3.6924e-05)
(-9.69907e-05 0 3.8246e-05)
(-0.000118772 0 3.78816e-05)
(-0.00013731 0 3.51595e-05)
(-0.000151208 0 2.97549e-05)
(-0.000160128 0 2.22903e-05)
(-0.000164781 0 1.43798e-05)
(-0.000166168 0 7.10583e-06)
(-0.000165195 0 7.45221e-07)
(-0.000162284 0 -4.75487e-06)
(-0.000157566 0 -9.47374e-06)
(-0.000151118 0 -1.3489e-05)
(-0.000143046 0 -1.68898e-05)
(-0.000133489 0 -1.97704e-05)
(-0.0001226 0 -2.22192e-05)
(-0.000110541 0 -2.43128e-05)
(-9.74736e-05 0 -2.61119e-05)
(-8.35495e-05 0 -2.76568e-05)
(-6.89135e-05 0 -2.89657e-05)
(-5.37026e-05 0 -3.00368e-05)
(-3.80491e-05 0 -3.08554e-05)
(-2.20838e-05 0 -3.14017e-05)
(-5.9379e-06 0 -3.16593e-05)
(1.07341e-05 0 -4.83326e-05)
(2.75755e-05 0 -4.78137e-05)
(4.414e-05 0 -4.68495e-05)
(6.02596e-05 0 -4.54583e-05)
(7.57675e-05 0 -4.36594e-05)
(9.04982e-05 0 -4.14647e-05)
(0.000104289 0 -3.88727e-05)
(0.000116981 0 -3.58647e-05)
(0.000128425 0 -3.2405e-05)
(0.000138482 0 -2.84444e-05)
(0.000147026 0 -2.3924e-05)
(0.00015395 0 -1.87781e-05)
(0.000159168 0 -1.29346e-05)
(0.000162608 0 -6.30793e-06)
(0.000164201 0 1.22637e-06)
(0.000163869 0 9.85069e-06)
(0.000161524 0 1.96757e-05)
(0.000157054 0 3.04561e-05)
(0.000150062 0 4.15424e-05)
(0.000139361 0 5.17979e-05)
(0.000123396 0 5.90716e-05)
(0.000102236 0 6.19366e-05)
(7.76234e-05 0 6.15229e-05)
(5.15443e-05 0 5.96673e-05)
(2.51129e-05 0 5.79528e-05)
(-1.32801e-06 0 5.73245e-05)
(-2.77608e-05 0 5.80616e-05)
(-5.41516e-05 0 5.98165e-05)
(-8.00977e-05 0 6.1567e-05)
(-0.00010438 0 6.16777e-05)
(-0.000124972 0 5.83204e-05)
(-0.000140245 0 5.05642e-05)
(-0.000150376 0 4.00965e-05)
(-0.000156969 0 2.89679e-05)
(-0.000161109 0 1.82368e-05)
(-0.000163131 0 8.51369e-06)
(-0.000163142 0 -7.17979e-09)
(-0.000161228 0 -7.45903e-06)
(-0.000157466 0 -1.40179e-05)
(-0.000151925 0 -1.98001e-05)
(-0.000144679 0 -2.48872e-05)
(-0.000135819 0 -2.93493e-05)
(-0.000125458 0 -3.3251e-05)
(-0.000113724 0 -3.66499e-05)
(-0.000100762 0 -3.95938e-05)
(-8.67254e-05 0 -4.21162e-05)
(-7.17774e-05 0 -4.42333e-05)
(-5.60844e-05 0 -4.59446e-05)
(-3.98152e-05 0 -4.72372e-05)
(-2.31396e-05 0 -4.80925e-05)
(-6.22874e-06 0 -4.84939e-05)
(1.07454e-05 0 -4.8432e-05)
(2.76104e-05 0 -4.79085e-05)
(4.41944e-05 0 -4.69349e-05)
(6.03267e-05 0 -4.5529e-05)
(7.58376e-05 0 -4.37088e-05)
(9.05589e-05 0 -4.14843e-05)
(0.000104325 0 -3.88519e-05)
(0.000116974 0 -3.57905e-05)
(0.000128356 0 -3.22626e-05)
(0.000138329 0 -2.82172e-05)
(0.000146769 0 -2.35947e-05)
(0.000153568 0 -1.83291e-05)
(0.000158641 0 -1.23483e-05)
(0.000161917 0 -5.56483e-06)
(0.000163325 0 2.15247e-06)
(0.000162787 0 1.09886e-05)
(0.000160212 0 2.10184e-05)
(0.000155474 0 3.19291e-05)
(0.000148081 0 4.30152e-05)
(0.00013672 0 5.30066e-05)
(0.000119949 0 5.96415e-05)
(9.81731e-05 0 6.19131e-05)
(7.32684e-05 0 6.11855e-05)
(4.71261e-05 0 5.92946e-05)
(2.07078e-05 0 5.77412e-05)
(-5.7248e-06 0 5.73596e-05)
(-3.21712e-05 0 5.833e-05)
(-5.85661e-05 0 6.02045e-05)
(-8.44052e-05 0 6.18496e-05)
(-0.000108309 0 6.15662e-05)
(-0.000128211 0 5.7562e-05)
(-0.00014268 0 4.92465e-05)
(-0.000152227 0 3.86047e-05)
(-0.000158468 0 2.75175e-05)
(-0.000162354 0 1.69424e-05)
(-0.000164152 0 7.43236e-06)
(-0.000163963 0 -8.82917e-07)
(-0.00016187 0 -8.15959e-06)
(-0.000157949 0 -1.45674e-05)
(-0.000152268 0 -2.02172e-05)
(-0.000144901 0 -2.51894e-05)
(-0.000135942 0 -2.95541e-05)
(-0.000125502 0 -3.33755e-05)
(-0.000113711 0 -3.67103e-05)
(-0.00010071 0 -3.96044e-05)
(-8.66532e-05 0 -4.20892e-05)
(-7.16989e-05 0 -4.41787e-05)
(-5.60115e-05 0 -4.58704e-05)
(-3.97567e-05 0 -4.71495e-05)
(-2.31018e-05 0 -4.79965e-05)
(-6.21503e-06 0 -4.83941e-05)
(1.08326e-05 0 -6.55714e-05)
(2.78125e-05 0 -6.48465e-05)
(4.44702e-05 0 -6.34958e-05)
(6.06118e-05 0 -6.15397e-05)
(7.60481e-05 0 -5.89998e-05)
(9.05959e-05 0 -5.5892e-05)
(0.000104081 0 -5.22207e-05)
(0.000116343 0 -4.79752e-05)
(0.000127234 0 -4.31305e-05)
(0.000136624 0 -3.76497e-05)
(0.000144402 0 -3.14883e-05)
(0.000150471 0 -2.45968e-05)
(0.000154749 0 -1.69212e-05)
(0.000157169 0 -8.3972e-06)
(0.000157677 0 1.06223e-06)
(0.000156261 0 1.15675e-05)
(0.000152983 0 2.31858e-05)
(0.000147924 0 3.58461e-05)
(0.000141039 0 4.93274e-05)
(0.00013207 0 6.29925e-05)
(0.000120104 0 7.53179e-05)
(0.000103282 0 8.39168e-05)
(8.08183e-05 0 8.71884e-05)
(5.46901e-05 0 8.69236e-05)
(2.6925e-05 0 8.5732e-05)
(-1.39386e-06 0 8.52018e-05)
(-2.96737e-05 0 8.57907e-05)
(-5.72992e-05 0 8.6929e-05)
(-8.30989e-05 0 8.68973e-05)
(-0.000104968 0 8.30401e-05)
(-0.000121108 0 7.38638e-05)
(-0.000132609 0 6.12494e-05)
(-0.000141257 0 4.7507e-05)
(-0.00014786 0 3.40583e-05)
(-0.000152641 0 2.1465e-05)
(-0.000155625 0 9.92943e-06)
(-0.000156725 0 -4.94088e-07)
(-0.000155889 0 -9.88215e-06)
(-0.000153136 0 -1.83421e-05)
(-0.000148522 0 -2.59557e-05)
(-0.00014212 0 -3.27837e-05)
(-0.000134014 0 -3.8878e-05)
(-0.000124303 0 -4.42867e-05)
(-0.000113106 0 -4.90528e-05)
(-0.000100557 0 -5.32115e-05)
(-8.68083e-05 0 -5.67859e-05)
(-7.2028e-05 0 -5.97844e-05)
(-5.63947e-05 0 -6.2201e-05)
(-4.00962e-05 0 -6.40191e-05)
(-2.33261e-05 0 -6.52181e-05)
(-6.28197e-06 0 -6.57795e-05)
(1.08359e-05 0 -6.5693e-05)
(2.78265e-05 0 -6.49604e-05)
(4.44902e-05 0 -6.35945e-05)
(6.06302e-05 0 -6.1615e-05)
(7.60543e-05 0 -5.90421e-05)
(9.05768e-05 0 -5.58901e-05)
(0.000104021 0 -5.21614e-05)
(0.000116224 0 -4.78435e-05)
(0.000127038 0 -4.29097e-05)
(0.000136332 0 -3.73224e-05)
(0.000143993 0 -3.1037e-05)
(0.000149926 0 -2.40044e-05)
(0.00015405 0 -1.61712e-05)
(0.000156297 0 -7.47282e-06)
(0.000156616 0 2.18e-06)
(0.000155004 0 1.28961e-05)
(0.000151535 0 2.47253e-05)
(0.000146278 0 3.75731e-05)
(0.000139162 0 5.11843e-05)
(0.000129875 0 6.48025e-05)
(0.000117344 0 7.67606e-05)
(9.96517e-05 0 8.45847e-05)
(7.64983e-05 0 8.71639e-05)
(5.00409e-05 0 8.66467e-05)
(2.21623e-05 0 8.5539e-05)
(-6.1796e-06 0 8.5235e-05)
(-3.44176e-05 0 8.60286e-05)
(-6.18891e-05 0 8.71804e-05)
(-8.7272e-05 0 8.67772e-05)
(-0.000108357 0 8.21401e-05)
(-0.000123683 0 7.22824e-05)
(-0.0001347 0 5.93999e-05)
(-0.000143065 0 4.56726e-05)
(-0.000149449 0 3.2376e-05)
(-0.000154036 0 1.99784e-05)
(-0.000156826 0 8.65628e-06)
(-0.000157732 0 -1.55998e-06)
(-0.00015671 0 -1.076e-05)
(-0.000153788 0 -1.90504e-05)
(-0.000149024 0 -2.65111e-05)
(-0.000142491 0 -3.32026e-05)
(-0.000134273 0 -3.91776e-05)
(-0.00012447 0 -4.44845e-05)
(-0.0001132 0 -4.9166e-05)
(-0.000100597 0 -5.32563e-05)
(-8.68116e-05 0 -5.67768e-05)
(-7.20091e-05 0 -5.9734e-05)
(-5.63664e-05 0 -6.21199e-05)
(-4.00682e-05 0 -6.39166e-05)
(-2.33054e-05 0 -6.5102e-05)
(-6.27271e-06 0 -6.56572e-05)
(1.06335e-05 0 -8.25283e-05)
(2.72872e-05 0 -8.15653e-05)
(4.35876e-05 0 -7.97693e-05)
(5.93239e-05 0 -7.71659e-05)
(7.42933e-05 0 -7.37843e-05)
(8.83033e-05 0 -6.9651e-05)
(0.000101176 0 -6.47843e-05)
(0.000112749 0 -5.9191e-05)
(0.00012288 0 -5.28649e-05)
(0.000131449 0 -4.57889e-05)
(0.000138353 0 -3.79364e-05)
(0.000143506 0 -2.92735e-05)
(0.000146842 0 -1.97587e-05)
(0.000148306 0 -9.34135e-06)
(0.00014787 0 2.03942e-06)
(0.000145544 0 1.44416e-05)
(0.000141402 0 2.7867e-05)
(0.000135552 0 4.22039e-05)
(0.000128095 0 5.72459e-05)
(0.000119081 0 7.26951e-05)
(0.000108332 0 8.79047e-05)
(9.49086e-05 0 0.000101236)
(7.69067e-05 0 0.000110134)
(5.35061e-05 0 0.000113614)
(2.67507e-05 0 0.000114087)
(-1.36058e-06 0 0.00011397)
(-2.93892e-05 0 0.000114017)
(-5.58698e-05 0 0.000113294)
(-7.87217e-05 0 0.000109249)
(-9.60956e-05 0 9.97053e-05)
(-0.000109098 0 8.60028e-05)
(-0.000119581 0 7.06639e-05)
(-0.00012836 0 5.51879e-05)
(-0.000135574 0 4.01604e-05)
(-0.00014116 0 2.58636e-05)
(-0.000145014 0 1.24971e-05)
(-0.000147029 0 1.60175e-07)
(-0.000147141 0 -1.11577e-05)
(-0.000145344 0 -2.15146e-05)
(-0.000141672 0 -3.09682e-05)
(-0.000136182 0 -3.95657e-05)
(-0.000128945 0 -4.73456e-05)
(-0.00012005 0 -5.43393e-05)
(-0.000109605 0 -6.05712e-05)
(-9.77366e-05 0 -6.60561e-05)
(-8.45945e-05 0 -7.07978e-05)
(-7.0346e-05 0 -7.47878e-05)
(-5.51758e-05 0 -7.80066e-05)
(-3.92819e-05 0 -8.04275e-05)
(-2.28724e-05 0 -8.20226e-05)
(-6.16245e-06 0 -8.2769e-05)
(1.06284e-05 0 -8.26541e-05)
(2.72796e-05 0 -8.16799e-05)
(4.35726e-05 0 -7.98623e-05)
(5.92937e-05 0 -7.7226e-05)
(7.42372e-05 0 -7.37994e-05)
(8.82083e-05 0 -6.96076e-05)
(0.000101027 0 -6.46674e-05)
(0.000112529 0 -5.89841e-05)
(0.000122573 0 -5.25508e-05)
(0.000131036 0 -4.53498e-05)
(0.000137815 0 -3.73549e-05)
(0.000142827 0 -2.85328e-05)
(0.000146004 0 -1.88429e-05)
(0.000147294 0 -8.23552e-06)
(0.000146672 0 3.34899e-06)
(0.000144157 0 1.59628e-05)
(0.000139831 0 2.95917e-05)
(0.000133801 0 4.41056e-05)
(0.000126168 0 5.92859e-05)
(0.000116963 0 7.48048e-05)
(0.000105937 0 8.99114e-05)
(9.19719e-05 0 0.000102765)
(7.31238e-05 0 0.000110823)
(4.90547e-05 0 0.000113684)
(2.19963e-05 0 0.000114011)
(-6.187e-06 0 0.000113987)
(-3.40883e-05 0 0.00011409)
(-6.01836e-05 0 0.000113109)
(-8.22664e-05 0 0.000108325)
(-9.88536e-05 0 9.80052e-05)
(-0.000111401 0 8.3938e-05)
(-0.000121643 0 6.85606e-05)
(-0.000130237 0 5.31784e-05)
(-0.000137276 0 3.83005e-05)
(-0.000142681 0 2.41891e-05)
(-0.000146348 0 1.10305e-05)
(-0.000148174 0 -1.09581e-06)
(-0.000148102 0 -1.22136e-05)
(-0.000146134 0 -2.23847e-05)
(-0.000142308 0 -3.16676e-05)
(-0.00013668 0 -4.01105e-05)
(-0.000129323 0 -4.77527e-05)
(-0.000120326 0 -5.46262e-05)
(-0.000109797 0 -6.07554e-05)
(-9.78624e-05 0 -6.61547e-05)
(-8.467e-05 0 -7.08267e-05)
(-7.03858e-05 0 -7.47615e-05)
(-5.51924e-05 0 -7.79382e-05)
(-3.92852e-05 0 -8.0329e-05)
(-2.28697e-05 0 -8.19048e-05)
(-6.15798e-06 0 -8.26422e-05)
(1.01903e-05 0 -9.89933e-05)
(2.61373e-05 0 -9.77765e-05)
(4.17129e-05 0 -9.55071e-05)
(5.66973e-05 0 -9.2218e-05)
(7.08812e-05 0 -8.79494e-05)
(8.40693e-05 0 -8.2742e-05)
(9.6084e-05 0 -7.66313e-05)
(0.000106768 0 -6.96439e-05)
(0.000115985 0 -6.17947e-05)
(0.000123623 0 -5.30875e-05)
(0.000129591 0 -4.35151e-05)
(0.000133815 0 -3.30617e-05)
(0.000136243 0 -2.1704e-05)
(0.000136841 0 -9.41341e-06)
(0.000135601 0 3.83758e-06)
(0.000132552 0 1.80605e-05)
(0.000127771 0 3.32162e-05)
(0.000121364 0 4.91839e-05)
(0.000113444 0 6.57609e-05)
(0.000104125 0 8.26538e-05)
(9.34745e-05 0 9.94297e-05)
(8.13288e-05 0 0.000115314)
(6.66452e-05 0 0.000128596)
(4.76906e-05 0 0.000137047)
(2.43337e-05 0 0.00014063)
(-1.21571e-06 0 0.000141403)
(-2.66381e-05 0 0.000140323)
(-4.95925e-05 0 0.000136229)
(-6.8001e-05 0 0.000127128)
(-8.22927e-05 0 0.000113386)
(-9.42069e-05 0 9.7285e-05)
(-0.000104662 0 8.04104e-05)
(-0.000113774 0 6.34737e-05)
(-0.000121465 0 4.689e-05)
(-0.00012762 0 3.09411e-05)
(-0.000132125 0 1.5822e-05)
(-0.000134876 0 1.64541e-06)
(-0.000135803 0 -1.15553e-05)
(-0.000134882 0 -2.37927e-05)
(-0.000132124 0 -3.50924e-05)
(-0.000127568 0 -4.54798e-05)
(-0.000121271 0 -5.49747e-05)
(-0.000113309 0 -6.35901e-05)
(-0.00010378 0 -7.13296e-05)
(-9.28021e-05 0 -7.81868e-05)
(-8.05186e-05 0 -8.41441e-05)
(-6.70934e-05 0 -8.91732e-05)
(-5.27112e-05 0 -9.32375e-05)
(-3.75735e-05 0 -9.62969e-05)
(-2.18954e-05 0 -9.83131e-05)
(-5.90163e-06 0 -9.92565e-05)
(1.01773e-05 0 -9.91112e-05)
(2.61093e-05 0 -9.78799e-05)
(4.16651e-05 0 -9.55824e-05)
(5.66221e-05 0 -9.22515e-05)
(7.07684e-05 0 -8.79262e-05)
(8.39067e-05 0 -8.26465e-05)
(9.58574e-05 0 -7.64469e-05)
(0.000106462 0 -6.93531e-05)
(0.000115584 0 -6.13797e-05)
(0.000123111 0 -5.25303e-05)
(0.000128951 0 -4.27985e-05)
(0.000133033 0 -3.21697e-05)
(0.000135304 0 -2.06221e-05)
(0.000135732 0 -8.12973e-06)
(0.000134315 0 5.33117e-06)
(0.000131087 0 1.97648e-05)
(0.000126131 0 3.51195e-05)
(0.000119555 0 5.12596e-05)
(0.000111475 0 6.79694e-05)
(0.000102 0 8.4936e-05)
(9.11846e-05 0 0.000101698)
(7.87782e-05 0 0.000117377)
(6.35575e-05 0 0.000130082)
(4.38511e-05 0 0.000137744)
(1.99941e-05 0 0.000140823)
(-5.6801e-06 0 0.00014138)
(-3.08831e-05 0 0.000140035)
(-5.32343e-05 0 0.000135332)
(-7.0914e-05 0 0.00012545)
(-8.47519e-05 0 0.000111238)
(-9.6448e-05 0 9.49988e-05)
(-0.000106744 0 7.8139e-05)
(-0.000115699 0 6.12939e-05)
(-0.000123228 0 4.48548e-05)
(-0.000129212 0 2.90867e-05)
(-0.000133541 0 1.41711e-05)
(-0.000136112 0 2.05972e-07)
(-0.000136862 0 -1.27869e-05)
(-0.000135774 0 -2.48258e-05)
(-0.000132863 0 -3.59396e-05)
(-0.000128167 0 -4.61558e-05)
(-0.000121746 0 -5.5496e-05)
(-0.000113677 0 -6.39739e-05)
(-0.000104056 0 -7.15939e-05)
(-9.30031e-05 0 -7.83492e-05)
(-8.0659e-05 0 -8.42218e-05)
(-6.7187e-05 0 -8.91824e-05)
(-5.27697e-05 0 -9.31936e-05)
(-3.76065e-05 0 -9.62142e-05)
(-2.19099e-05 0 -9.82055e-05)
(-5.90183e-06 0 -9.91372e-05)
(9.54927e-06 0 -0.000114574)
(2.44817e-05 0 -0.000113095)
(3.90359e-05 0 -0.000110336)
(5.29896e-05 0 -0.000106342)
(6.61331e-05 0 -0.000101164)
(7.82734e-05 0 -9.48621e-05)
(8.92377e-05 0 -8.74915e-05)
(9.88759e-05 0 -7.91011e-05)
(0.000107062 0 -6.97294e-05)
(0.000113693 0 -5.94028e-05)
(0.000118691 0 -4.81359e-05)
(0.000121999 0 -3.59328e-05)
(0.000123579 0 -2.27906e-05)
(0.000123417 0 -8.70441e-06)
(0.000121522 0 6.32346e-06)
(0.000117938 0 2.22671e-05)
(0.000112743 0 3.90519e-05)
(0.00010604 0 5.65365e-05)
(9.79469e-05 0 7.45105e-05)
(8.85906e-05 0 9.26945e-05)
(7.8085e-05 0 0.000110721)
(6.65085e-05 0 0.000128055)
(5.36427e-05 0 0.000143706)
(3.84387e-05 0 0.000155879)
(1.99067e-05 0 0.000162938)
(-9.6805e-07 0 0.000164942)
(-2.16981e-05 0 0.000162333)
(-3.98638e-05 0 0.000154611)
(-5.47304e-05 0 0.000141885)
(-6.73925e-05 0 0.000125908)
(-7.88162e-05 0 0.000108394)
(-8.91552e-05 0 9.02609e-05)
(-9.83238e-05 0 7.20137e-05)
(-0.000106205 0 5.40095e-05)
(-0.000112673 0 3.652e-05)
(-0.000117611 0 1.97496e-05)
(-0.000120916 0 3.83365e-06)
(-0.000122516 0 -1.11577e-05)
(-0.000122371 0 -2.51999e-05)
(-0.000120476 0 -3.8289e-05)
(-0.000116849 0 -5.04271e-05)
(-0.000111532 0 -6.16133e-05)
(-0.000104587 0 -7.18394e-05)
(-9.60979e-05 0 -8.1087e-05)
(-8.61739e-05 0 -8.93259e-05)
(-7.4948e-05 0 -9.65149e-05)
(-6.25777e-05 0 -0.000102603)
(-4.9243e-05 0 -0.000107534)
(-3.51438e-05 0 -0.00011125)
(-2.04958e-05 0 -0.000113701)
(-5.52664e-06 0 -0.000114848)
(9.52932e-06 0 -0.000114672)
(2.44356e-05 0 -0.000113175)
(3.89593e-05 0 -0.000110382)
(5.28753e-05 0 -0.000106337)
(6.59718e-05 0 -0.000101092)
(7.8054e-05 0 -9.47051e-05)
(8.89474e-05 0 -8.72316e-05)
(9.85011e-05 0 -7.872e-05)
(0.000106588 0 -6.9209e-05)
(0.000113107 0 -5.87252e-05)
(0.000117979 0 -4.72843e-05)
(0.000121147 0 -3.48923e-05)
(0.000122577 0 -2.15486e-05)
(0.000122255 0 -7.252e-06)
(0.000120196 0 7.98982e-06)
(0.000116447 0 2.41427e-05)
(0.00011109 0 4.11207e-05)
(0.000104233 0 5.87697e-05)
(9.59961e-05 0 7.68683e-05)
(8.65047e-05 0 9.51237e-05)
(7.58698e-05 0 0.000113152)
(6.41565e-05 0 0.000130373)
(5.1036e-05 0 0.000145685)
(3.53552e-05 0 0.000157197)
(1.63295e-05 0 0.000163497)
(-4.69579e-06 0 0.000164859)
(-2.51667e-05 0 0.000161581)
(-4.2802e-05 0 0.000153092)
(-5.72471e-05 0 0.000139784)
(-6.97023e-05 0 0.000123543)
(-8.0996e-05 0 0.000105953)
(-9.12048e-05 0 8.78429e-05)
(-0.000100236 0 6.96825e-05)
(-0.00010797 0 5.18144e-05)
(-0.000114282 0 3.44981e-05)
(-0.000119057 0 1.79262e-05)
(-0.000122196 0 2.2215e-06)
(-0.000123631 0 -1.25566e-05)
(-0.000123329 0 -2.63907e-05)
(-0.000121285 0 -3.92818e-05)
(-0.000117522 0 -5.12349e-05)
(-0.000112082 0 -6.22517e-05)
(-0.000105027 0 -7.23253e-05)
(-9.64426e-05 0 -8.14381e-05)
(-8.64372e-05 0 -8.95606e-05)
(-7.51433e-05 0 -9.66511e-05)
(-6.27175e-05 0 -0.000102659)
(-4.93381e-05 0 -0.000107526)
(-3.52031e-05 0 -0.000111196)
(-2.05258e-05 0 -0.000113616)
(-5.53108e-06 0 -0.000114749)
(8.7481e-06 0 -0.000129005)
(2.24169e-05 0 -0.000127262)
(3.57107e-05 0 -0.000124014)
(4.84105e-05 0 -0.000119314)
(6.03112e-05 0 -0.000113232)
(7.12268e-05 0 -0.000105845)
(8.0993e-05 0 -9.72321e-05)
(8.94698e-05 0 -8.7466e-05)
(9.65429e-05 0 -7.66102e-05)
(0.000102123 0 -6.47153e-05)
(0.000106147 0 -5.18191e-05)
(0.000108571 0 -3.79479e-05)
(0.000109378 0 -2.31207e-05)
(0.00010857 0 -7.35606e-06)
(0.000106174 0 9.31646e-06)
(0.000102246 0 2.68408e-05)
(9.68684e-05 0 4.51147e-05)
(9.0147e-05 0 6.39771e-05)
(8.22038e-05 0 8.32043e-05)
(7.31741e-05 0 0.000102509)
(6.32006e-05 0 0.000121537)
(5.24304e-05 0 0.000139829)
(4.09807e-05 0 0.000156655)
(2.85961e-05 0 0.000170668)
(1.46563e-05 0 0.000179915)
(-6.75527e-07 0 0.000182871)
(-1.59103e-05 0 0.000179097)
(-2.96563e-05 0 0.000169152)
(-4.18931e-05 0 0.00015466)
(-5.32428e-05 0 0.000137543)
(-6.3901e-05 0 0.000119066)
(-7.37367e-05 0 9.99109e-05)
(-8.26037e-05 0 8.05187e-05)
(-9.03595e-05 0 6.12371e-05)
(-9.68696e-05 0 4.23467e-05)
(-0.000102014 0 2.40658e-05)
(-0.000105688 0 6.55054e-06)
(-0.000107812 0 -1.01002e-05)
(-0.000108336 0 -2.58316e-05)
(-0.000107235 0 -4.06127e-05)
(-0.000104511 0 -5.44217e-05)
(-0.000100187 0 -6.72352e-05)
(-9.43085e-05 0 -7.90224e-05)
(-8.69472e-05 0 -8.97406e-05)
(-7.81982e-05 0 -9.9335e-05)
(-6.8183e-05 0 -0.000107739)
(-5.7049e-05 0 -0.000114877)
(-4.49679e-05 0 -0.00012067)
(-3.21329e-05 0 -0.000125043)
(-1.87553e-05 0 -0.00012793)
(-5.05946e-06 0 -0.000129281)
(8.72246e-06 0 -0.000129073)
(2.2356e-05 0 -0.000127309)
(3.56105e-05 0 -0.000124021)
(4.82647e-05 0 -0.000119263)
(6.01116e-05 0 -0.000113104)
(7.09633e-05 0 -0.000105621)
(8.06545e-05 0 -9.68922e-05)
(8.90446e-05 0 -8.69921e-05)
(9.6019e-05 0 -7.59838e-05)
(0.000101489 0 -6.3919e-05)
(0.000105391 0 -5.0837e-05)
(0.000107684 0 -3.67662e-05)
(0.000108351 0 -2.17289e-05)
(0.000107397 0 -5.7482e-06)
(0.000104853 0 1.11401e-05)
(0.000100779 0 2.88712e-05)
(9.52594e-05 0 4.73323e-05)
(8.84048e-05 0 6.63506e-05)
(8.03391e-05 0 8.56916e-05)
(7.11996e-05 0 0.000105057)
(6.11297e-05 0 0.000124081)
(5.02788e-05 0 0.00014228)
(3.87369e-05 0 0.000158851)
(2.61583e-05 0 0.000172332)
(1.19538e-05 0 0.000180748)
(-3.48174e-06 0 0.000182741)
(-1.85464e-05 0 0.000178021)
(-3.20293e-05 0 0.000167313)
(-4.41053e-05 0 0.000152373)
(-5.53734e-05 0 0.000135055)
(-6.59467e-05 0 0.000116512)
(-7.56825e-05 0 9.73714e-05)
(-8.44361e-05 0 7.80548e-05)
(-9.20662e-05 0 5.88991e-05)
(-9.84404e-05 0 4.01738e-05)
(-0.000103441 0 2.20861e-05)
(-0.000106967 0 4.78066e-06)
(-0.000108943 0 -1.16539e-05)
(-0.000109322 0 -2.71707e-05)
(-0.000108083 0 -4.17446e-05)
(-0.000105229 0 -5.53576e-05)
(-0.000100786 0 -6.79896e-05)
(-9.47996e-05 0 -7.96113e-05)
(-8.73422e-05 0 -9.01818e-05)
(-7.85091e-05 0 -9.96468e-05)
(-6.84215e-05 0 -0.00010794)
(-5.72259e-05 0 -0.000114986)
(-4.50929e-05 0 -0.000120707)
(-3.22139e-05 0 -0.000125026)
(-1.87981e-05 0 -0.000127877)
(-5.06752e-06 0 -0.000129212)
(7.81767e-06 0 -0.00014206)
(2.00222e-05 0 -0.000140059)
(3.1864e-05 0 -0.000136331)
(4.31323e-05 0 -0.000130943)
(5.36315e-05 0 -0.000123982)
(6.31862e-05 0 -0.000115545)
(7.16439e-05 0 -0.000105736)
(7.88778e-05 0 -9.46521e-05)
(8.47875e-05 0 -8.2384e-05)
(8.92988e-05 0 -6.90075e-05)
(9.2363e-05 0 -5.45847e-05)
(9.39554e-05 0 -3.9165e-05)
(9.40742e-05 0 -2.279e-05)
(9.27401e-05 0 -5.50155e-06)
(8.9997e-05 0 1.26464e-05)
(8.59129e-05 0 3.15721e-05)
(8.058e-05 0 5.11499e-05)
(7.41109e-05 0 7.11994e-05)
(6.66363e-05 0 9.14804e-05)
(5.83049e-05 0 0.00011169)
(4.92853e-05 0 0.000131458)
(3.97721e-05 0 0.000150318)
(2.99981e-05 0 0.000167606)
(2.01163e-05 0 0.000182157)
(1.00042e-05 0 0.000192088)
(-4.19088e-07 0 0.000195381)
(-1.08163e-05 0 0.000191196)
(-2.08859e-05 0 0.000180561)
(-3.07405e-05 0 0.000165542)
(-4.04761e-05 0 0.000147951)
(-4.99173e-05 0 0.00012888)
(-5.88337e-05 0 0.000108957)
(-6.70339e-05 0 8.86338e-05)
(-7.43515e-05 0 6.82737e-05)
(-8.06394e-05 0 4.81731e-05)
(-8.57687e-05 0 2.85671e-05)
(-8.96288e-05 0 9.63161e-06)
(-9.21303e-05 0 -8.51025e-06)
(-9.32081e-05 0 -2.57777e-05)
(-9.2822e-05 0 -4.2115e-05)
(-9.09548e-05 0 -5.74769e-05)
(-8.76128e-05 0 -7.18168e-05)
(-8.28257e-05 0 -8.50798e-05)
(-7.6648e-05 0 -9.71984e-05)
(-6.91605e-05 0 -0.000108091)
(-6.04707e-05 0 -0.000117665)
(-5.0713e-05 0 -0.00012582)
(-4.00471e-05 0 -0.000132451)
(-2.86557e-05 0 -0.000137464)
(-1.67408e-05 0 -0.000140776)
(-4.51811e-06 0 -0.000142327)
(7.7878e-06 0 -0.000142088)
(1.99502e-05 0 -0.000140064)
(3.17463e-05 0 -0.000136292)
(4.29634e-05 0 -0.000130839)
(5.34044e-05 0 -0.000123792)
(6.28922e-05 0 -0.000115249)
(7.12738e-05 0 -0.000105314)
(7.84217e-05 0 -9.40856e-05)
(8.42357e-05 0 -8.16543e-05)
(8.86421e-05 0 -6.80978e-05)
(9.15931e-05 0 -5.34801e-05)
(9.30652e-05 0 -3.78533e-05)
(9.30587e-05 0 -2.12628e-05)
(9.15967e-05 0 -3.75554e-06)
(8.87259e-05 0 1.46076e-05)
(8.4518e-05 0 3.37359e-05)
(7.90683e-05 0 5.34933e-05)
(7.24926e-05 0 7.36883e-05)
(6.49245e-05 0 9.407e-05)
(5.65162e-05 0 0.000114325)
(4.74398e-05 0 0.000134069)
(3.78963e-05 0 0.00015282)
(2.81206e-05 0 0.000169859)
(1.8229e-05 0 0.000183914)
(8.06898e-06 0 0.000193013)
(-2.37983e-06 0 0.000195232)
(-1.27369e-05 0 0.000190016)
(-2.27663e-05 0 0.000178639)
(-3.26187e-05 0 0.000163202)
(-4.23463e-05 0 0.000145408)
(-5.17493e-05 0 0.000126253)
(-6.06031e-05 0 0.000106326)
(-6.87217e-05 0 8.60638e-05)
(-7.59419e-05 0 6.58171e-05)
(-8.21199e-05 0 4.58719e-05)
(-8.713e-05 0 2.64522e-05)
(-9.08644e-05 0 7.72322e-06)
(-9.32373e-05 0 -1.02022e-05)
(-9.41872e-05 0 -2.72516e-05)
(-9.36763e-05 0 -4.33756e-05)
(-9.16901e-05 0 -5.85336e-05)
(-8.82364e-05 0 -7.26825e-05)