/*--------------------------------*- C++ -*----------------------------------*\
| =========                 |                                                 |
| \\      /  F ield         | OpenFOAM: The Open Source CFD Toolbox           |
|  \\    /   O peration     | Version:  2.3.0                                 |
|   \\  /    A nd           | Web:      www.OpenFOAM.org                      |
|    \\/     M anipulation  |                                                 |
\*---------------------------------------------------------------------------*/
FoamFile
{
    version     2.0;
    format      ascii;
    class       volScalarField;
    location    "6000";
    object      p;
}
// * * * * * * * * * * * * * * * * * * * * * * * * * * * * * * * * * * * * * //

dimensions      [0 2 -2 0 0 0 0];

internalField   nonuniform List<scalar> 
192
(
-1665.68
-1674.44
-1683.34
-1693.22
-1705.05
-1719.67
-1737.01
-1755.77
-1772.83
-1783.6
-1780.81
-1767.26
-1749.3
-1500.56
-1509.23
-1518.33
-1528.19
-1539.12
-1551.17
-1564.07
-1576.78
-1587.21
-1593.57
-1591.88
-1583.93
-1572.52
-1362.56
-1369.86
-1377.63
-1385.88
-1394.62
-1403.7
-1412.73
-1420.67
-1426.17
-1429.23
-1428.39
-1424.53
-1418.05
-1239.33
-1244.48
-1249.89
-1255.48
-1261.17
-1266.84
-1272.01
-1275.77
-1277.43
-1277.93
-1277.77
-1277.01
-1274.54
-1119.48
-1122.34
-1125.27
-1128.19
-1131.1
-1133.89
-1136.15
-1137.17
-1136.61
-1135.53
-1135.82
-1136.86
-1136.83
-997.426
-998.376
-999.269
-1000.1
-1000.86
-1001.46
-1001.61
-1000.86
-999.027
-997.055
-997.59
-999.656
-1001.08
-871.16
-870.686
-870.118
-869.475
-868.723
-867.733
-866.328
-864.265
-861.558
-859.105
-859.744
-862.445
-864.923
-740.465
-738.998
-737.429
-735.738
-733.844
-731.64
-728.965
-725.785
-722.397
-719.721
-720.392
-723.477
-726.838
-605.94
-603.72
-601.353
-598.776
-595.882
-592.569
-588.761
-584.604
-580.694
-577.926
-578.613
-581.924
-586.016
-468.398
-465.42
-462.241
-458.757
-454.849
-450.433
-445.547
-440.504
-436.125
-433.286
-434.008
-437.515
-442.262
-329.358
-325.371
-321.147
-316.542
-311.431
-305.77
-299.703
-293.693
-288.721
-285.726
-286.529
-290.361
-295.862
-192.56
-187.076
-181.376
-175.273
-168.624
-161.404
-153.832
-146.504
-140.562
-137.159
-138.136
-142.635
-149.26
-63.948
-55.9402
-47.618
-38.8314
-29.4861
-19.6281
-9.57984
-0.0797162
7.54531
11.7963
10.4945
4.73825
28.5688
38.2827
48.2074
58.594
69.7157
81.7381
94.4772
107.095
117.685
123.772
121.809
113.614
71.4902
66.118
59.7921
52.4468
43.9111
34.0333
22.88
11.13
0.420023
-5.65168
-3.71066
4.85985
)
;

boundaryField
{
    top
    {
        type            calculated;
        value           nonuniform List<scalar> 
12
(
-9.81
-9.81
-9.81
-9.81
-9.81
-9.81
-9.81
-9.81
-9.81
-9.81
-9.81
-9.81
)
;
    }
    bottom
    {
        type            calculated;
        value           nonuniform List<scalar> 
13
(
-1756.73
-1765.48
-1774.19
-1783.84
-1795.61
-1810.58
-1828.58
-1848.11
-1866.23
-1878.19
-1875.03
-1860.29
-1841.41
)
;
    }
    frontAndBack
    {
        type            empty;
    }
    left_cyc
    {
        type            cyclic;
    }
    right_cyc
    {
        type            cyclic;
    }
    procBoundary0to1
    {
        type            processor;
        value           nonuniform List<scalar> 
16
(
-1731.02
-1559.7
-1409.64
-1270.18
-1135.27
-1001.44
-866.714
-729.831
-590.068
-447.288
-301.948
-156.74
-3.78105
-3.78105
102.005
16.2121
)
;
    }
    procBoundary0to3throughleft_cyc
    {
        type            processorCyclic;
        value           nonuniform List<scalar> 
15
(
-1656.49
-1491.99
-1355.63
-1234.51
-1116.77
-996.46
-871.527
-741.812
-608.046
-471.267
-333.251
-198.032
-71.8198
18.9475
75.8477
)
;
    }
}


// ************************************************************************* //
