/*--------------------------------*- C++ -*----------------------------------*\
| =========                 |                                                 |
| \\      /  F ield         | OpenFOAM: The Open Source CFD Toolbox           |
|  \\    /   O peration     | Version:  2.3.0                                 |
|   \\  /    A nd           | Web:      www.OpenFOAM.org                      |
|    \\/     M anipulation  |                                                 |
\*---------------------------------------------------------------------------*/
FoamFile
{
    version     2.0;
    format      ascii;
    class       volScalarField;
    location    "6000";
    object      T;
}
// * * * * * * * * * * * * * * * * * * * * * * * * * * * * * * * * * * * * * //

dimensions      [0 0 0 1 0 0 0];

internalField   nonuniform List<scalar> 
192
(
40.0227
40.0201
39.9342
39.8317
39.807
39.9621
40.2472
40.586
41.0556
41.5755
41.4114
40.8917
40.4868
33.0631
33.1911
33.2249
33.2328
33.3256
33.6485
34.2501
35.3422
36.9824
38.7336
38.1672
36.3624
34.9305
28.2115
28.5011
28.7291
28.9353
29.1884
29.6076
30.4673
32.0651
34.4713
36.9911
36.1717
33.5473
31.4464
26.1522
26.5158
26.8475
27.1507
27.4483
27.8435
28.719
30.4141
33.0957
35.9197
34.9951
32.0405
29.7335
26.1476
26.4844
26.8033
27.0773
27.3018
27.5999
28.2854
29.8216
32.4723
35.2812
34.3583
31.399
29.1669
27.0579
27.3327
27.5786
27.7545
27.8566
27.9981
28.4799
29.8309
32.3247
34.9212
34.0715
31.2952
29.2262
28.1751
28.3754
28.523
28.5866
28.598
28.6257
29.0443
30.2621
32.4395
34.6667
33.9257
31.5324
29.7099
29.1824
29.3015
29.3646
29.3782
29.3801
29.4612
29.8711
30.8934
32.6392
34.4482
33.8167
31.9023
30.4313
29.9753
30.0685
30.1346
30.1786
30.2249
30.3678
30.7532
31.561
32.8701
34.2576
33.7378
32.3065
31.1967
30.5526
30.6887
30.8011
30.903
31.0209
31.2086
31.5525
32.1613
33.0878
34.0853
33.6776
32.6756
31.8838
30.647
30.8917
31.117
31.3303
31.5462
31.7932
32.1184
32.5823
33.217
33.8872
33.5861
32.9209
32.3656
29.6608
30.0902
30.4974
30.8879
31.2675
31.6453
32.0381
32.469
32.9478
33.3944
33.1802
32.7178
32.2678
26.4451
27.0867
27.7034
28.3034
28.8908
29.4656
30.0237
30.5567
31.0421
31.4003
31.2373
30.8192
19.5766
20.2784
20.9604
21.6276
22.2811
22.9168
23.5243
24.0832
24.554
24.8482
24.7308
24.3512
7.91749
8.31024
8.69972
9.08653
9.46834
9.8387
10.186
10.4924
10.7323
10.8666
10.8186
10.635
)
;

boundaryField
{
    top
    {
        type            fixedValue;
        value           uniform 0;
    }
    bottom
    {
        type            fixedValue;
        value           uniform 43.8;
    }
    frontAndBack
    {
        type            empty;
    }
    left_cyc
    {
        type            cyclic;
    }
    right_cyc
    {
        type            cyclic;
    }
    procBoundary0to1
    {
        type            processor;
        value           nonuniform List<scalar> 
16
(
40.1909
34.0403
30.1586
28.3927
28
28.2577
28.8366
29.6753
30.5759
31.3959
31.9694
31.8616
30.3195
30.3195
23.8457
10.3672
)
;
    }
    procBoundary0to3throughleft_cyc
    {
        type            processorCyclic;
        value           nonuniform List<scalar> 
15
(
39.8968
32.8119
27.8415
25.7563
25.8136
26.7906
27.9621
29.0265
29.8514
30.3911
30.3784
29.203
25.7693
18.8486
7.51988
)
;
    }
}


// ************************************************************************* //
