/*--------------------------------*- C++ -*----------------------------------*\
| =========                 |                                                 |
| \\      /  F ield         | OpenFOAM: The Open Source CFD Toolbox           |
|  \\    /   O peration     | Version:  2.3.0                                 |
|   \\  /    A nd           | Web:      www.OpenFOAM.org                      |
|    \\/     M anipulation  |                                                 |
\*---------------------------------------------------------------------------*/
FoamFile
{
    version     2.0;
    format      ascii;
    class       volVectorField;
    location    "6000";
    object      U;
}
// * * * * * * * * * * * * * * * * * * * * * * * * * * * * * * * * * * * * * //

dimensions      [0 1 -1 0 0 0 0];

internalField   nonuniform List<vector> 
192
(
(46.3553 0 0.295457)
(47.1025 0 -0.402428)
(49.265 0 -1.25773)
(52.8479 0 -2.07315)
(57.2682 0 -2.44273)
(60.9597 0 -1.77123)
(61.3064 0 0.400305)
(54.8546 0 4.2268)
(38.3481 0 9.11932)
(10.3083 0 13.0805)
(-21.61 0 11.8868)
(-45.422 0 7.22454)
(-57.8203 0 2.60822)
(82.187 0 -0.737008)
(84.4606 0 -2.68326)
(87.8412 0 -4.77088)
(92.0385 0 -6.3167)
(96.1239 0 -6.12717)
(98.2398 0 -2.57557)
(95.2822 0 5.82698)
(83.0123 0 19.7445)
(57.188 0 37.3623)
(15.3023 0 51.3386)
(-32.3602 0 47.2084)
(-68.2563 0 30.5618)
(-88.5476 0 13.8936)
(86.7923 0 -3.18649)
(89.4766 0 -5.89847)
(92.5044 0 -8.53109)
(95.4689 0 -9.9396)
(97.5104 0 -8.22509)
(97.1326 0 -0.799998)
(91.9573 0 15.0285)
(78.6169 0 40.6795)
(53.5195 0 73.3099)
(14.1761 0 99.0782)
(-30.4647 0 91.5402)
(-64.3909 0 60.6757)
(-84.6519 0 29.9125)
(77.6205 0 -5.55644)
(79.5793 0 -8.33808)
(81.2688 0 -10.7349)
(82.284 0 -11.321)
(81.9576 0 -7.78683)
(79.2645 0 3.02947)
(72.7414 0 24.5692)
(60.3881 0 58.8334)
(40.0529 0 102.445)
(10.3304 0 136.721)
(-22.8472 0 126.729)
(-48.9425 0 85.4835)
(-65.9614 0 44.4382)
(61.4218 0 -7.0698)
(62.0436 0 -9.46636)
(62.0136 0 -11.1676)
(61.0158 0 -10.5973)
(58.6287 0 -5.24206)
(54.3044 0 8.31463)
(47.4149 0 33.7944)
(37.2681 0 73.372)
(23.2898 0 123.176)
(5.61746 0 161.769)
(-13.2237 0 150.537)
(-29.4379 0 103.745)
(-41.8047 0 56.7252)
(40.0414 0 -7.25748)
(39.2496 0 -8.98149)
(37.6633 0 -9.77681)
(35.1099 0 -8.03201)
(31.4228 0 -1.20016)
(26.4927 0 14.1217)
(20.3856 0 41.568)
(13.4233 0 83.0936)
(6.47295 0 134.281)
(1.01674 0 173.057)
(-3.54506 0 161.772)
(-9.52091 0 114.275)
(-16.4671 0 65.607)
(15.1183 0 -6.14612)
(13.2237 0 -7.12911)
(10.5929 0 -7.07639)
(7.1983 0 -4.41192)
(3.09519 0 3.32145)
(-1.45636 0 19.3146)
(-5.85517 0 46.8751)
(-8.9326 0 87.39)
(-8.68201 0 135.849)
(-2.95596 0 171.467)
(5.12526 0 161.056)
(8.85156 0 116.9)
(7.71686 0 70.3225)
(-10.8162 0 -4.14166)
(-13.3307 0 -4.46792)
(-16.4527 0 -3.75884)
(-20.0909 0 -0.534128)
(-23.9734 0 7.46486)
(-27.5047 0 23.0763)
(-29.586 0 49.0517)
(-28.3279 0 86)
(-21.1544 0 128.589)
(-6.03195 0 158.882)
(12.1928 0 149.927)
(24.4205 0 111.919)
(29.1543 0 70.4402)
(-34.968 0 -1.7311)
(-37.6694 0 -1.49009)
(-40.8875 0 -0.306881)
(-44.4038 0 3.1225)
(-47.7097 0 10.7439)
(-49.8583 0 24.9283)
(-49.2774 0 47.7096)
(-43.65 0 79.0237)
(-30.4061 0 113.794)
(-8.13035 0 137.751)
(17.3995 0 130.537)
(36.3856 0 100.136)
(46.522 0 65.8289)
(-54.691 0 0.69082)
(-57.2598 0 1.45801)
(-60.2772 0 2.97781)
(-63.3941 0 6.28808)
(-65.8883 0 12.913)
(-66.5048 0 24.6511)
(-63.3394 0 42.8745)
(-53.9471 0 67.1599)
(-36.1253 0 93.2492)
(-9.25438 0 110.727)
(20.6316 0 105.331)
(44.1797 0 82.9253)
(58.5814 0 56.8973)
(-67.2301 0 2.86043)
(-69.387 0 4.11965)
(-71.8793 0 5.85865)
(-74.2926 0 8.78035)
(-75.7936 0 13.9217)
(-74.9799 0 22.4782)
(-69.8479 0 35.2961)
(-58.0603 0 51.9338)
(-37.8829 0 69.3644)
(-9.38076 0 80.8047)
(21.6923 0 77.1609)
(47.0838 0 62.3833)
(63.8433 0 44.8622)
(-69.6921 0 4.3647)
(-71.0973 0 5.91613)
(-72.6034 0 7.63328)
(-73.8634 0 9.88626)
(-74.1425 0 13.2265)
(-72.1803 0 18.2902)
(-66.1901 0 25.5282)
(-54.1587 0 34.6994)
(-34.7511 0 44.1709)
(-8.35646 0 50.3476)
(20.0642 0 48.3032)
(43.7725 0 40.313)
(60.1277 0 30.7711)
(-61.1669 0 6.36364)
(-61.2822 0 8.14691)
(-61.0802 0 9.99912)
(-60.4162 0 11.9868)
(-58.8978 0 14.2059)
(-55.7805 0 16.7617)
(-49.9498 0 19.7198)
(-40.0984 0 22.9984)
(-25.3268 0 26.1852)
(-5.88302 0 28.2519)
(14.8691 0 27.5253)
(32.44 0 24.8617)
(-52.842 0 3.53815)
(-50.4085 0 4.34346)
(-47.3254 0 5.14321)
(-43.5735 0 5.95198)
(-39.1015 0 6.76395)
(-33.8227 0 7.54768)
(-27.6186 0 8.24365)
(-20.3542 0 8.77265)
(-11.9616 0 9.07206)
(-2.51447 0 9.15956)
(7.21293 0 9.14866)
(16.2143 0 8.97667)
(-50.9923 0 3.02869)
(-48.3745 0 3.20648)
(-45.0925 0 3.37168)
(-41.1165 0 3.52778)
(-36.4093 0 3.67507)
(-30.9364 0 3.8101)
(-24.6849 0 3.92565)
(-17.6903 0 4.01271)
(-10.074 0 4.06442)
(-2.0456 0 4.08668)
(6.08032 0 4.0808)
(13.961 0 4.04847)
)
;

boundaryField
{
    top
    {
        type            directionMixed;
        refValue        uniform (0 0 0);
        refGradient     uniform (0 0 0);
        valueFraction   uniform (0 0 0 0 0 1);
        value           nonuniform List<vector> 
12
(
(-50.9923 0 0)
(-48.3745 0 0)
(-45.0925 0 0)
(-41.1165 0 0)
(-36.4093 0 0)
(-30.9364 0 0)
(-24.6849 0 0)
(-17.6903 0 0)
(-10.074 0 0)
(-2.0456 0 0)
(6.08032 0 0)
(13.961 0 0)
)
;
    }
    bottom
    {
        type            fixedValue;
        value           uniform (0 0 0);
    }
    frontAndBack
    {
        type            empty;
    }
    left_cyc
    {
        type            cyclic;
    }
    right_cyc
    {
        type            cyclic;
    }
    procBoundary0to1
    {
        type            processor;
        value           nonuniform List<vector> 
16
(
(-61.2886 0 -0.610225)
(-96.7829 0 2.04071)
(-94.4784 0 7.98617)
(-75.8099 0 15.0577)
(-50.5449 0 22.5848)
(-23.0593 0 29.5097)
(4.05655 0 34.7801)
(28.9545 0 37.6661)
(49.9658 0 37.7379)
(65.292 0 34.9013)
(72.7587 0 29.6856)
(69.528 0 22.3633)
(45.126 0 21.6039)
(45.126 0 21.6039)
(24.1297 0 8.57505)
(21.3335 0 3.98234)
)
;
    }
    procBoundary0to3throughleft_cyc
    {
        type            processorCyclic;
        value           nonuniform List<vector> 
15
(
(46.7485 0 0.796751)
(80.9531 0 0.776002)
(84.5712 0 -0.952401)
(75.6154 0 -3.14311)
(60.3821 0 -4.8512)
(40.2074 0 -5.51767)
(16.3499 0 -5.01909)
(-8.91131 0 -3.61825)
(-32.842 0 -1.76891)
(-52.6893 0 0.0963181)
(-65.5618 0 1.71263)
(-68.5046 0 2.80748)
(-60.7526 0 4.62568)
(-54.6204 0 2.70366)
(-52.9629 0 2.83384)
)
;
    }
}


// ************************************************************************* //
