/*--------------------------------*- C++ -*----------------------------------*\
| =========                 |                                                 |
| \\      /  F ield         | OpenFOAM: The Open Source CFD Toolbox           |
|  \\    /   O peration     | Version:  2.3.0                                 |
|   \\  /    A nd           | Web:      www.OpenFOAM.org                      |
|    \\/     M anipulation  |                                                 |
\*---------------------------------------------------------------------------*/
FoamFile
{
    version     2.0;
    format      ascii;
    class       volScalarField;
    location    "23000";
    object      NUEff;
}
// * * * * * * * * * * * * * * * * * * * * * * * * * * * * * * * * * * * * * //

dimensions      [0 2 -1 0 0 0 0];

internalField   nonuniform List<scalar> 
3060
(
0.175144
0.17495
0.174597
0.174098
0.173465
0.172714
0.171856
0.170906
0.169872
0.168764
0.167588
0.166352
0.165069
0.163775
0.162498
0.16124
0.160003
0.158798
0.157643
0.156562
0.155578
0.154718
0.15401
0.153481
0.153158
0.153067
0.153216
0.15359
0.154165
0.154912
0.155805
0.156815
0.157916
0.159086
0.1603
0.161544
0.162807
0.16409
0.165389
0.166664
0.167887
0.169047
0.170137
0.171151
0.172078
0.172909
0.17363
0.174227
0.174687
0.174997
0.175144
0.175119
0.174925
0.174572
0.174072
0.173438
0.172685
0.171826
0.170873
0.169837
0.168726
0.167548
0.166309
0.165023
0.163728
0.162451
0.161192
0.159955
0.158751
0.157598
0.156519
0.15554
0.154686
0.153984
0.153463
0.15315
0.153068
0.153227
0.15361
0.154193
0.154947
0.155844
0.156858
0.157963
0.159133
0.160349
0.161592
0.162855
0.164137
0.165435
0.166707
0.167927
0.169084
0.170172
0.171183
0.172109
0.172937
0.173657
0.174253
0.174712
0.175021
0.175168
0.635468
0.627787
0.613455
0.592444
0.564849
0.531193
0.492708
0.451413
0.409797
0.370196
0.334254
0.302759
0.275816
0.253126
0.234616
0.219542
0.207099
0.196784
0.188254
0.181252
0.175574
0.171067
0.16763
0.165205
0.16378
0.163379
0.16403
0.165696
0.168362
0.172051
0.176829
0.182812
0.190164
0.199103
0.209901
0.222932
0.238758
0.258319
0.282042
0.310121
0.342774
0.379746
0.420036
0.461785
0.502552
0.539914
0.572039
0.597894
0.617095
0.6296
0.635425
0.634455
0.626741
0.612349
0.591256
0.563569
0.529826
0.491284
0.449982
0.408414
0.368911
0.333097
0.301741
0.274934
0.252372
0.233993
0.219017
0.206655
0.19641
0.187942
0.180994
0.175365
0.170903
0.167508
0.165125
0.163743
0.163386
0.16408
0.165788
0.168496
0.172227
0.177052
0.183085
0.190495
0.199497
0.210369
0.223486
0.239415
0.259113
0.282967
0.311185
0.343975
0.38107
0.421446
0.463229
0.503972
0.541265
0.573299
0.599062
0.618186
0.630636
0.636435
0.940604
0.939856
0.938446
0.936328
0.933414
0.929561
0.924545
0.918023
0.909455
0.897971
0.882112
0.859296
0.824733
0.769384
0.678821
0.55018
0.420262
0.328266
0.271592
0.236455
0.213759
0.198632
0.188488
0.181947
0.17831
0.177307
0.178937
0.183234
0.190558
0.201742
0.218396
0.243531
0.282838
0.346736
0.448955
0.583632
0.704555
0.785524
0.83471
0.865781
0.886558
0.901154
0.911807
0.919799
0.9259
0.930592
0.934185
0.936879
0.938801
0.940028
0.940595
0.940501
0.939749
0.938331
0.936201
0.933268
0.929389
0.924336
0.917759
0.909111
0.897505
0.88145
0.858306
0.823164
0.76677
0.67459
0.544813
0.415818
0.325411
0.269823
0.235321
0.213005
0.198122
0.188148
0.181739
0.178215
0.177323
0.179063
0.183478
0.190942
0.202313
0.219241
0.244814
0.284865
0.350018
0.453855
0.58891
0.708339
0.7878
0.836087
0.866664
0.887157
0.901582
0.912127
0.920046
0.926098
0.930757
0.934326
0.937003
0.938914
0.940134
0.940698
0.971839
0.971534
0.970963
0.970116
0.968971
0.96749
0.965618
0.963271
0.960329
0.956608
0.951836
0.945579
0.93713
0.925265
0.907701
0.880062
0.832259
0.741212
0.578007
0.40461
0.302923
0.250869
0.222602
0.206764
0.198657
0.196499
0.200022
0.209745
0.227982
0.260546
0.321481
0.440521
0.623285
0.76914
0.846633
0.888109
0.912691
0.928579
0.939462
0.94729
0.953131
0.957612
0.961118
0.963898
0.966115
0.96788
0.969269
0.970333
0.971104
0.971602
0.971833
0.971795
0.971488
0.970915
0.970063
0.968912
0.967422
0.965538
0.963175
0.96021
0.956459
0.951641
0.945316
0.936764
0.924729
0.906872
0.878672
0.829685
0.736117
0.570209
0.398957
0.300015
0.249325
0.221733
0.206286
0.198451
0.196533
0.200299
0.210318
0.229002
0.262382
0.325006
0.447136
0.630689
0.773368
0.848787
0.889313
0.913436
0.929062
0.939796
0.947531
0.953313
0.957753
0.96123
0.963989
0.966191
0.967945
0.969327
0.970385
0.971152
0.971647
0.971877
0.98259
0.982397
0.982039
0.981509
0.980798
0.979888
0.978751
0.977347
0.975619
0.973485
0.970822
0.96745
0.963092
0.957307
0.94936
0.937939
0.920511
0.891648
0.838228
0.727551
0.530999
0.364468
0.283398
0.245507
0.228221
0.223842
0.231035
0.252212
0.297544
0.395328
0.582296
0.762222
0.854653
0.900175
0.925504
0.941139
0.95155
0.958886
0.964272
0.968357
0.971534
0.974054
0.976078
0.977718
0.97905
0.980126
0.980982
0.981644
0.982126
0.982439
0.982585
0.982561
0.982368
0.982007
0.981475
0.980761
0.979845
0.978701
0.977289
0.975549
0.973398
0.970712
0.967309
0.962905
0.95705
0.948993
0.937389
0.919628
0.890094
0.835141
0.720991
0.522288
0.359639
0.281168
0.244445
0.227799
0.223911
0.231612
0.253526
0.300308
0.401307
0.591209
0.767582
0.857167
0.901487
0.926272
0.941628
0.951881
0.959121
0.964445
0.968489
0.971637
0.974136
0.976145
0.977774
0.979097
0.980167
0.981018
0.981677
0.982157
0.982469
0.982614
0.987788
0.987641
0.987369
0.986968
0.986432
0.985751
0.984907
0.983875
0.982619
0.981088
0.979208
0.976871
0.973916
0.970098
0.965025
0.958023
0.947934
0.932557
0.907226
0.860771
0.764413
0.578355
0.397656
0.309291
0.273084
0.264438
0.278753
0.324156
0.432017
0.629767
0.794793
0.874983
0.914675
0.936948
0.950755
0.959951
0.966405
0.971128
0.974708
0.977494
0.979707
0.981493
0.98295
0.984146
0.985128
0.985928
0.98657
0.987069
0.987435
0.987673
0.987784
0.987766
0.987619
0.987345
0.986942
0.986404
0.985719
0.98487
0.983831
0.982567
0.981025
0.97913
0.976773
0.973789
0.969928
0.964792
0.95769
0.947437
0.931764
0.905845
0.85806
0.758539
0.569292
0.392235
0.306971
0.272239
0.264572
0.279931
0.327125
0.438726
0.63856
0.799522
0.877196
0.915844
0.937637
0.951196
0.960249
0.966615
0.971284
0.974827
0.977587
0.979781
0.981553
0.982999
0.984187
0.985163
0.985959
0.986598
0.987095
0.987459
0.987696
0.987806
0.99071
0.990586
0.990355
0.990016
0.989565
0.988995
0.988293
0.987442
0.986417
0.985179
0.983677
0.981832
0.979533
0.976607
0.972792
0.967641
0.960447
0.949953
0.933734
0.906619
0.85632
0.753302
0.571834
0.414442
0.343421
0.326947
0.354378
0.443521
0.619366
0.785273
0.87171
0.914615
0.938378
0.952895
0.962433
0.969048
0.973827
0.977392
0.980145
0.982321
0.984073
0.985505
0.986686
0.987665
0.988476
0.989143
0.989681
0.990102
0.990411
0.990613
0.990707
0.990692
0.990567
0.990335
0.989994
0.989541
0.988968
0.988262
0.987406
0.986374
0.985128
0.983614
0.981754
0.979433
0.976477
0.972617
0.967397
0.960097
0.949424
0.932879
0.905112
0.853349
0.747125
0.563558
0.409858
0.341793
0.327201
0.356671
0.449277
0.627749
0.790352
0.874137
0.915887
0.93912
0.953364
0.962748
0.969268
0.973988
0.977513
0.980239
0.982395
0.984133
0.985553
0.986726
0.987699
0.988506
0.989169
0.989704
0.990123
0.990431
0.990632
0.990726
0.992494
0.99238
0.992169
0.99186
0.991451
0.990937
0.990308
0.989551
0.988647
0.987566
0.986267
0.984689
0.982743
0.980293
0.977136
0.972937
0.967189
0.959029
0.946895
0.927732
0.895024
0.834049
0.717953
0.557486
0.449698
0.42212
0.467666
0.594757
0.752058
0.85257
0.904709
0.93325
0.950313
0.96129
0.968762
0.974077
0.977989
0.980948
0.983259
0.985106
0.986609
0.98785
0.988884
0.989749
0.990472
0.99107
0.991557
0.991939
0.992221
0.992405
0.992492
0.992477
0.992363
0.992151
0.991841
0.99143
0.990913
0.990281
0.98952
0.98861
0.987522
0.986213
0.984622
0.982658
0.980184
0.976991
0.972739
0.96691
0.958621
0.946268
0.9267
0.893175
0.830462
0.711536
0.551218
0.446994
0.42255
0.471384
0.601665
0.757692
0.855533
0.906265
0.934141
0.950865
0.961654
0.969014
0.974258
0.978122
0.981049
0.983338
0.985169
0.98666
0.987892
0.988919
0.989779
0.990498
0.991093
0.991577
0.991958
0.992239
0.992422
0.992508
0.993641
0.993531
0.993327
0.99303
0.992638
0.992147
0.991551
0.99084
0.989997
0.988999
0.987811
0.986382
0.984636
0.982459
0.979678
0.976024
0.971094
0.964232
0.954298
0.939207
0.914901
0.873178
0.799267
0.685351
0.579635
0.546358
0.599839
0.714938
0.82085
0.885465
0.921926
0.94348
0.957063
0.966117
0.972435
0.97701
0.980425
0.983039
0.985098
0.986758
0.988123
0.989261
0.990218
0.991026
0.991707
0.992275
0.99274
0.993106
0.993378
0.993556
0.993639
0.993626
0.993515
0.993311
0.993012
0.992618
0.992125
0.991526
0.990811
0.989963
0.988959
0.987762
0.986322
0.98456
0.982362
0.979551
0.975852
0.970857
0.963892
0.953791
0.938411
0.913571
0.870825
0.795165
0.680087
0.57649
0.546899
0.60388
0.720148
0.824405
0.887462
0.92307
0.944178
0.957514
0.966424
0.972651
0.977168
0.980544
0.983129
0.985169
0.986815
0.988169
0.989299
0.99025
0.991054
0.991731
0.992296
0.992759
0.993124
0.993394
0.993571
0.993654
0.994409
0.994299
0.994094
0.993796
0.993404
0.992916
0.992326
0.991628
0.990808
0.989846
0.988712
0.987361
0.985726
0.983706
0.981146
0.977818
0.973387
0.967313
0.958704
0.946011
0.926451
0.894997
0.843731
0.768139
0.691446
0.664098
0.707152
0.787958
0.85829
0.904018
0.932
0.94956
0.961079
0.968971
0.974586
0.978712
0.98183
0.984241
0.986157
0.987716
0.989009
0.990098
0.991023
0.991811
0.992481
0.993044
0.993507
0.993874
0.994146
0.994325
0.994409
0.994395
0.994284
0.994079
0.99378
0.993386
0.992895
0.992303
0.991601
0.990776
0.989808
0.988666
0.987305
0.985656
0.983616
0.981029
0.977663
0.973175
0.967015
0.958269
0.945353
0.925409
0.893288
0.840988
0.764566
0.688944
0.664561
0.71022
0.791415
0.860715
0.905503
0.932912
0.950143
0.961469
0.969241
0.97478
0.978856
0.981938
0.984325
0.986223
0.987769
0.989053
0.990134
0.991053
0.991837
0.992504
0.993064
0.993525
0.99389
0.994161
0.994339
0.994423
0.994945
0.994831
0.99462
0.994312
0.993908
0.993406
0.992804
0.992096
0.99127
0.99031
0.98919
0.987869
0.986285
0.984347
0.981913
0.978783
0.974664
0.969098
0.96135
0.950216
0.93368
0.90849
0.870371
0.818278
0.766879
0.748215
0.777475
0.83165
0.880892
0.915554
0.938298
0.953296
0.963472
0.970609
0.975774
0.979621
0.982561
0.98486
0.986702
0.988216
0.989484
0.990562
0.991487
0.992283
0.992964
0.993539
0.994015
0.994394
0.994675
0.99486
0.994947
0.994932
0.994818
0.994605
0.994296
0.993891
0.993387
0.992782
0.99207
0.99124
0.990274
0.989146
0.987815
0.986219
0.984263
0.981803
0.978639
0.974469
0.968827
0.960964
0.949648
0.932819
0.907167
0.868414
0.815883
0.765186
0.748533
0.779534
0.833995
0.882664
0.916728
0.939062
0.953804
0.963821
0.970856
0.975954
0.979755
0.982663
0.984939
0.986765
0.988266
0.989525
0.990597
0.991517
0.992308
0.992985
0.993558
0.994032
0.994409
0.994689
0.994873
0.99496
0.995338
0.995218
0.994996
0.994671
0.994246
0.99372
0.993091
0.992353
0.9915
0.990517
0.989379
0.988051
0.986476
0.984568
0.982195
0.97918
0.975258
0.970029
0.962878
0.952838
0.938414
0.917464
0.887759
0.850106
0.815067
0.802648
0.822183
0.859519
0.895749
0.923225
0.942388
0.955589
0.964823
0.971441
0.97631
0.979984
0.982825
0.985072
0.986891
0.9884
0.989679
0.990776
0.991726
0.992549
0.993259
0.993861
0.994361
0.994759
0.995056
0.99525
0.995341
0.995326
0.995206
0.994982
0.994657
0.99423
0.993701
0.993069
0.992328
0.991471
0.990482
0.989337
0.988
0.986412
0.984486
0.98209
0.979042
0.975074
0.969778
0.962526
0.952334
0.93768
0.916397
0.886293
0.84844
0.813938
0.802859
0.823568
0.861182
0.897106
0.924189
0.943048
0.956044
0.965143
0.971672
0.97648
0.980112
0.982923
0.985148
0.986952
0.98845
0.989719
0.99081
0.991754
0.992573
0.993279
0.993879
0.994377
0.994773
0.995069
0.995263
0.995353
0.995644
0.995517
0.99528
0.994935
0.994482
0.993922
0.993254
0.992474
0.991576
0.990548
0.989369
0.988005
0.986404
0.984485
0.982128
0.97917
0.97537
0.970374
0.963657
0.954442
0.941615
0.923779
0.899919
0.871667
0.846921
0.838436
0.851852
0.878555
0.90619
0.928597
0.945104
0.956945
0.965473
0.971717
0.976386
0.979957
0.982753
0.984993
0.986826
0.988364
0.98968
0.990821
0.991815
0.992683
0.993434
0.994074
0.994605
0.995029
0.995345
0.995552
0.995649
0.995633
0.995505
0.995267
0.994921
0.994466
0.993904
0.993233
0.99245
0.991548
0.990514
0.989327
0.987954
0.986341
0.984406
0.982027
0.979037
0.975194
0.970137
0.963332
0.953988
0.940977
0.922897
0.898785
0.870465
0.846146
0.838579
0.852813
0.879777
0.907262
0.929407
0.945685
0.957359
0.965771
0.971935
0.976548
0.980081
0.982849
0.985067
0.986886
0.988413
0.98972
0.990854
0.991843
0.992706
0.993454
0.994091
0.994621
0.995043
0.995358
0.995564
0.99566
0.995899
0.995763
0.99551
0.995141
0.994657
0.994057
0.993343
0.99251
0.991554
0.990465
0.989224
0.987801
0.986147
0.984187
0.981812
0.97887
0.975141
0.97031
0.963933
0.955387
0.943854
0.928469
0.908951
0.887202
0.869173
0.86318
0.872703
0.892385
0.913977
0.932559
0.946955
0.957689
0.965647
0.971603
0.976135
0.979652
0.982441
0.984706
0.986584
0.988177
0.989553
0.990755
0.991811
0.992735
0.993537
0.994222
0.99479
0.995244
0.995582
0.995802
0.995905
0.995888
0.995752
0.995498
0.995128
0.994641
0.99404
0.993322
0.992486
0.991526
0.990431
0.989183
0.987751
0.986085
0.984109
0.981713
0.978741
0.974972
0.970085
0.96363
0.954975
0.943295
0.927731
0.908055
0.886311
0.868625
0.86328
0.87339
0.893307
0.914839
0.933246
0.94747
0.958068
0.965926
0.971811
0.976292
0.979772
0.982535
0.984779
0.986643
0.988225
0.989592
0.990788
0.991838
0.992758
0.993557
0.994238
0.994805
0.995257
0.995593
0.995813
0.995916
0.996125
0.995981
0.995711
0.995317
0.994799
0.994158
0.993393
0.992501
0.991479
0.990317
0.988998
0.987497
0.98577
0.983747
0.981329
0.978376
0.974686
0.969979
0.963891
0.955933
0.945529
0.932198
0.916099
0.89909
0.885622
0.881257
0.888223
0.903069
0.920169
0.93569
0.948295
0.958059
0.965517
0.971235
0.975667
0.979159
0.981969
0.984282
0.986227
0.987896
0.989349
0.990628
0.991755
0.992744
0.993603
0.994336
0.994944
0.995429
0.995789
0.996024
0.996133
0.996115
0.99597
0.9957
0.995304
0.994785
0.994141
0.993373
0.992478
0.991451
0.990283
0.988957
0.987448
0.985708
0.98367
0.981231
0.97825
0.974523
0.969765
0.963608
0.955559
0.945038
0.931579
0.915386
0.898417
0.885224
0.881328
0.888726
0.903776
0.920866
0.936274
0.948751
0.958406
0.965779
0.971433
0.975819
0.979276
0.982061
0.984354
0.986285
0.987943
0.989388
0.990661
0.991782
0.992767
0.993622
0.994352
0.994958
0.995441
0.9958
0.996034
0.996143
0.996337
0.996185
0.995899
0.995481
0.994931
0.994249
0.993433
0.992481
0.991388
0.990147
0.988742
0.987152
0.985337
0.983236
0.98076
0.977781
0.974121
0.96954
0.963737
0.95634
0.946969
0.935417
0.922083
0.908644
0.898415
0.895168
0.900368
0.911739
0.925401
0.938402
0.949434
0.958301
0.965279
0.970758
0.975092
0.978571
0.981416
0.983792
0.985819
0.987576
0.989118
0.990482
0.991686
0.992742
0.993659
0.99444
0.995087
0.995601
0.995983
0.996232
0.996347
0.996328
0.996175
0.995889
0.995469
0.994918
0.994233
0.993413
0.992458
0.991361
0.990114
0.988702
0.987103
0.985276
0.98316
0.980665
0.97766
0.973965
0.969338
0.963475
0.956002
0.946541
0.934899
0.921513
0.90813
0.898121
0.895221
0.900743
0.912286
0.925965
0.938898
0.949837
0.958616
0.965523
0.970946
0.975238
0.978684
0.981505
0.983863
0.985876
0.987623
0.989157
0.990514
0.991712
0.992764
0.993677
0.994455
0.9951
0.995613
0.995993
0.996241
0.996356
0.996546
0.996385
0.996086
0.995646
0.995068
0.994348
0.993485
0.992477
0.991318
0.990002
0.988514
0.986835
0.984931
0.982751
0.980217
0.977213
0.973587
0.969139
0.963629
0.95679
0.948397
0.938431
0.927401
0.916743
0.908906
0.906462
0.910389
0.919166
0.930108
0.940975
0.950583
0.95859
0.965086
0.970318
0.974548
0.978009
0.980888
0.983329
0.985439
0.987285
0.988915
0.99036
0.991636
0.992756
0.993726
0.994551
0.995233
0.995774
0.996175
0.996436
0.996557
0.996537
0.996376
0.996076
0.995635
0.995054
0.994332
0.993467
0.992455
0.991291
0.989969
0.988474
0.986786
0.984871
0.982677
0.980124
0.977097
0.973439
0.968951
0.96339
0.956489
0.948027
0.938
0.926947
0.916349
0.908686
0.906501
0.910671
0.919589
0.930563
0.941392
0.950935
0.958874
0.965311
0.970494
0.974687
0.978119
0.980976
0.9834
0.985496
0.987331
0.988953
0.990391
0.991662
0.992777
0.993744
0.994566
0.995245
0.995785
0.996184
0.996445
0.996565
0.996756
0.99659
0.996279
0.995823
0.995222
0.994474
0.993575
0.992522
0.99131
0.989929
0.98837
0.986613
0.984632
0.982385
0.979805
0.976794
0.973223
0.968934
0.963746
0.957484
0.950041
0.941523
0.93246
0.924032
0.918019
0.916173
0.919149
0.925927
0.934658
0.943674
0.951963
0.959121
0.965111
0.970067
0.974168
0.977592
0.98049
0.982983
0.985163
0.987087
0.988793
0.990307
0.991644
0.992815
0.993828
0.994686
0.995395
0.995956
0.996372
0.996643
0.996769
0.996748
0.996581
0.996269
0.995813
0.99521
0.994459
0.993557
0.992501
0.991283
0.989897
0.988331
0.986566
0.984574
0.982313
0.979716
0.976683
0.973084
0.96876
0.96353
0.957219
0.949726
0.941169
0.932101
0.923731
0.917856
0.916203
0.919361
0.926253
0.935021
0.94402
0.952265
0.959372
0.965315
0.97023
0.974299
0.977697
0.980574
0.983051
0.985218
0.987132
0.98883
0.990337
0.991669
0.992836
0.993845
0.994701
0.995407
0.995967
0.996381
0.996651
0.996777
0.996973
0.996803
0.996485
0.99602
0.995407
0.994642
0.993723
0.992642
0.991395
0.989974
0.988366
0.986557
0.984525
0.98224
0.979646
0.976662
0.973188
0.969105
0.964289
0.95864
0.952143
0.944969
0.937617
0.931016
0.926433
0.925045
0.927291
0.932488
0.939382
0.946763
0.953807
0.960107
0.965551
0.970181
0.974107
0.977454
0.980336
0.98285
0.985072
0.987047
0.988805
0.990365
0.991742
0.992945
0.993982
0.994861
0.995584
0.996157
0.996581
0.996858
0.996987
0.996965
0.996795
0.996477
0.99601
0.995395
0.994628
0.993706
0.992622
0.99137
0.989943
0.988328
0.986511
0.984469
0.982172
0.979562
0.976559
0.973061
0.968948
0.964098
0.958412
0.951881
0.944684
0.937339
0.93079
0.926313
0.925067
0.927447
0.932735
0.939668
0.947044
0.954061
0.960325
0.965732
0.970329
0.974228
0.977552
0.980416
0.982915
0.985125
0.987091
0.988841
0.990394
0.991766
0.992964
0.993999
0.994874
0.995596
0.996167
0.99659
0.996866
0.996994
0.997199
0.997028
0.996709
0.996244
0.99563
0.994865
0.993943
0.992859
0.991606
0.990174
0.988555
0.986734
0.984696
0.982421
0.979866
0.976968
0.973654
0.969845
0.965467
0.960482
0.954935
0.949022
0.943175
0.938093
0.93465
0.93362
0.935292
0.939219
0.944567
0.950488
0.956345
0.961769
0.966609
0.970846
0.97453
0.977737
0.980548
0.983032
0.985247
0.98723
0.988999
0.99057
0.991955
0.993164
0.994204
0.995084
0.995808
0.996382
0.996807
0.997084
0.997213
0.997192
0.997021
0.996701
0.996235
0.995619
0.994852
0.993927
0.99284
0.991582
0.990145
0.988519
0.986691
0.984644
0.982358
0.979788
0.976874
0.97354
0.969707
0.965303
0.960292
0.954722
0.948799
0.942965
0.937927
0.934563
0.933636
0.935406
0.939402
0.944785
0.950711
0.956552
0.961953
0.966766
0.970977
0.974638
0.977827
0.980621
0.983092
0.985297
0.987271
0.989033
0.990598
0.991978
0.993182
0.99422
0.995096
0.995819
0.99639
0.996814
0.997091
0.99722
0.997435
0.997266
0.996954
0.996497
0.995897
0.995148
0.994247
0.993188
0.991962
0.990562
0.988978
0.987201
0.985218
0.983022
0.980577
0.977843
0.974773
0.971322
0.96746
0.963192
0.958596
0.953863
0.94934
0.945524
0.942996
0.942248
0.943467
0.946365
0.950409
0.955028
0.959757
0.964288
0.968464
0.972228
0.975584
0.97857
0.981231
0.983613
0.985756
0.987687
0.989415
0.990951
0.992305
0.993487
0.994504
0.995363
0.996072
0.996633
0.99705
0.997322
0.99745
0.997429
0.99726
0.996947
0.996489
0.995887
0.995136
0.994233
0.99317
0.99194
0.990535
0.988946
0.987161
0.985171
0.982964
0.980508
0.977761
0.974675
0.971206
0.967325
0.963039
0.95843
0.953695
0.949185
0.945405
0.942934
0.942259
0.943547
0.946497
0.950571
0.955198
0.95992
0.964437
0.968595
0.97234
0.975679
0.978649
0.981297
0.983668
0.985802
0.987725
0.989446
0.990976
0.992326
0.993504
0.994518
0.995375
0.996081
0.996641
0.997057
0.997329
0.997456
0.997681
0.997519
0.997219
0.996782
0.996209
0.995496
0.994641
0.993636
0.992476
0.991153
0.98966
0.987989
0.986135
0.984095
0.981847
0.979368
0.976634
0.973629
0.970353
0.96684
0.963177
0.959529
0.956151
0.953379
0.951579
0.951052
0.951914
0.953988
0.956945
0.960421
0.964097
0.967738
0.971202
0.974416
0.977356
0.980027
0.982449
0.984646
0.986639
0.988447
0.990073
0.991522
0.992802
0.99392
0.994885
0.995702
0.996376
0.996912
0.997311
0.997573
0.997696
0.997675
0.997513
0.997212
0.996775
0.9962
0.995486
0.994628
0.99362
0.992457
0.99113
0.989631
0.987954
0.986093
0.984045
0.981788
0.979298
0.976553
0.973535
0.970247
0.966723
0.963054
0.959407
0.956042
0.953297
0.951538
0.95106
0.951969
0.954079
0.95706
0.960545
0.96422
0.967854
0.971306
0.974507
0.977435
0.980095
0.982506
0.984694
0.98668
0.988481
0.990101
0.991545
0.99282
0.993936
0.994897
0.995712
0.996385
0.996919
0.997317
0.997579
0.997701
0.997936
0.997784
0.997504
0.997098
0.996567
0.995909
0.995122
0.994203
0.993146
0.991945
0.990596
0.989095
0.98744
0.985634
0.983666
0.981526
0.979209
0.976719
0.974075
0.971319
0.968534
0.965845
0.963428
0.961494
0.96026
0.959902
0.96049
0.961917
0.963994
0.9665
0.96923
0.97202
0.974757
0.977369
0.97982
0.982095
0.984193
0.986122
0.987891
0.989507
0.990969
0.99228
0.993442
0.994463
0.995347
0.996099
0.996722
0.997219
0.997591
0.997836
0.997951
0.997932
0.997779
0.997499
0.997092
0.996559
0.9959
0.995111
0.994189
0.993129
0.991925
0.990572
0.989066
0.987405
0.985593
0.983617
0.98147
0.979145
0.976646
0.973994
0.971234
0.968446
0.965761
0.963355
0.96144
0.960233
0.959907
0.960526
0.961978
0.964071
0.966586
0.969318
0.972105
0.974836
0.97744
0.979882
0.982149
0.98424
0.986162
0.987925
0.989536
0.990993
0.992299
0.993459
0.994476
0.995358
0.996108
0.996729
0.997225
0.997596
0.99784
0.997955
0.9982
0.998062
0.997808
0.997442
0.996966
0.99638
0.995684
0.994876
0.993953
0.992913
0.991753
0.990472
0.989073
0.987561
0.985932
0.984188
0.982336
0.980389
0.978373
0.976329
0.974322
0.972438
0.97079
0.969499
0.968689
0.968456
0.96884
0.969782
0.971175
0.972895
0.974821
0.976847
0.978891
0.980896
0.982823
0.984651
0.986367
0.987969
0.989454
0.990823
0.992073
0.993202
0.994212
0.995104
0.995883
0.996549
0.997105
0.997552
0.997887
0.998109
0.998214
0.998196
0.998058
0.997804
0.997437
0.99696
0.996372
0.995675
0.994864
0.993939
0.992896
0.991733
0.990448
0.989045
0.987528
0.985894
0.984145
0.982288
0.980336
0.978316
0.97627
0.974263
0.972383
0.970743
0.969465
0.968672
0.968459
0.968863
0.96982
0.971225
0.972952
0.97488
0.976906
0.978948
0.980948
0.98287
0.984693
0.986404
0.988001
0.989481
0.990847
0.992093
0.993219
0.994225
0.995116
0.995892
0.996557
0.997112
0.997557
0.997891
0.998113
0.998217
0.998471
0.99835
0.998128
0.997811
0.997401
0.996901
0.996311
0.995633
0.994867
0.994012
0.993069
0.992039
0.990926
0.989734
0.988469
0.987137
0.985749
0.984321
0.982878
0.981451
0.980086
0.978838
0.97777
0.976949
0.976441
0.976295
0.976536
0.977129
0.978019
0.97914
0.980424
0.981811
0.983247
0.984691
0.986112
0.987489
0.988806
0.990054
0.991227
0.99232
0.993328
0.994249
0.995081
0.995824
0.996479
0.997045
0.997521
0.997906
0.998197
0.998391
0.998483
0.998468
0.998346
0.998125
0.997807
0.997396
0.996894
0.996303
0.995624
0.994856
0.993998
0.993053
0.99202
0.990904
0.98971
0.988441
0.987106
0.985715
0.984285
0.982839
0.981413
0.980049
0.978804
0.977741
0.976929
0.976431
0.976297
0.976549
0.977152
0.978049
0.979175
0.980463
0.98185
0.983286
0.984728
0.986146
0.98752
0.988834
0.990079
0.991248
0.992338
0.993344
0.994262
0.995092
0.995834
0.996487
0.997051
0.997526
0.99791
0.998201
0.998394
0.998486
0.998747
0.998645
0.998461
0.998199
0.997863
0.997457
0.996984
0.996446
0.995847
0.995186
0.994467
0.993692
0.992865
0.991989
0.991073
0.990125
0.989155
0.988178
0.987213
0.98628
0.985408
0.984627
0.983972
0.983477
0.983173
0.983087
0.98323
0.983585
0.984124
0.984815
0.985623
0.986514
0.987459
0.98843
0.989408
0.990374
0.991316
0.992223
0.993087
0.993903
0.994664
0.995369
0.996014
0.996598
0.997118
0.997573
0.997961
0.998277
0.998518
0.99868
0.998757
0.998744
0.998643
0.998458
0.998195
0.997859
0.997452
0.996978
0.996439
0.995838
0.995176
0.994455
0.993678
0.992849
0.991972
0.991053
0.990103
0.989132
0.988154
0.987188
0.986256
0.985385
0.984607
0.983955
0.983465
0.983167
0.983088
0.983238
0.983598
0.984142
0.984836
0.985646
0.986539
0.987483
0.988454
0.98943
0.990395
0.991335
0.992241
0.993103
0.993916
0.994676
0.995378
0.996022
0.996605
0.997124
0.997578
0.997965
0.99828
0.998521
0.998683
0.99876
0.999026
0.998946
0.998802
0.998599
0.998341
0.998034
0.99768
0.997284
0.996848
0.996376
0.995869
0.995331
0.994764
0.994171
0.993559
0.992936
0.992311
0.991694
0.991095
0.990529
0.99001
0.989553
0.989176
0.988894
0.988723
0.988675
0.988755
0.988956
0.989263
0.989663
0.990137
0.990671
0.991247
0.991852
0.992473
0.993099
0.99372
0.994329
0.994916
0.995477
0.996007
0.996506
0.996969
0.997395
0.99778
0.998122
0.998416
0.998659
0.998847
0.998973
0.999034
0.999024
0.998944
0.9988
0.998596
0.998338
0.99803
0.997676
0.997279
0.996842
0.996369
0.995861
0.995322
0.994754
0.994159
0.993546
0.992923
0.992297
0.991679
0.991081
0.990515
0.989997
0.989542
0.989167
0.988888
0.98872
0.988676
0.98876
0.988963
0.989273
0.989675
0.990151
0.990685
0.991262
0.991867
0.992487
0.993113
0.993733
0.99434
0.994926
0.995486
0.996015
0.996512
0.996975
0.9974
0.997784
0.998125
0.998419
0.998662
0.998849
0.998975
0.999036
0.999306
0.999249
0.999147
0.999005
0.998826
0.998616
0.998377
0.998114
0.99783
0.997527
0.997207
0.996873
0.996525
0.996165
0.995798
0.99543
0.995068
0.994716
0.994381
0.99407
0.993788
0.993545
0.993346
0.993199
0.993111
0.993086
0.993128
0.993232
0.993392
0.993603
0.993857
0.994147
0.994466
0.994806
0.995161
0.995526
0.995894
0.99626
0.996618
0.996963
0.997294
0.99761
0.997908
0.998187
0.998444
0.998676
0.998878
0.999047
0.999179
0.999268
0.999311
0.999304
0.999247
0.999146
0.999003
0.998824
0.998613
0.998374
0.998111
0.997826
0.997522
0.997202
0.996867
0.996519
0.996158
0.99579
0.995423
0.99506
0.994708
0.994373
0.994062
0.993781
0.993539
0.993342
0.993196
0.993109
0.993086
0.99313
0.993235
0.993397
0.993609
0.993864
0.994155
0.994474
0.994814
0.995169
0.995534
0.995901
0.996267
0.996624
0.996968
0.997299
0.997614
0.997912
0.998191
0.998447
0.998678
0.99888
0.999049
0.99918
0.99927
0.999313
0.999585
0.999551
0.999492
0.999409
0.999306
0.999187
0.999054
0.99891
0.998758
0.998598
0.998432
0.998262
0.998086
0.997905
0.997723
0.997543
0.997368
0.997201
0.997045
0.996901
0.996773
0.996664
0.996576
0.996511
0.996472
0.996461
0.99648
0.996525
0.996596
0.99669
0.996805
0.996937
0.997084
0.997244
0.997413
0.99759
0.99777
0.997953
0.998133
0.998307
0.998477
0.998641
0.9988
0.99895
0.999091
0.999221
0.999336
0.999433
0.99951
0.999563
0.999588
0.999584
0.99955
0.999491
0.999408
0.999305
0.999186
0.999053
0.998909
0.998756
0.998596
0.99843
0.998259
0.998083
0.997902
0.997719
0.997539
0.997365
0.997198
0.997041
0.996898
0.99677
0.996661
0.996574
0.99651
0.996472
0.996461
0.99648
0.996527
0.996598
0.996693
0.996808
0.99694
0.997088
0.997248
0.997417
0.997593
0.997774
0.997956
0.998136
0.99831
0.998479
0.998644
0.998802
0.998952
0.999093
0.999222
0.999337
0.999434
0.999511
0.999564
0.999589
0.999862
0.999851
0.999831
0.999805
0.999773
0.999736
0.999695
0.999652
0.999608
0.999562
0.999515
0.999468
0.99942
0.999369
0.999319
0.99927
0.999223
0.999179
0.999137
0.9991
0.999067
0.999039
0.999017
0.999001
0.998991
0.998988
0.998993
0.999004
0.999022
0.999046
0.999075
0.999109
0.999148
0.99919
0.999235
0.999283
0.999332
0.999382
0.999432
0.99948
0.999528
0.999574
0.99962
0.999664
0.999706
0.999746
0.999782
0.999813
0.999837
0.999854
0.999863
0.999861
0.99985
0.999831
0.999805
0.999772
0.999735
0.999695
0.999652
0.999607
0.999561
0.999514
0.999467
0.999419
0.999368
0.999318
0.999269
0.999222
0.999178
0.999136
0.999099
0.999066
0.999039
0.999017
0.999
0.998991
0.998988
0.998993
0.999005
0.999023
0.999047
0.999076
0.99911
0.999149
0.999191
0.999236
0.999284
0.999333
0.999383
0.999433
0.999481
0.999528
0.999575
0.99962
0.999665
0.999707
0.999747
0.999782
0.999813
0.999838
0.999855
0.999863
)
;

boundaryField
{
    top
    {
        type            calculated;
        value           uniform 1;
    }
    bottom
    {
        type            calculated;
        value           uniform 0.148957;
    }
    frontAndBack
    {
        type            empty;
    }
    left_cyc
    {
        type            cyclic;
    }
    right_cyc
    {
        type            cyclic;
    }
}


// ************************************************************************* //
