/*--------------------------------*- C++ -*----------------------------------*\
| =========                 |                                                 |
| \\      /  F ield         | OpenFOAM: The Open Source CFD Toolbox           |
|  \\    /   O peration     | Version:  2.3.0                                 |
|   \\  /    A nd           | Web:      www.OpenFOAM.org                      |
|    \\/     M anipulation  |                                                 |
\*---------------------------------------------------------------------------*/
FoamFile
{
    version     2.0;
    format      ascii;
    class       volScalarField;
    location    "23000";
    object      p_rgh;
}
// * * * * * * * * * * * * * * * * * * * * * * * * * * * * * * * * * * * * * //

dimensions      [0 2 -2 0 0 0 0];

internalField   nonuniform List<scalar> 
765
(
-1753.45
-1762.42
-1770.97
-1779.91
-1790.35
-1803.48
-1819.97
-1838.77
-1857.93
-1873.61
-1879.11
-1868.75
-1851.25
-1831.79
-1813.57
-1798.21
-1786.13
-1776.33
-1767.63
-1758.99
-1749.72
-1739.53
-1728.29
-1715.83
-1701.92
-1686.18
-1668.02
-1646.46
-1619.93
-1586.13
-1541.43
-1481.67
-1411.39
-1331.06
-1237.26
-1174.6
-1191.52
-1274.28
-1364.93
-1439.69
-1507.43
-1560.72
-1600.5
-1631.05
-1655.37
-1675.43
-1692.55
-1707.52
-1720.83
-1732.8
-1743.63
-1722.58
-1732.35
-1741.61
-1751.01
-1761.49
-1774.11
-1789.39
-1807.95
-1829.06
-1849.91
-1859.33
-1842.88
-1821.42
-1801.01
-1783.65
-1769.04
-1757.25
-1747.25
-1737.98
-1728.58
-1718.51
-1707.14
-1694.54
-1680.71
-1665.51
-1648.7
-1629.84
-1608.22
-1582.66
-1551.88
-1514.69
-1472.7
-1428.37
-1394.85
-1395.09
-1392.32
-1393.78
-1392.92
-1404.58
-1446.55
-1489.74
-1530.22
-1564.74
-1593.24
-1617.06
-1637.48
-1655.47
-1671.61
-1686.26
-1699.61
-1711.75
-1679.19
-1689.91
-1700.22
-1710.51
-1721.4
-1733.87
-1749.47
-1771.64
-1801.25
-1835.3
-1852.23
-1823.27
-1789.81
-1762.63
-1742.85
-1728.82
-1717.06
-1706.44
-1696.17
-1685.71
-1674.74
-1663.14
-1650.28
-1636.21
-1621.04
-1604.78
-1587.48
-1569.06
-1549.34
-1528.32
-1498.33
-1463.42
-1423.85
-1370.51
-1347.8
-1338.82
-1341.47
-1354.02
-1389.79
-1441.53
-1476.54
-1512.06
-1536.95
-1557.29
-1576.45
-1594.39
-1611.29
-1627.11
-1641.86
-1655.5
-1667.86
-1650.65
-1661.63
-1672.4
-1682.9
-1693.22
-1704.14
-1718.97
-1743.1
-1780.56
-1828.44
-1852.95
-1811.25
-1765.44
-1732.8
-1712.44
-1699.81
-1689.3
-1678.93
-1668.31
-1657.44
-1646.37
-1635.13
-1623.75
-1612.14
-1600.31
-1588.32
-1575.74
-1561.74
-1544.99
-1523.74
-1485.99
-1431.72
-1377.93
-1336.98
-1304.26
-1285.02
-1290.31
-1316.25
-1352.56
-1395.14
-1455.02
-1504.15
-1532.97
-1552.04
-1567.49
-1580.77
-1593.01
-1604.93
-1616.68
-1628.17
-1639.49
-1649.44
-1659.17
-1668.88
-1677.98
-1686
-1693.7
-1705.5
-1728.67
-1771.57
-1831.03
-1861.44
-1809.68
-1753.66
-1718.29
-1700.27
-1690.68
-1683.18
-1674.76
-1665.37
-1655.59
-1645.96
-1636.8
-1628.23
-1620.19
-1612.37
-1604.15
-1594.34
-1581.12
-1562.01
-1534.66
-1491.51
-1427.07
-1345.02
-1287.57
-1246.94
-1223.77
-1230.02
-1261.47
-1308.8
-1373.65
-1455.51
-1511.81
-1546.64
-1570.39
-1586.78
-1598.36
-1607.34
-1615.27
-1623.1
-1631.31
-1640.09
-1669.34
-1677.27
-1684.94
-1691.3
-1695.57
-1699.14
-1705.96
-1726.86
-1773.51
-1840.97
-1874.69
-1817.06
-1753.62
-1716.81
-1702.47
-1697.8
-1694.35
-1689.32
-1682.38
-1674.52
-1666.72
-1659.62
-1653.47
-1648.12
-1643.01
-1637.01
-1628.27
-1614.18
-1591.36
-1556.52
-1504.71
-1430.86
-1333.83
-1257.66
-1199.79
-1167.9
-1176.32
-1219.86
-1286.76
-1371.08
-1461.83
-1527.74
-1571.62
-1601.36
-1620.28
-1631.89
-1639.27
-1644.73
-1649.81
-1655.41
-1661.92
-1699.81
-1705.78
-1710.71
-1713.42
-1713.46
-1712.79
-1716.88
-1737.72
-1785.45
-1853.68
-1888.11
-1829.91
-1765.42
-1727.61
-1714.13
-1713.32
-1713.83
-1712.9
-1709.31
-1703.91
-1697.87
-1692.15
-1687.26
-1683.2
-1679.33
-1674.23
-1665.52
-1649.78
-1622.89
-1580.76
-1518.81
-1434.75
-1330.45
-1233.21
-1152.86
-1109.75
-1120.98
-1180.93
-1271.24
-1371.54
-1469.19
-1545.43
-1598.84
-1634.55
-1656.56
-1669.1
-1676.06
-1680.45
-1684.27
-1688.62
-1693.86
-1732.76
-1736.32
-1738.12
-1737.84
-1736.49
-1734.91
-1739.61
-1759.63
-1803.26
-1865.49
-1898.87
-1844.1
-1785.39
-1750.33
-1736.78
-1735.23
-1737.07
-1738.32
-1737.91
-1735.45
-1731.5
-1726.92
-1722.4
-1718.2
-1713.88
-1707.99
-1697.77
-1679.18
-1647.54
-1598.29
-1526.04
-1432.18
-1326.97
-1209.27
-1104.37
-1047.91
-1062.55
-1142.05
-1257.01
-1367.56
-1470.8
-1557.1
-1619.41
-1661.1
-1687.07
-1701.9
-1710.06
-1715.11
-1719.3
-1723.64
-1728.27
-1762.39
-1764.58
-1765.46
-1765.19
-1763.97
-1763.95
-1769.61
-1787.43
-1823.75
-1875.64
-1906.15
-1858.24
-1809.4
-1779.7
-1766.86
-1763.79
-1764.64
-1765.61
-1765.53
-1764.24
-1761.65
-1757.94
-1753.41
-1748.15
-1741.69
-1732.66
-1718.36
-1694.84
-1657.57
-1601.91
-1521.06
-1418.92
-1314.61
-1177.41
-1048.94
-978.712
-997.13
-1096.41
-1235.12
-1354.33
-1461.56
-1555.8
-1625.53
-1673.15
-1704.52
-1723.99
-1735.91
-1743.76
-1749.7
-1754.72
-1759.01
-1785.32
-1788.88
-1791.22
-1792.49
-1793.38
-1795.42
-1801.51
-1816.1
-1843.82
-1883.48
-1909.46
-1870.87
-1833.54
-1810.41
-1799.2
-1794.9
-1793.5
-1792.6
-1791.02
-1788.26
-1784.28
-1779.11
-1772.73
-1764.8
-1754.58
-1740.47
-1719.83
-1689.07
-1644.48
-1581.93
-1494.08
-1387.44
-1283.55
-1127.61
-979.499
-897.921
-919.508
-1033.47
-1189.57
-1319.32
-1430.72
-1530.64
-1607.7
-1662.39
-1701.23
-1727.71
-1745.56
-1758.01
-1767.28
-1774.61
-1780.56
-1787.08
-1795.4
-1802.52
-1808.56
-1813.85
-1819.26
-1826.54
-1838.58
-1858.59
-1886.58
-1906.91
-1878.59
-1852.05
-1834.74
-1824.56
-1818.12
-1812.86
-1807.35
-1800.94
-1793.39
-1784.63
-1774.61
-1763.28
-1749.77
-1733.21
-1711.8
-1683.03
-1643.86
-1591.81
-1523.33
-1430.45
-1314.85
-1207.96
-1045.99
-889.993
-802.364
-825.932
-944.877
-1110.23
-1252.48
-1360.89
-1467.73
-1550.58
-1611.81
-1658.73
-1693.63
-1719.36
-1738.75
-1754.03
-1766.67
-1777.51
-1732.93
-1750.59
-1766.83
-1781.76
-1795.48
-1808.23
-1820.72
-1834.37
-1851.05
-1871.17
-1886.08
-1866.44
-1846.69
-1830.96
-1817.74
-1805.18
-1792.06
-1777.88
-1762.46
-1745.7
-1727.47
-1707.69
-1686.46
-1664.26
-1639.04
-1609.16
-1572.41
-1525.71
-1465.96
-1387.63
-1290.86
-1180.73
-1075.5
-921.537
-777.397
-691.692
-715.412
-828.567
-983.476
-1119.57
-1220.86
-1328.73
-1418.92
-1488.56
-1543
-1585.52
-1619.44
-1647.42
-1671.44
-1693.06
-1713.74
-1549.73
-1579.08
-1606.56
-1632.5
-1657.13
-1680.53
-1702.73
-1723.89
-1744.28
-1763.33
-1774.88
-1759.45
-1739.44
-1718.59
-1696.93
-1674.19
-1650.26
-1625.1
-1598.58
-1570.43
-1540.28
-1508
-1474.42
-1441.25
-1408.99
-1372.72
-1331
-1279.92
-1216.39
-1134.65
-1043.08
-965.722
-882.361
-764.463
-649.725
-576.276
-597.082
-691.262
-810.789
-917.183
-991.261
-1073.54
-1167.08
-1239.65
-1298.68
-1345.54
-1384.86
-1419.41
-1451.62
-1485.04
-1518.24
-1151.72
-1185.8
-1218.36
-1249.6
-1279.42
-1307.52
-1333.43
-1356.72
-1377.01
-1393.41
-1401.15
-1390.15
-1372.17
-1350.72
-1326.38
-1299.57
-1270.73
-1240.3
-1208.52
-1175.38
-1140.64
-1103.98
-1065.67
-1026.21
-985.512
-944.888
-901.051
-852.641
-803.47
-754.565
-706.661
-664.099
-607.798
-529.278
-450.068
-396.984
-412.3
-479.231
-560.295
-631.715
-678.149
-723.459
-772.363
-820.307
-869.972
-916.738
-958.923
-999.196
-1039.17
-1078.12
-1115.82
-427.506
-458.273
-489.748
-522.022
-555.183
-589.144
-623.411
-656.77
-686.789
-709.286
-717.158
-704.079
-678.446
-646.855
-612.868
-578.5
-544.68
-511.731
-479.658
-448.352
-417.744
-387.807
-358.104
-329.135
-304.045
-284.613
-272.453
-269.573
-279.624
-306.933
-353.115
-408.47
-457.851
-486.449
-495.955
-493.112
-494.844
-494.115
-477.381
-440.432
-385.779
-333.849
-294.286
-273.64
-269.059
-275.307
-290.398
-311.756
-338.332
-367.786
-397.425
)
;

boundaryField
{
    top
    {
        type            fixedValue;
        value           uniform 0;
    }
    bottom
    {
        type            fixedFluxPressure;
        gradient        uniform 0;
        value           nonuniform List<scalar> 
51
(
-1753.45
-1762.42
-1770.97
-1779.91
-1790.35
-1803.48
-1819.97
-1838.77
-1857.93
-1873.61
-1879.11
-1868.75
-1851.25
-1831.79
-1813.57
-1798.21
-1786.13
-1776.33
-1767.63
-1758.99
-1749.72
-1739.53
-1728.29
-1715.83
-1701.92
-1686.18
-1668.02
-1646.46
-1619.93
-1586.13
-1541.43
-1481.67
-1411.39
-1331.06
-1237.26
-1174.6
-1191.52
-1274.28
-1364.93
-1439.69
-1507.43
-1560.72
-1600.5
-1631.05
-1655.37
-1675.43
-1692.55
-1707.52
-1720.83
-1732.8
-1743.63
)
;
    }
    frontAndBack
    {
        type            empty;
    }
    left_cyc
    {
        type            cyclic;
    }
    right_cyc
    {
        type            cyclic;
    }
}


// ************************************************************************* //
