/*--------------------------------*- C++ -*----------------------------------*\
| =========                 |                                                 |
| \\      /  F ield         | OpenFOAM: The Open Source CFD Toolbox           |
|  \\    /   O peration     | Version:  2.3.0                                 |
|   \\  /    A nd           | Web:      www.OpenFOAM.org                      |
|    \\/     M anipulation  |                                                 |
\*---------------------------------------------------------------------------*/
FoamFile
{
    version     2.0;
    format      ascii;
    class       surfaceScalarField;
    location    "23000";
    object      phi;
}
// * * * * * * * * * * * * * * * * * * * * * * * * * * * * * * * * * * * * * //

dimensions      [0 3 -1 0 0 0 0];

internalField   nonuniform List<scalar> 
5988
(
0.00368459
-0.00322763
0.00685579
-0.0031712
0.00992295
-0.00306716
0.012841
-0.00291809
0.0155686
-0.00272754
0.0180689
-0.00250035
0.0203117
-0.00224278
0.0222735
-0.00196178
0.0239364
-0.0016629
0.0252836
-0.00134723
0.0262925
-0.00100892
0.0269274
-0.000634907
0.0271353
-0.00020785
0.0268483
0.000286998
0.025997
0.000851339
0.0245372
0.00145979
0.0224769
0.00206025
0.0198836
0.00259329
0.0169095
0.00297409
0.0137753
0.00313429
0.0106907
0.0030846
0.00781936
0.0028713
0.00523758
0.00258178
0.00292462
0.00231296
0.000789624
0.002135
-0.00129375
0.00208337
-0.00346054
0.00216679
-0.00583141
0.00237087
-0.00848362
0.00265221
-0.0114161
0.00293244
-0.0145292
0.00311314
-0.0176433
0.00311413
-0.0205424
0.00289907
-0.0230145
0.00247213
-0.02493
0.00191551
-0.0262372
0.00130713
-0.0269414
0.000704257
-0.027096
0.000154544
-0.0267721
-0.000323902
-0.0260348
-0.000737288
-0.0249329
-0.00110189
-0.0234985
-0.00143443
-0.0217522
-0.00174626
-0.0197109
-0.00204135
-0.0173937
-0.00231717
-0.0148262
-0.00256753
-0.0120406
-0.00278555
-0.00907528
-0.00296532
-0.00597291
-0.00310237
-0.00277944
-0.00319346
0.00045677
-0.00323621
0.00368592
-0.00322915
0.00685849
-0.00317257
0.00992674
-0.00306825
0.0128455
-0.00291878
0.0155732
-0.00272772
0.0180732
-0.00249992
0.0203148
-0.00224166
0.0222747
-0.00195989
0.0239348
-0.00166006
0.0252779
-0.00134311
0.0262809
-0.00100297
0.0269073
-0.000626417
0.0271033
-0.000196065
0.0268008
0.000302551
0.0259304
0.00087035
0.0244498
0.00148063
0.0223693
0.00208051
0.0197594
0.0026099
0.0167763
0.00298309
0.0136416
0.00313466
0.0105643
0.00307729
0.00770512
0.00285923
0.00513612
0.002569
0.00283309
0.00230303
0.000703039
0.00213005
-0.00138118
0.00208422
-0.00355449
0.0021733
-0.0059364
0.00238191
-0.00860161
0.00266522
-0.0115451
0.00294353
-0.0146636
0.00311849
-0.0177751
0.00311145
-0.0206627
0.00288758
-0.0231167
0.00245407
-0.0250115
0.0018948
-0.026298
0.00128651
-0.0269841
0.000686067
-0.0271241
0.000140015
-0.0267894
-0.00033475
-0.0260443
-0.000745045
-0.024937
-0.00110732
-0.0234988
-0.00143821
-0.0217499
-0.00174889
-0.0197068
-0.00204309
-0.0173887
-0.00231815
-0.0148208
-0.00256785
-0.0120355
-0.00278528
-0.009071
-0.00296455
-0.00596978
-0.00310122
-0.00277772
-0.00319206
-0.00323468
0.00551294
-0.00805819
0.0103035
-0.00796173
0.0150205
-0.00778422
0.0196337
-0.0075313
0.0241157
-0.00720946
0.0284394
-0.00682405
0.0325736
-0.00637699
0.0364767
-0.00586485
0.0400916
-0.00527788
0.0433444
-0.00459997
0.046144
-0.0038085
0.0483828
-0.00287374
0.049934
-0.00175905
0.0506469
-0.000425908
0.0503549
0.0011433
0.0489081
0.00290666
0.0462084
0.00475994
0.0422464
0.00655526
0.0371813
0.00803922
0.031356
0.00895952
0.0251636
0.00927706
0.0189739
0.00906094
0.0130318
0.00852391
0.00740645
0.00793831
0.00201858
0.00752286
-0.00329691
0.00739887
-0.00872804
0.00759791
-0.0144254
0.00806821
-0.0204376
0.00866443
-0.0266532
0.0091481
-0.0327902
0.00925005
-0.0384622
0.00878617
-0.0432815
0.00771834
-0.0469379
0.00612852
-0.0493213
0.00429899
-0.0504684
0.00245417
-0.0504921
0.000728013
-0.0495508
-0.000786796
-0.0478093
-0.00206538
-0.0454127
-0.00313393
-0.0424829
-0.00403162
-0.0391238
-0.00479357
-0.0354223
-0.00544773
-0.0314486
-0.00601507
-0.0272556
-0.00651017
-0.022882
-0.00694116
-0.0183575
-0.00731
-0.0137091
-0.00761372
-0.008965
-0.0078465
-0.00415652
-0.00800194
0.00068221
-0.00807494
0.00551597
-0.00806291
0.0103097
-0.00796628
0.0150299
-0.00778844
0.0196461
-0.00753501
0.0241308
-0.00721242
0.0284568
-0.00682593
0.0325925
-0.00637731
0.0364955
-0.00586293
0.0401083
-0.00527283
0.0433558
-0.00459065
0.0461464
-0.00379352
0.0483714
-0.00285145
0.0499029
-0.00172762
0.0505892
-0.000383722
0.0502633
0.00119631
0.0487763
0.0029676
0.0460329
0.00482389
0.0420285
0.00661429
0.0369308
0.00808082
0.0310874
0.00897801
0.0248923
0.00927242
0.0187123
0.0090393
0.0127853
0.008496
0.00717353
0.00791476
0.00179291
0.00751067
-0.00352386
0.00740098
-0.0089644
0.00761385
-0.0146764
0.00809394
-0.020703
0.00869177
-0.0269253
0.00916582
-0.0330552
0.00924845
-0.038705
0.00876121
-0.043488
0.00767057
-0.0471008
0.00606688
-0.0494412
0.00423517
-0.0505495
0.00239485
-0.0505412
0.000677713
-0.0495751
-0.00082603
-0.0478156
-0.00209422
-0.0454065
-0.00315414
-0.0424689
-0.004045
-0.0391054
-0.00480172
-0.0354023
-0.00545194
-0.031429
-0.00601641
-0.0272377
-0.00650947
-0.0228665
-0.00693905
-0.0183448
-0.00730691
-0.0136994
-0.00760993
-0.00895844
-0.00784223
-0.00415314
-0.00799736
-0.00807021
0.00617847
-0.0134718
0.0115412
-0.0133244
0.0168088
-0.0130519
0.0219376
-0.01266
0.0268831
-0.0121551
0.0316
-0.0115409
0.0360398
-0.0108168
0.0401509
-0.00997596
0.0438787
-0.00900561
0.047167
-0.00788827
0.0499614
-0.00660293
0.0522135
-0.00512585
0.0538858
-0.00343133
0.054952
-0.00149211
0.0553706
0.000724678
0.0550105
0.00326677
0.0536022
0.00616821
0.0508351
0.00932243
0.0465059
0.0123684
0.0406334
0.014832
0.0335747
0.0163358
0.0259042
0.0167314
0.0180979
0.0163302
0.010403
0.0156333
0.00285237
0.0150735
-0.00464803
0.0148993
-0.0122264
0.0151763
-0.0199554
0.0157972
-0.0277569
0.0164659
-0.0353257
0.0167169
-0.0421439
0.0160682
-0.0476557
0.014298
-0.0515918
0.0116545
-0.0539981
0.00853481
-0.0551151
0.00541597
-0.0552584
0.00259745
-0.0546669
0.000136502
-0.0534418
-0.00201187
-0.051616
-0.00389125
-0.0492175
-0.00553236
-0.0462873
-0.00696189
-0.0428758
-0.00820508
-0.0390384
-0.00928506
-0.0348314
-0.0102221
-0.0303091
-0.0110325
-0.0255223
-0.0117279
-0.020519
-0.0123133
-0.0153445
-0.0127883
-0.0100429
-0.0131481
-0.00465837
-0.0133864
0.000764593
-0.0134979
0.00618124
-0.0134796
0.0115469
-0.0133319
0.0168171
-0.0130587
0.0219479
-0.0126658
0.0268948
-0.0121594
0.031612
-0.0115431
0.0360508
-0.0108161
0.0401591
-0.00997129
0.0438821
-0.00899578
0.0471633
-0.0078719
0.0499483
-0.00657853
0.0521888
-0.00509188
0.0538474
-0.00338626
0.0548981
-0.00143444
0.0552977
0.000796715
0.0549099
0.00335538
0.0534608
0.00627302
0.050641
0.00943414
0.0462539
0.0124679
0.0403298
0.0149021
0.0332403
0.0163619
0.025561
0.0167186
0.0177596
0.0162973
0.0100735
0.0156009
0.00252846
0.0150557
-0.00497294
0.0149024
-0.0125584
0.0151993
-0.0202961
0.0158317
-0.0280997
0.0164953
-0.0356538
0.01672
-0.0424344
0.0160291
-0.0478912
0.014218
-0.0517699
0.0115493
-0.0541263
0.00842321
-0.0552062
0.00531504
-0.0553248
0.00251346
-0.0547155
6.84977e-05
-0.0534755
-0.00206606
-0.0516365
-0.00393327
-0.0492269
-0.00556372
-0.0462878
-0.00698411
-0.0428698
-0.00821971
-0.0390282
-0.00929353
-0.0348189
-0.0102257
-0.0302958
-0.0110325
-0.0255097
-0.0117252
-0.0205079
-0.0123087
-0.0153355
-0.0127823
-0.0100366
-0.0131411
-0.00465503
-0.0133789
-0.0134901
0.00646037
-0.0191321
0.0120555
-0.0189196
0.0175288
-0.0185252
0.0228241
-0.0179553
0.0278856
-0.0172165
0.0326583
-0.0163136
0.0370883
-0.0152469
0.041124
-0.0140116
0.0447165
-0.0125981
0.0478212
-0.010993
0.0503986
-0.00918036
0.0524153
-0.00714255
0.0538438
-0.00485978
0.0546592
-0.00230748
0.0548334
0.000550479
0.0543359
0.00376422
0.0531413
0.00736279
0.0511739
0.0112898
0.0481451
0.0153972
0.043585
0.0193921
0.0372836
0.0226372
0.0295427
0.0244723
0.0210145
0.0248584
0.012213
0.0244348
0.00336739
0.023919
-0.00547569
0.0237423
-0.0143176
0.0240183
-0.023081
0.0245606
-0.0314729
0.0248578
-0.038917
0.0241609
-0.0447997
0.0219509
-0.0489488
0.018447
-0.0516729
0.0143787
-0.0534315
0.0102934
-0.0544472
0.00643172
-0.0547714
0.00292165
-0.0544301
-0.000204825
-0.0534541
-0.00298787
-0.0518703
-0.00547505
-0.0497038
-0.00769886
-0.0469835
-0.00968214
-0.0437447
-0.0114439
-0.0400283
-0.0130014
-0.0358805
-0.0143699
-0.0313509
-0.0155621
-0.0264924
-0.0165864
-0.0213593
-0.0174464
-0.0160073
-0.0181403
-0.0104923
-0.0186631
-0.004871
-0.0190077
0.000799586
-0.0191685
0.00646207
-0.019142
0.0120591
-0.018929
0.0175339
-0.0185334
0.0228299
-0.0179618
0.0278911
-0.0172206
0.0326624
-0.0163143
0.0370895
-0.0152432
0.0411206
-0.0140024
0.0447067
-0.0125819
0.0478032
-0.0109684
0.0503705
-0.00914584
0.0523753
-0.00709665
0.0537901
-0.00480104
0.0545899
-0.0022343
0.0547466
0.000640093
0.0542296
0.00387236
0.0530133
0.00748928
0.0510171
0.0114304
0.0479411
0.0155439
0.0433168
0.0195264
0.0369521
0.0227266
0.0291705
0.0245002
0.0206271
0.0248408
0.0118238
0.0244041
0.00297953
0.0239
-0.00586387
0.0237458
-0.014707
0.0240424
-0.0234662
0.0245908
-0.0318366
0.0248658
-0.039232
0.0241154
-0.0450488
0.0218459
-0.0491369
0.0183061
-0.0518199
0.0142323
-0.0535526
0.0101559
-0.0545473
0.00630983
-0.0548525
0.00281857
-0.0544941
-0.000289863
-0.0535031
-0.0030571
-0.051906
-0.00553033
-0.049728
-0.00774173
-0.0469981
-0.00971405
-0.0437514
-0.0114664
-0.0400291
-0.0130158
-0.0358771
-0.0143777
-0.031345
-0.0155646
-0.0264853
-0.0165849
-0.0213523
-0.0174418
-0.0160011
-0.0181334
-0.0104877
-0.0186546
-0.00486838
-0.0189982
-0.0191585
0.00651525
-0.0248403
0.0121477
-0.0245521
0.0176389
-0.0240163
0.0229243
-0.0232407
0.0279417
-0.0222339
0.0326312
-0.021003
0.0369364
-0.0195521
0.0408058
-0.017881
0.0441929
-0.0159853
0.047057
-0.0138571
0.0493627
-0.011486
0.0510796
-0.00885939
0.0521816
-0.00596183
0.0526477
-0.0027736
0.0524664
0.000731811
0.0516462
0.00458436
0.0502144
0.00879461
0.0481789
0.0133254
0.045479
0.018097
0.0419158
0.0229553
0.0370172
0.0275358
0.0303421
0.0311474
0.0221195
0.033081
0.0130401
0.0335143
0.00361957
0.0333395
-0.00587345
0.0332354
-0.0152413
0.0333861
-0.0241706
0.0334898
-0.0320756
0.0327629
-0.0383102
0.0303955
-0.042826
0.0264668
-0.0461452
0.0217662
-0.048668
0.0169015
-0.050549
0.0121744
-0.051828
0.00771069
-0.0524875
0.00358115
-0.0525028
-0.00018949
-0.0518712
-0.00361947
-0.0506074
-0.00673885
-0.048734
-0.00957227
-0.0462781
-0.012138
-0.0432716
-0.0144505
-0.0397512
-0.0165218
-0.0357594
-0.0183617
-0.0313443
-0.0199772
-0.026559
-0.0213717
-0.0214612
-0.0225442
-0.0161116
-0.0234899
-0.0105737
-0.024201
-0.00491228
-0.0246691
0.000806403
-0.0248872
0.00651567
-0.0248513
0.0121489
-0.0245622
0.0176403
-0.0240248
0.0229252
-0.0232467
0.0279409
-0.0222364
0.0326275
-0.0210009
0.0369284
-0.0195441
0.0407919
-0.0178658
0.0441714
-0.0159615
0.0470262
-0.0138232
0.0493208
-0.0114404
0.0510248
-0.00880067
0.0521124
-0.00588857
0.0525624
-0.00268438
0.052364
0.000838507
0.0515267
0.00470972
0.0500777
0.00893824
0.0480233
0.0134848
0.0452991
0.0182681
0.0416977
0.0231279
0.0367357
0.0276885
0.029991
0.0312449
0.0217227
0.0331091
0.0126239
0.0335029
0.00319762
0.0333263
-0.00629457
0.033238
-0.0156539
0.0334017
-0.0245576
0.0334945
-0.0324082
0.0327164
-0.0385716
0.0302788
-0.0430309
0.0263052
-0.046317
0.0215921
-0.0488175
0.0167328
-0.0506804
0.0120187
-0.0519422
0.00757169
-0.0525844
0.00346076
-0.0525828
-0.000291456
-0.0519355
-0.00370441
-0.0506576
-0.00680826
-0.0487718
-0.00962756
-0.0463052
-0.0121806
-0.0432897
-0.0144819
-0.0397621
-0.0165434
-0.0357648
-0.018375
-0.0313457
-0.0199837
-0.0265579
-0.0213727
-0.0214586
-0.022541
-0.0161087
-0.0234834
-0.0105711
-0.0241921
-0.00491059
-0.0246588
-0.0248761
0.00639226
-0.0304407
0.0119095
-0.0300694
0.0172722
-0.029379
0.0224109
-0.0283794
0.0272592
-0.0270823
0.0317552
-0.025499
0.0358419
-0.0236388
0.0394685
-0.0215076
0.0425907
-0.0191075
0.0451709
-0.0164373
0.0471773
-0.0134924
0.0485833
-0.0102654
0.0493678
-0.00674637
0.0495163
-0.00292208
0.0490256
0.00122257
0.0479105
0.0056994
0.0462035
0.0105017
0.0439394
0.0155895
0.0411435
0.020893
0.0377916
0.0263072
0.0336847
0.0316427
0.028346
0.036486
0.0213189
0.0401082
0.0128424
0.0419907
0.00360051
0.0425814
-0.00582843
0.0426643
-0.0149447
0.0425024
-0.0231287
0.0416739
-0.0297386
0.0393727
-0.0347208
0.0353778
-0.0386089
0.0303549
-0.041813
0.0249703
-0.0444762
0.0195647
-0.0466022
0.0143003
-0.0481622
0.00927075
-0.0491206
0.00453949
-0.0494482
0.000138108
-0.049135
-0.00393263
-0.0481877
-0.00768614
-0.0466229
-0.0111371
-0.0444631
-0.0142978
-0.0417362
-0.0171774
-0.0384757
-0.0197823
-0.0347211
-0.0221163
-0.0305187
-0.0241797
-0.025921
-0.0259693
-0.0209868
-0.0274784
-0.0157797
-0.028697
-0.0103671
-0.0296136
-0.00481937
-0.0302168
0.000791158
-0.0304977
0.00639135
-0.0304515
0.0119082
-0.0300791
0.0172699
-0.0293865
0.0224068
-0.0283836
0.0272524
-0.0270819
0.0317443
-0.0254928
0.0358255
-0.0236254
0.0394452
-0.0214855
0.042559
-0.0190752
0.0451291
-0.0163933
0.0471237
-0.0134351
0.0485165
-0.0101935
0.0492863
-0.00665838
0.0494188
-0.00281689
0.0489114
0.00134595
0.0477797
0.00584138
0.0460565
0.0106614
0.0437767
0.0157647
0.0409646
0.0210801
0.037592
0.0265005
0.0334496
0.0318309
0.02805
0.0366445
0.0209553
0.0402038
0.0124353
0.0420229
0.00317653
0.0425851
-0.00624976
0.0426643
-0.0153425
0.0424944
-0.0234744
0.0416265
-0.0300149
0.0392569
-0.0349435
0.0352074
-0.0388014
0.0301631
-0.0419868
0.0247776
-0.0446341
0.0193801
-0.0467442
0.0141288
-0.048288
0.00911544
-0.0492295
0.00440234
-0.0495405
1.95284e-05
-0.0492116
-0.0040333
-0.0482499
-0.00776996
-0.0466721
-0.0112054
-0.044501
-0.0143517
-0.0417644
-0.0172185
-0.0384957
-0.0198121
-0.0347346
-0.0221362
-0.030527
-0.0241913
-0.0259256
-0.0259741
-0.0209888
-0.0274777
-0.0157801
-0.0286921
-0.0103667
-0.0296056
-0.00481866
-0.0302068
-0.0304868
0.00612399
-0.0358058
0.0114018
-0.0353472
0.0165175
-0.0344946
0.0213989
-0.0332609
0.0259784
-0.0316618
0.0301934
-0.029714
0.0339877
-0.0274331
0.0373125
-0.0248323
0.0401259
-0.021921
0.0423936
-0.018705
0.0440877
-0.0151865
0.0451865
-0.0113642
0.0456747
-0.00723452
0.0455446
-0.00279198
0.0447997
0.00196752
0.0434578
0.00704123
0.0415505
0.012409
0.0391148
0.0180251
0.0361891
0.0238187
0.0328034
0.0296929
0.028935
0.0355111
0.0243782
0.0410429
0.0186706
0.0458158
0.0115094
0.0491519
0.00327001
0.0508209
-0.00527772
0.051212
-0.0133217
0.0505464
-0.0201404
0.0484926
-0.0255214
0.0447537
-0.0298752
0.0397316
-0.0336148
0.0340944
-0.0368861
0.0282416
-0.0396916
0.0223702
-0.041997
0.0166057
-0.0437639
0.0110377
-0.0449559
0.0057315
-0.0455444
0.000726553
-0.0455151
-0.00396192
-0.0448677
-0.00833349
-0.0436121
-0.0123927
-0.0417653
-0.0161446
-0.0393508
-0.0195919
-0.036398
-0.0227351
-0.0329436
-0.0255707
-0.0290312
-0.028092
-0.0247121
-0.0302884
-0.0200445
-0.0321461
-0.0150925
-0.033649
-0.0099256
-0.0347805
-0.00461689
-0.0355255
0.000757902
-0.0358725
0.00612182
-0.0358154
0.0113981
-0.0353554
0.0165117
-0.0345001
0.0213904
-0.0332622
0.025966
-0.0316576
0.030176
-0.0297028
0.0339642
-0.0274135
0.0372813
-0.0248026
0.0400857
-0.0218797
0.0423429
-0.0186505
0.0440251
-0.0151173
0.0451107
-0.011279
0.0455844
-0.00713209
0.0454389
-0.00267142
0.0446781
0.00210675
0.0433205
0.00719898
0.0413979
0.012584
0.0389476
0.018215
0.0360078
0.0240199
0.0326078
0.0299005
0.0287206
0.0357181
0.0241293
0.0412357
0.0183653
0.0459679
0.0111486
0.0492395
0.00288094
0.0508528
-0.0056621
0.0512073
-0.0136686
0.0505009
-0.0204282
0.048386
-0.025758
0.0445867
-0.0300831
0.0395325
-0.0338059
0.0338859
-0.0370632
0.0280349
-0.0398545
0.0221714
-0.042145
0.0164193
-0.0438964
0.0108669
-0.0450725
0.00557843
-0.0456451
0.00059211
-0.0456006
-0.00407783
-0.044939
-0.00843153
-0.0436704
-0.0124739
-0.0418121
-0.0162101
-0.0393873
-0.0196432
-0.0364258
-0.0227736
-0.0329641
-0.025598
-0.0290457
-0.0281096
-0.024722
-0.0302979
-0.0200507
-0.032149
-0.0150961
-0.0336467
-0.00992728
-0.0347744
-0.00461714
-0.0355169
-0.0358627
0.00573805
-0.0408327
0.010676
-0.0402852
0.0154491
-0.0392677
0.0199849
-0.0377966
0.0242157
-0.0358926
0.0280804
-0.0335787
0.0315249
-0.0308776
0.0345028
-0.0278102
0.0369758
-0.024394
0.0389135
-0.0206427
0.0402925
-0.0165655
0.0410966
-0.0121683
0.0413165
-0.0074544
0.0409509
-0.00242642
0.0400085
0.00290987
0.0385097
0.00854009
0.0364851
0.0144335
0.0339723
0.020538
0.0310122
0.0267788
0.027646
0.033059
0.0239028
0.0392544
0.0197519
0.0451937
0.0149917
0.050576
0.00928952
0.054854
0.00266205
0.0574483
-0.00428384
0.0581579
-0.0107245
0.056987
-0.0161777
0.0539458
-0.0207587
0.0493347
-0.0247989
0.0437718
-0.0284487
0.0377442
-0.031716
0.0315089
-0.034567
0.0252212
-0.0369597
0.0189984
-0.0388537
0.0129317
-0.040213
0.00709076
-0.0410089
0.00152245
-0.041224
-0.00374676
-0.0408525
-0.00870507
-0.0398975
-0.0133477
-0.0383705
-0.0176716
-0.0362894
-0.021673
-0.0336796
-0.0253449
-0.0305736
-0.0286767
-0.0270121
-0.0316535
-0.0230437
-0.0342568
-0.0187247
-0.0364651
-0.0141185
-0.0382553
-0.00929422
-0.0396048
-0.00432573
-0.040494
0.000710068
-0.0409083
0.00573479
-0.0408401
0.0106703
-0.0402909
0.0154404
-0.0392702
0.0199725
-0.0377943
0.0241987
-0.0358839
0.0280578
-0.0335619
0.0314955
-0.0308512
0.0344653
-0.0277725
0.0369291
-0.0243434
0.0388562
-0.0205776
0.0402235
-0.0164846
0.0410148
-0.0120703
0.041221
-0.00733824
0.040841
-0.00229145
0.039884
0.0030638
0.0383706
0.00871237
0.036332
0.0146226
0.0338058
0.0207411
0.0308332
0.0269925
0.0274553
0.0332784
0.0236999
0.0394735
0.019532
0.0454036
0.0147407
0.0507592
0.00899629
0.054984
0.00234048
0.0575086
-0.00460027
0.058148
-0.0110058
0.0569065
-0.0164179
0.0537982
-0.0209725
0.0491413
-0.0249979
0.0435578
-0.0286359
0.0375239
-0.0318913
0.0312902
-0.0347295
0.0250097
-0.0371086
0.0187984
-0.0389884
0.0127467
-0.040333
0.00692301
-0.0411142
0.00137328
-0.041315
-0.003877
-0.0409298
-0.00881669
-0.0399623
-0.0134414
-0.0384238
-0.0177486
-0.0363324
-0.0217346
-0.0337136
-0.0253924
-0.0305998
-0.0287117
-0.0270318
-0.0316777
-0.023058
-0.0342717
-0.0187346
-0.0364723
-0.0141249
-0.0382565
-0.00929773
-0.0396015
-0.00432685
-0.0404878
-0.0409007
0.00525709
-0.0454382
0.00977436
-0.0448025
0.0141283
-0.0436217
0.0182479
-0.0419162
0.0220674
-0.0397122
0.0255282
-0.0370394
0.0285792
-0.0339286
0.0311779
-0.0304089
0.03329
-0.0265062
0.0348898
-0.0222424
0.035959
-0.0176347
0.0364872
-0.0126965
0.0364711
-0.00743832
0.0359155
-0.00187086
0.0348341
0.00399132
0.03325
0.0101242
0.031195
0.0164885
0.0287076
0.0230253
0.0258313
0.0296551
0.0226137
0.0362766
0.0191036
0.0427645
0.015339
0.0489582
0.0113011
0.0546139
0.00686069
0.0592945
0.00195248
0.0623565
-0.00313723
0.0632476
-0.00794377
0.0617935
-0.0122717
0.0582738
-0.0162343
0.0532973
-0.0199368
0.0474743
-0.0233775
0.041185
-0.0265133
0.0346447
-0.0292953
0.0280032
-0.0316766
0.0213797
-0.0336149
0.01487
-0.0350732
0.00854901
-0.0360214
0.00247071
-0.0364389
-0.00332933
-0.0363142
-0.00882979
-0.0356446
-0.0140172
-0.0344353
-0.0188809
-0.0326989
-0.0234094
-0.0304555
-0.0275883
-0.0277334
-0.0313988
-0.024569
-0.0348179
-0.0210074
-0.0378184
-0.0171019
-0.0403705
-0.0129135
-0.0424436
-0.00850969
-0.0440087
-0.00396299
-0.0450407
0.00065047
-0.0455217
0.00525294
-0.0454426
0.00976696
-0.0448049
0.0141172
-0.0436205
0.0182324
-0.0419095
0.0220468
-0.0396983
0.0255015
-0.0370166
0.0285454
-0.0338951
0.031136
-0.030363
0.0332389
-0.0264464
0.0348284
-0.0221671
0.0358865
-0.0175427
0.0364027
-0.0125865
0.036374
-0.00730951
0.0358054
-0.00172285
0.0347108
0.00415836
0.0331138
0.0103094
0.0310466
0.0166898
0.0285477
0.02324
0.0256611
0.0298791
0.0224343
0.0365052
0.0189161
0.0429917
0.0151437
0.049176
0.0110939
0.054809
0.0066344
0.0594435
0.00171059
0.0624324
-0.00337609
0.0632347
-0.00816415
0.0616945
-0.0124746
0.0581086
-0.016427
0.0530937
-0.0201218
0.0472526
-0.0235543
0.0409564
-0.0266805
0.0344165
-0.0294518
0.0277809
-0.0318214
0.021168
-0.0337472
0.0146725
-0.0351924
0.00836824
-0.0361275
0.00230833
-0.0365318
-0.00347261
-0.0363946
-0.00895398
-0.0357131
-0.0141229
-0.0344929
-0.0189689
-0.0327464
-0.023481
-0.0304941
-0.0276448
-0.027764
-0.0314418
-0.0245927
-0.0348489
-0.0210252
-0.0378392
-0.0171148
-0.0403828
-0.0129222
-0.0424491
-0.00851473
-0.044009
-0.00396485
-0.0450377
-0.0455172
0.00469956
-0.0495552
0.00873115
-0.048834
0.0126049
-0.0474955
0.0162527
-0.0455639
0.0196121
-0.0430716
0.0226283
-0.0400556
0.0252544
-0.0365547
0.0274523
-0.0326067
0.0291926
-0.0282465
0.0304547
-0.0235044
0.0312259
-0.0184059
0.0315015
-0.0129721
0.0312844
-0.00722124
0.0305853
-0.0011717
0.0294227
0.00515391
0.0278236
0.0117233
0.0258226
0.0184895
0.023461
0.025387
0.0207862
0.0323299
0.0178526
0.0392103
0.0147224
0.0458947
0.0114655
0.0522151
0.0081452
0.0579342
0.00477721
0.0626625
0.00133471
0.065799
-0.00214336
0.0667257
-0.00556693
0.0652171
-0.00892017
0.061627
-0.0122276
0.0566047
-0.0154583
0.050705
-0.0185445
0.0442711
-0.0214175
0.0375177
-0.0240172
0.0306029
-0.0262909
0.0236534
-0.0281927
0.0167718
-0.0296828
0.0100391
-0.0307285
0.00351635
-0.0313047
-0.00275315
-0.0313947
-0.0087397
-0.0309901
-0.0144218
-0.0300899
-0.0197811
-0.0287008
-0.0247985
-0.0268376
-0.0294515
-0.0245235
-0.033713
-0.02179
-0.0375513
-0.018678
-0.0409304
-0.0152366
-0.0438119
-0.0115232
-0.0461571
-0.00760197
-0.0479299
-0.0035426
-0.0491001
0.000581396
-0.0496457
0.00469475
-0.049556
0.00872251
-0.0488327
0.012592
-0.04749
0.016235
-0.0455524
0.019589
-0.0430523
0.0225989
-0.0400265
0.0252179
-0.0365141
0.0274078
-0.0325529
0.0291393
-0.0281779
0.0303917
-0.0234195
0.0311526
-0.0183036
0.0314174
-0.0128512
0.0311891
-0.00708121
0.0304785
-0.00101233
0.0293048
0.00533215
0.027695
0.0119192
0.025684
0.0187008
0.0233134
0.0256106
0.020631
0.0325616
0.0176914
0.0394448
0.0145573
0.0461258
0.0112988
0.0524345
0.00797816
0.0581296
0.00460841
0.0628133
0.00116326
0.0658775
-0.00231422
0.0667122
-0.00573492
0.0651152
-0.00908699
0.0614607
-0.0123939
0.0564006
-0.0156224
0.050481
-0.018704
0.044038
-0.0215705
0.037283
-0.0241622
0.0303726
-0.0264266
0.0234324
-0.0283181
0.016564
-0.0297973
0.00984741
-0.0308316
0.00334263
-0.0313963
-0.00290786
-0.0314752
-0.00887512
-0.0310598
-0.0145383
-0.0301493
-0.0198794
-0.0287508
-0.0248796
-0.0268789
-0.0295166
-0.0245569
-0.0337638
-0.0218165
-0.0375893
-0.0186984
-0.0409573
-0.0152517
-0.0438295
-0.0115336
-0.0461671
-0.00760819
-0.0479344
-0.00354503
-0.0491009
-0.0496448
0.00408029
-0.0531296
0.00757408
-0.0523278
0.010919
-0.0508404
0.0140514
-0.0486963
0.0169135
-0.0459338
0.0194553
-0.0425974
0.0216348
-0.0387343
0.0234193
-0.0343912
0.0247846
-0.0296119
0.0257156
-0.0244354
0.0262053
-0.0188957
0.0262549
-0.0130217
0.0258731
-0.00683942
0.0250761
-0.000374695
0.0238877
0.00634234
0.022339
0.0132719
0.0204684
0.0203601
0.0183207
0.0275347
0.0159478
0.0347028
0.01341
0.0417481
0.010778
0.0485267
0.00813512
0.0548579
0.00557135
0.060498
0.00315075
0.0650831
0.000862124
0.0680877
-0.00138272
0.0689706
-0.00369679
0.0675311
-0.00615336
0.0640836
-0.00874249
0.0591939
-0.0113891
0.0533516
-0.014003
0.0468851
-0.016504
0.0400187
-0.018824
0.032923
-0.020905
0.0257344
-0.0226968
0.0185636
-0.024156
0.0114984
-0.0252461
0.00460648
-0.0259377
-0.00206159
-0.0262088
-0.00846859
-0.0260451
-0.0145855
-0.0254399
-0.0203864
-0.024394
-0.0258444
-0.0229166
-0.0309288
-0.0210254
-0.0356043
-0.0187467
-0.03983
-0.0161161
-0.043561
-0.0131778
-0.0467502
-0.0099843
-0.0493506
-0.00659516
-0.051319
-0.00307575
-0.0526195
0.000504688
-0.0532262
0.00407508
-0.0531264
0.00756465
-0.0523222
0.0109051
-0.0508304
0.0140324
-0.0486798
0.016889
-0.0459088
0.0194245
-0.042562
0.0215971
-0.0386867
0.023374
-0.0343298
0.0247312
-0.029535
0.0256534
-0.0243418
0.026134
-0.0187841
0.0261741
-0.0128914
0.0257827
-0.00668983
0.0249763
-0.00020593
0.0237789
0.00652957
0.022222
0.0134761
0.020344
0.0205787
0.0181903
0.0277643
0.015813
0.0349389
0.0132728
0.041985
0.010641
0.0487576
0.00800142
0.055074
0.00544392
0.0606871
0.00303042
0.0652268
0.000746083
0.0681619
-0.0014995
0.0689578
-0.00381895
0.0674347
-0.00628273
0.0639245
-0.00887738
0.0589953
-0.0115263
0.05313
-0.0141397
0.0466513
-0.0166376
0.039781
-0.0189527
0.0326877
-0.0210273
0.0255069
-0.0228114
0.0183481
-0.024262
0.0112981
-0.025343
0.00442356
-0.026025
-0.00222583
-0.0262865
-0.00861363
-0.0261133
-0.0147115
-0.0254989
-0.0204938
-0.0244443
-0.0259341
-0.0229589
-0.0310021
-0.0210602
-0.0356625
-0.0187747
-0.0398748
-0.016138
-0.043594
-0.0131942
-0.0467732
-0.00999579
-0.0493656
-0.00660218
-0.051328
-0.0030786
-0.0526244
-0.0532292
0.00341115
-0.0561178
0.00632525
-0.0552419
0.00910279
-0.053618
0.0116858
-0.0512793
0.0140225
-0.0482705
0.0160685
-0.0446434
0.0177879
-0.0404536
0.0191533
-0.0357567
0.0201466
-0.0306051
0.0207581
-0.0250469
0.0209865
-0.019124
0.0208383
-0.0128736
0.0203279
-0.00632903
0.0194767
0.000476534
0.0183132
0.00750589
0.0168726
0.0147125
0.0151967
0.022036
0.0133336
0.0293978
0.0113383
0.0366981
0.00927377
0.0438126
0.00721259
0.0505879
0.00523738
0.0568331
0.00343418
0.0623012
0.00186248
0.0666548
0.000497959
0.0694522
-0.000796012
0.0702645
-0.00220141
0.0689365
-0.00383003
0.0657122
-0.00568076
0.0610446
-0.00768309
0.0553539
-0.0097502
0.0489522
-0.0118017
0.0420702
-0.0137674
0.0348887
-0.0155864
0.0275534
-0.0172054
0.0201826
-0.0185778
0.0128708
-0.0196635
0.00569214
-0.0204287
-0.0012964
-0.0208466
-0.00805067
-0.0208976
-0.0145345
-0.0205694
-0.0207146
-0.0198575
-0.0265563
-0.0187652
-0.0320211
-0.0173045
-0.0370649
-0.0154963
-0.0416382
-0.0133701
-0.0456872
-0.0109645
-0.0491558
-0.00832606
-0.0519891
-0.00550851
-0.0541366
-0.00257139
-0.0555566
0.000421812
-0.0562194
0.00340578
-0.0561103
0.00631549
-0.055232
0.00908839
-0.0536033
0.0116664
-0.0512578
0.0139976
-0.04824
0.0160377
-0.0446021
0.0177506
-0.0403996
0.0191091
-0.0356883
0.0200951
-0.030521
0.0206989
-0.0249456
0.0209194
-0.0190046
0.0207634
-0.0127354
0.0202454
-0.00617177
0.0193869
0.000652548
0.0182167
0.0076997
0.0167705
0.0149223
0.0150902
0.022259
0.0132242
0.0296303
0.0112278
0.0369353
0.00916438
0.0440484
0.00710703
0.050815
0.00513873
0.0570423
0.00334533
0.0624805
0.00178411
0.066788
0.000426196
0.0695198
-0.000868956
0.0702529
-0.00228256
0.0688483
-0.00392184
0.0655638
-0.00578165
0.0608551
-0.00778999
0.0551383
-0.00986009
0.0487214
-0.011912
0.0418329
-0.0138761
0.0346518
-0.0156916
0.0273225
-0.0173058
0.0199622
-0.0186723
0.0126645
-0.0197511
0.00550238
-0.0205088
-0.0014681
-0.0209189
-0.00820352
-0.020962
-0.0146684
-0.0206259
-0.0208299
-0.0199063
-0.0266537
-0.0188067
-0.0321017
-0.0173391
-0.03713
-0.0155245
-0.0416894
-0.0133925
-0.0457261
-0.0109815
-0.0491842
-0.0083381
-0.052009
-0.00551595
-0.0541502
-0.00257448
-0.0555659
-0.0562267
0.0027016
-0.0584844
0.00500231
-0.0575426
0.00718183
-0.0557975
0.00918926
-0.0532867
0.0109797
-0.0500609
0.0125155
-0.0461792
0.0137672
-0.0417053
0.0147137
-0.0367031
0.0153424
-0.0312339
0.0156493
-0.0253538
0.0156384
-0.0191132
0.0153215
-0.0125566
0.0147175
-0.00572501
0.0138523
0.00134169
0.0127585
0.00859971
0.0114745
0.0159965
0.0100447
0.0234658
0.00851865
0.0309238
0.00695196
0.0382648
0.00540629
0.0453583
0.00394949
0.0520447
0.00265368
0.058129
0.00158616
0.0633687
0.000782334
0.0674586
0.000198165
0.0700363
-0.00031321
0.0707759
-0.000940112
0.0695634
-0.00180666
0.0665787
-0.00293341
0.0621714
-0.00427337
0.0566939
-0.00575645
0.0504352
-0.00731111
0.0436249
-0.00887089
0.0364485
-0.0103756
0.0290581
-0.0117712
0.0215781
-0.0130091
0.0141087
-0.0140466
0.00672959
-0.0148464
-0.000496589
-0.0153777
-0.00751939
-0.0156162
-0.014296
-0.0155447
-0.020786
-0.0151535
-0.0269475
-0.0144408
-0.0327339
-0.0134127
-0.038093
-0.0120842
-0.0429668
-0.0104786
-0.0472927
-0.00862793
-0.0510065
-0.00657191
-0.0540451
-0.00435735
-0.0563512
-0.00203664
-0.0578773
0.00033394
-0.05859
0.00269631
-0.0584727
0.00499267
-0.0575283
0.00716765
-0.0557783
0.00917026
-0.0532604
0.0109556
-0.0500253
0.0124859
-0.0461325
0.0137318
-0.0416455
0.0146721
-0.0366287
0.0152946
-0.0311434
0.0155951
-0.0252461
0.0155779
-0.0189874
0.0152548
-0.0124123
0.0146452
-0.00556211
0.013775
0.00152269
0.0126771
0.00879759
0.0113903
0.0162092
0.00995886
0.0236904
0.00843294
0.0311563
0.00686829
0.0384999
0.00532687
0.0455898
0.00387683
0.052265
0.00259035
0.0583288
0.00153419
0.0635367
0.000741525
0.0675806
0.000164119
0.0700972
-0.000348459
0.0707655
-0.000983835
0.0694837
-0.00186195
0.0664419
-0.00299962
0.0619928
-0.00434818
0.0564869
-0.00583727
0.0502105
-0.00739552
0.0433912
-0.00895675
0.036213
-0.0104611
0.0288268
-0.0118546
0.0213558
-0.0130893
0.0138992
-0.0141223
0.00653542
-0.0149169
-0.000673533
-0.0154423
-0.0076781
-0.0156746
-0.0144361
-0.0155967
-0.0209077
-0.0151991
-0.0270514
-0.01448
-0.0328208
-0.0134458
-0.0381642
-0.0121115
-0.0430237
-0.0105005
-0.0473371
-0.00864471
-0.05104
-0.00658392
-0.0540698
-0.00436484
-0.0563692
-0.00203982
-0.0578909
-0.0586015
0.00195933
-0.0602008
0.00361958
-0.0592029
0.0051769
-0.0573548
0.00658865
-0.0546985
0.00781787
-0.0512901
0.00883442
-0.0471958
0.00961572
-0.0424866
0.0101471
-0.0372345
0.010422
-0.0315087
0.0104415
-0.0253733
0.0102145
-0.0188862
0.00975712
-0.0120993
0.00909234
-0.00506023
0.00824952
0.00218451
0.00726393
0.0095853
0.00617605
0.0170844
0.00503099
0.0246109
0.0038781
0.0320767
0.00277064
0.0393723
0.00176515
0.0463638
0.000920044
0.0528898
0.000291564
0.0587574
-7.64421e-05
0.0637367
-0.000175345
0.0675575
-6.55923e-05
0.0699266
0.000110987
0.0705993
0.000180895
0.0694935
1.99392e-05
0.0667397
-0.000412849
0.0626041
-0.00109739
0.0573784
-0.00198532
0.0513232
-0.00301921
0.0446588
-0.00414087
0.0375701
-0.00529441
0.0302116
-0.00642746
0.0227112
-0.00749163
0.0151729
-0.00844285
0.00768081
-0.00924183
0.000302397
-0.00985468
-0.00690654
-0.0102536
-0.0138971
-0.0104172
-0.0206224
-0.0103313
-0.0270334
-0.0099891
-0.0330761