/*--------------------------------*- C++ -*----------------------------------*\
| =========                 |                                                 |
| \\      /  F ield         | OpenFOAM: The Open Source CFD Toolbox           |
|  \\    /   O peration     | Version:  2.3.0                                 |
|   \\  /    A nd           | Web:      www.OpenFOAM.org                      |
|    \\/     M anipulation  |                                                 |
\*---------------------------------------------------------------------------*/
FoamFile
{
    version     2.0;
    format      ascii;
    class       surfaceScalarField;
    location    "23000";
    object      phi;
}
// * * * * * * * * * * * * * * * * * * * * * * * * * * * * * * * * * * * * * //

dimensions      [0 3 -1 0 0 0 0];

internalField   nonuniform List<scalar> 
1464
(
0.0242216
-0.0215502
0.0447191
-0.0204975
0.0632275
-0.0185083
0.0788082
-0.0155808
0.090473
-0.0116647
0.0970421
-0.00656912
0.0970081
3.40187e-05
0.0889596
0.00804847
0.0733267
0.0156329
0.0523568
0.0209699
0.0302765
0.0220803
0.0108181
0.0194585
-0.00676321
0.0175813
-0.0255745
0.0188112
-0.0472111
0.0216366
-0.0689898
0.0217787
-0.0860502
0.0170604
-0.0960114
0.00996118
-0.0978176
0.00180627
-0.0926558
-0.00516185
-0.0820848
-0.010571
-0.0673531
-0.0147317
-0.0494742
-0.0178789
-0.0293856
-0.0200886
-0.00801919
-0.0213665
0.0136935
-0.0217127
0.0348159
-0.0211224
0.0544165
-0.0196006
0.0715647
-0.0171482
0.085316
-0.0137513
0.0946172
-0.00930123
0.0981392
-0.00352201
0.0943078
0.00383144
0.0823146
0.0119932
0.0638064
0.0185082
0.0414957
0.0223106
0.0204979
0.0209978
0.00230712
0.0181908
-0.0154487
0.0177558
-0.0356678
0.020219
-0.0580432
0.0223754
-0.0778923
0.0198491
-0.0918221
0.0139298
-0.0977821
0.00595997
-0.0960144
-0.00176765
-0.0880525
-0.00796194
-0.0753186
-0.0127339
-0.058926
-0.0163926
-0.0398397
-0.0190863
-0.0189952
-0.0208445
-0.0216666
0.0268703
-0.0454585
0.0494312
-0.0430584
0.0695585
-0.0386356
0.0863206
-0.0323428
0.0989703
-0.0243145
0.107013
-0.0146121
0.110311
-0.00326336
0.108734
0.00962482
0.100174
0.024193
0.0814285
0.0397156
0.0531435
0.0503653
0.0203731
0.0522288
-0.012858
0.0508124
-0.0458926
0.0518458
-0.0757881
0.0515322
-0.0969726
0.0429632
-0.10771
0.0277973
-0.110584
0.0128355
-0.108392
-0.000385935
-0.101468
-0.0120855
-0.0898813
-0.0221578
-0.0740459
-0.0305671
-0.0546539
-0.0372709
-0.0325925
-0.04215
-0.00890901
-0.0450499
0.0152243
-0.0458459
0.0385936
-0.0444918
0.0600541
-0.0410611
0.0785985
-0.0356925
0.0933866
-0.0285395
0.103789
-0.0197033
0.10948
-0.00921374
0.11044
0.00287156
0.105941
0.0164923
0.0926348
0.0318146
0.0688667
0.0460788
0.037581
0.0522835
0.00442186
0.05135
-0.0287817
0.0509594
-0.0610184
0.0524558
-0.0872297
0.0485867
-0.103287
0.0359068
-0.109713
0.0203552
-0.110011
0.00625868
-0.105537
-0.00624231
-0.0963206
-0.0171781
-0.0825933
-0.0264612
-0.0649205
-0.0340654
-0.044098
-0.0399088
-0.0210975
-0.043845
-0.0457262
0.0254655
-0.0681192
0.0467203
-0.0643132
0.0654612
-0.0573765
0.0807856
-0.0476673
0.0920245
-0.0355534
0.0987483
-0.0213359
0.100718
-0.00523303
0.0977265
0.0126163
0.0896369
0.0322826
0.0761889
0.0531636
0.0542228
0.0723314
0.0222681
0.0841835
-0.0141835
0.087264
-0.0478231
0.0854854
-0.0722831
0.0759922
-0.0871995
0.0578796
-0.0964774
0.0370753
-0.100659
0.0170175
-0.0998328
-0.00121254
-0.0942153
-0.0177029
-0.0840198
-0.0323533
-0.0696209
-0.0449661
-0.0516274
-0.0552643
-0.0308844
-0.062893
-0.00845106
-0.0674833
0.0144538
-0.0687508
0.0365594
-0.0665974
0.0566806
-0.0611823
0.0738114
-0.0528233
0.0871674
-0.0418954
0.0962021
-0.0287381
0.100594
-0.0136061
0.100146
0.00332048
0.0946439
0.0219939
0.0840284
0.0424302
0.0671697
0.0629374
0.0400102
0.0794431
0.00491614
0.086444
-0.0311359
0.0870115
-0.060895
0.0822148
-0.0802011
0.0678928
-0.0922175
0.0479232
-0.099038
0.0271757
-0.100772
0.00799244
-0.0976022
-0.00941185
-0.0897284
-0.0250519
-0.0774264
-0.0387632
-0.0611835
-0.0503083
-0.0417275
-0.0593649
-0.0200145
-0.065558
-0.0685455
0.0223985
-0.088054
0.0409679
-0.0828827
0.0571007
-0.0735093
0.0699389
-0.0605055
0.0788603
-0.0444748
0.0834645
-0.0259401
0.0835356
-0.00530411
0.0790379
0.0171141
0.0703312
0.0409893
0.0579411
0.0655537
0.0411638
0.0891087
0.0174851
0.107862
-0.0112672
0.116016
-0.0366242
0.110842
-0.0546753
0.0940433
-0.0679456
0.07115
-0.0775354
0.046665
-0.0830699
0.022552
-0.0840759
-0.000206565
-0.0805283
-0.0212506
-0.072603
-0.0402785
-0.0606511
-0.0569181
-0.0452368
-0.0706786
-0.0271592
-0.0809705
-0.00743957
-0.0872029
0.0127381
-0.0889284
0.0321394
-0.0859987
0.0496141
-0.0786571
0.0641959
-0.0674051
0.0751478
-0.0528473
0.081964
-0.0355543
0.0843426
-0.0159847
0.08215
0.00551312
0.0755022
0.0286417
0.0649649
0.0529675
0.0506359
0.0772664
0.0309249
0.0991541
0.00394734
0.113422
-0.0242459
0.115205
-0.045951
0.10392
-0.0614752
0.083417
-0.0729516
0.0593996
-0.0806701
0.0348942
-0.0840402
0.0113625
-0.0828292
-0.0106229
-0.0771253
-0.0307558
-0.0671863
-0.0487021
-0.0534644
-0.0640302
-0.0366392
-0.07619
-0.017625
-0.0845722
-0.0886342
0.0181369
-0.104199
0.0330397
-0.0977855
0.0457348
-0.0862043
0.0554704
-0.0702411
0.0617332
-0.0507376
0.0642345
-0.0284414
0.0628836
-0.00395318
0.0577901
0.0222076
0.0493681
0.0494113
0.0383066
0.0766152
0.0252745
0.102141
0.0101796
0.122957
-0.00653148
0.132727
-0.0221392
0.12645
-0.0355913
0.107495
-0.0471605
0.0827191
-0.0562585
0.0557631
-0.0621791
0.0284726
-0.064426
0.0020403
-0.0628318
-0.0228448
-0.0574419
-0.0456684
-0.0484942
-0.0658658
-0.0364441
-0.0827286
-0.0219843
-0.0954304
-0.00603066
-0.103157
0.0103401
-0.105299
0.0260037
-0.101662
0.0399164
-0.0925699
0.0512171
-0.0787057
0.0592756
-0.0609058
0.0636962
-0.0399749
0.0642926
-0.0165811
0.0610688
0.00873691
0.0542658
0.0354447
0.0444627
0.0627705
0.0323706
0.0893585
0.0184125
0.113112
0.0022795
0.129555
-0.0142526
0.131737
-0.0287794
0.118447
-0.0413622
0.0959998
-0.05183
0.0698674
-0.0594795
0.0425436
-0.0636639
0.015547
-0.0640581
-0.0102287
-0.0606066
-0.0342073
-0.0534472
-0.0558615
-0.0429214
-0.0745561
-0.0296008
-0.0895106
-0.0142937
-0.0998793
-0.104919
0.0131011
-0.115865
0.0237243
-0.108409
0.0325095
-0.0949896
0.0388659
-0.0765975
0.0424332
-0.0543049
0.0430758
-0.029084
0.0408657
-0.00174314
0.0360802
0.0269931
0.0292317
0.0562598
0.0210642
0.0847827
0.0125292
0.110676
0.00455969
0.130927
-0.00290399
0.140191
-0.010705
0.134251
-0.0191844
0.115975
-0.027534
0.0910688
-0.0347631
0.0629922
-0.0400869
0.0337964
-0.0429352
0.00488864
-0.0429794
-0.0228006
-0.0400999
-0.0485479
-0.0343811
-0.0715846
-0.0261266
-0.0909831
-0.015871
-0.105686
-0.00436336
-0.114664
0.00749522
-0.117158
0.0187589
-0.112926
0.0285576
-0.102369
0.0361945
-0.0863426
0.0411954
-0.0659067
0.0433157
-0.0420952
0.0425252
-0.0157907
0.0389956
0.0122665
0.0331131
0.0413272
0.0255099
0.0703738
0.0170192
0.0978492
0.00865573
0.121476
0.00100829
0.137202
-0.00651798
0.139263
-0.0146925
0.126621
-0.0232411
0.104548
-0.0311609
0.0777873
-0.0375585
0.0489411
-0.0417414
0.0197299
-0.0432608
-0.0087093
-0.0418919
-0.0355762
-0.0376128
-0.0601405
-0.0306129
-0.0815559
-0.0213095
-0.098814
-0.010348
-0.110841
-0.116703
0.00755424
-0.122595
0.0135166
-0.114371
0.0181465
-0.0996195
0.021059
-0.07951
0.022073
-0.0553189
0.0212111
-0.0282221
0.0186908
0.000777115
0.0149161
0.0307678
0.0104579
0.060718
0.00603442
0.0892062
0.00248807
0.114222
0.000534045
0.132881
-0.000326586
0.141052
-0.00192062
0.135845
-0.00515304
0.119207
-0.00946013
0.0953759
-0.0139835
0.0675156
-0.0179792
0.037792
-0.0208394
0.00774885
-0.0221201
-0.0215198
-0.0215595
-0.0491086
-0.0190876
-0.0740564
-0.0148358
-0.0952349
-0.00913996
-0.111382
-0.00252448
-0.12128
0.00435095
-0.124033
0.0107861
-0.119361
0.0161489
-0.107731
0.0199609
-0.0901546
0.0219392
-0.067885
0.0220059
-0.0421619
0.0202817
-0.0140665
0.0170769
0.0154713
0.0128767
0.0455274
0.00832738
0.0749231
0.00420368
0.101973
0.00136164
0.124318
0.000109771
0.138454
-0.000878558
0.140251
-0.00326788
0.129011
-0.00712513
0.108406
-0.0116362
0.0822984
-0.0159901
0.0532951
-0.0195022
0.0232419
-0.0216435
-0.00656799
-0.022055
-0.0351647
-0.0205666
-0.0616289
-0.0172053
-0.0849172
-0.012203
-0.103816
-0.0059928
-0.117051
-0.12352
0.00168092
-0.124097
0.00276095
-0.115451
0.0031377
-0.0999963
0.00266557
-0.0790378
0.00135028
-0.0540036
-0.000646864
-0.0262249
-0.00301074
0.00314099
-0.00528814
0.0330452
-0.00693508
0.0623649
-0.00736654
0.0896377
-0.0060358
0.112891
-0.00271375
0.129559
0.00174071
0.136597
0.00544902
0.132137
0.00723416
0.117422
0.00715733
0.0954527
0.00573365
0.0689393
0.00354607
0.0399796
0.00115347
0.0101414
-0.000966263
-0.0194001
-0.00246368
-0.0476111
-0.00314087
-0.0733793
-0.00295511
-0.0954206
-0.00201632
-0.112321
-0.0005751
-0.122721
0.00101181
-0.12562
0.00235277
-0.120702
0.00311343
-0.108492
0.0030778
-0.090119
0.00217515
-0.0669824
0.000488491
-0.0404753
-0.00174412
-0.0118339
-0.0041364
0.0178636
-0.00618737
0.0475784
-0.0073257
0.0760614
-0.00697438
0.101622
-0.00467389
0.122017
-0.000608177
0.134388
0.00372214
0.135921
0.00656095
0.126172
0.00739973
0.107567
0.00660402
0.0830941
0.00474023
0.0551588
0.0023892
0.0255929
7.48271e-05
-0.00425362
-0.0017802
-0.0333097
-0.0028981
-0.060511
-0.00315634
-0.084659
-0.00258741
-0.104385
-0.00137268
-0.118266
-0.125071
-0.00436733
-0.120215
-0.00826479
-0.111554
-0.0121335
-0.0961276
-0.0158593
-0.075312
-0.0192548
-0.0506081
-0.0220526
-0.0234271
-0.0238997
0.00498806
-0.0243749
0.0335204
-0.0230425
0.0610325
-0.0195256
0.0861208
-0.0136256
0.106991
-0.00556935
0.121502
0.0035554
0.127472
0.0119876
0.123705
0.0184225
0.110987
0.0224756
0.0913996
0.0242791
0.0671358
0.0241809
0.0400777
0.0226115
0.0117109
0.0200001
-0.0167887
0.016718
-0.0443291
0.0130523
-0.0697135
0.00920781
-0.0915762
0.00531523
-0.108428
0.00143463
-0.11884
-0.0024355
-0.12175
-0.00632163
-0.116816
-0.0102112
-0.104602
-0.0140261
-0.0863041
-0.017617
-0.0633914
-0.020759
-0.0373333
-0.0231427
-0.00945017
-0.0243775
0.0190984
-0.0240294
0.0472303
-0.0216799
0.073712
-0.0170202
0.0969619
-0.0100094
0.115006
-0.00123771
0.125616
0.00777647
0.126907
0.0153503
0.118598
0.0206462
0.102271
0.0235831
0.0801572
0.02442
0.054322
0.0235573
0.0264556
0.0214318
-0.00212808
0.0184522
-0.03033
0.0149505
-0.0570093
0.0111731
-0.0808816
0.00728841
-0.100501
0.0033928
-0.11437
-0.121193
-0.0104245
-0.110941
-0.019263
-0.102715
-0.0272716
-0.088119
-0.0340703
-0.0685133
-0.0393032
-0.0453752
-0.0426304
-0.0200999
-0.0437155
0.00607316
-0.0422338
0.0320388
-0.0379164
0.056715
-0.0306327
0.0788372
-0.0205191
0.0968778
-0.00816349
0.109147
0.00520189
0.114107
0.0179213
0.110985
0.0286212
0.100287
0.0365794
0.0834413
0.041576
0.0621392
0.0436933
0.0379605
0.0431776
0.0122266
0.0403458
-0.0139569
0.0355332
-0.0395165
0.0290767
-0.0632571
0.0213258
-0.0838252
0.0126531
-0.0997554
0.00344951
-0.109637
-0.00589503
-0.112405
-0.0149986
-0.107712
-0.0234692
-0.0961318
-0.0309193
-0.0788539
-0.036983
-0.0573278
-0.041316
-0.0330003
-0.0435829
-0.00718333
-0.0434499
0.0189655
-0.0406128
0.0443932
-0.0348566
0.0679557
-0.0261605
0.0882658
-0.0148499
0.103696
-0.00180819
0.112575
0.0114574
0.113641
0.0233388
0.106716
0.0327739
0.0928359
0.0393112
0.0736199
0.0428968
0.0507363
0.0437066
0.0256458
0.042029
-0.000450512
0.0381947
-0.0264957
0.0325398
-0.0513544
0.0254062
-0.073748
0.0171552
-0.0922496
0.00817167
-0.105387
-0.111871
-0.0162735
-0.0964591
-0.0298505
-0.0891379
-0.0417771
-0.0761925
-0.0514161
-0.0588743
-0.0582602
-0.0385311
-0.0619237
-0.0164364
-0.062123
0.00627246
-0.058669
0.0285848
-0.051491
0.049537
-0.0407143
0.0680604
-0.0267729
0.0829364
-0.0105254
0.0928993
0.00669813
0.0968835
0.023303
0.0943804
0.0378681
0.0857222
0.0494267
0.0718826
0.0574579
0.0541081
0.0617766
0.0336418
0.0624174
0.0115858
0.0595466
-0.0110861
0.0534252
-0.0333951
0.0444115
-0.0542434
0.0329801
-0.0723938
0.0197349
-0.0865102
0.00539691
-0.0952987
-0.00924068
-0.0977678
-0.0233687
-0.0935844
-0.0362071
-0.0832933
-0.0470629
-0.0679982
-0.0553661
-0.0490245
-0.0606751
-0.0276913
-0.0626592
-0.00519925
-0.0610816
0.017388
-0.0558044
0.0391159
-0.0468389
0.0589902
-0.0344435
0.0758704
-0.0192428
0.0884951
-0.00232545
0.0956574
0.0148046
0.0965113
0.030582
0.0909391
0.0437912
0.0796266
0.0536914
0.0637197
0.0599387
0.044489
0.0624676
0.0231169
0.0613842
0.000632914
0.0569002
-0.0220117
0.0493223
-0.0437765
0.039064
-0.0634897
0.0266645
-0.07985
0.0127907
-0.0915129
-0.0972891
-0.0216284
-0.0772101
-0.0395232
-0.0712431
-0.0549902
-0.0607255
-0.06716
-0.0467045
-0.0753952
-0.0302959
-0.0792808
-0.0125508
-0.0785991
0.00559082
-0.0733066
0.0232923
-0.0635337
0.0397641
-0.0496459
0.0541726
-0.0323263
0.0656168
-0.0126325
0.0732054
0.00802984
0.0762212
0.0280818
0.0743284
0.046057
0.067747
0.0608126
0.0571271
0.0715836
0.0433371
0.0779395
0.0272859
0.0797033
0.00982202
0.0768817
-0.00826447
0.0696487
-0.0261621
0.0583682
-0.042963
0.0436202
-0.0576457
0.0262157
-0.0691058
0.00718104
-0.076264
-0.0123066
-0.0782802
-0.0310254
-0.0748656
-0.0478288
-0.06649
-0.0617429
-0.054084
-0.0720176
-0.0387499
-0.0781321
-0.0215768
-0.079775
-0.00355632
-0.0768191
0.014432
-0.0693
0.0315969
-0.0574513
0.0471415
-0.0417808
0.0601998
-0.0231469
0.0698613
-0.00278449
0.0752949
0.0177867
0.0759401
0.0370072
0.0717186
0.053551
0.0630829
0.0664582
0.0508125
0.0751342
0.0358129
0.0792816
0.0189696
0.0788182
0.00109625
0.0738265
-0.01702
0.0645697
-0.0345197
0.0515154
-0.0504354
0.0353581
-0.0636927
0.0170218
-0.0731765
-0.0778879
-0.02614
-0.0539451
-0.0476614
-0.0497217
-0.0660896
-0.0422974
-0.0803655
-0.0324285
-0.0897491
-0.0209123
-0.0938051
-0.00849482
-0.0923737
0.0041594
-0.0855364
0.016455
-0.0735986
0.0278263
-0.0571272
0.0377012
-0.0369984
0.045488
-0.0144139
0.0506209
0.00915316
0.0526542
0.0321029
0.0513786
0.0529179
0.0469321
0.0703274
0.0397176
0.0833812
0.0302833
0.0914464
0.0192207
0.0941623
0.00710603
0.0913976
-0.00549971
0.0832508
-0.0180154
0.070087
-0.0297992
0.0525683
-0.040127
0.0316739
-0.0482113
0.00868497
-0.0532751
-0.0148908
-0.0547045
-0.0374719
-0.0522845
-0.0575984
-0.0463634
-0.074064
-0.0376184
-0.0859735
-0.0268404
-0.0927454
-0.0148049
-0.0940878
-0.00221392
-0.0899671
0.0103113
-0.0805707
0.0222005
-0.0663231
0.0328938
-0.0479337
0.0418104
-0.0264353
0.048363
-0.00317056
0.0520302
0.0203047
0.0524649
0.0424057
0.0496176
0.0617194
0.0437692
0.0771259
0.035406
0.0878317
0.0251071
0.0933419
0.0134594
0.0934103
0.00102785
0.0880091
-0.0116188
0.0773626
-0.0238732
0.0619784
-0.0350512
0.042675
-0.0443893
0.0205872
-0.0510887
-0.0544257
-0.0294348
-0.0277478
-0.0535984
-0.025558
-0.0741798
-0.021716
-0.0899891
-0.0166193
-0.100218
-0.0106835
-0.104418
-0.0042945
-0.102465
0.00220665
-0.0945226
0.00851216
-0.08102
0.0143237
-0.0626683
0.0193494
-0.0404767
0.0232965
-0.0157461
0.0258903
0.00999177
0.0269162
0.0350976
0.0262728
0.0580027
0.024027
0.077347
0.0203732
0.0920537
0.0155766
0.101346
0.00992826
0.104732
0.00371996
0.101987
-0.00275452
0.0931634
-0.00919174
0.0786271
-0.0152629
0.0590942
-0.0205942
0.0356587
-0.0247758
0.00978386
-0.0274002
-0.0167786
-0.028142
-0.0421767
-0.0268864
-0.0647212
-0.023819
-0.0830416
-0.0192979
-0.0961448
-0.0137372
-0.10341
-0.00753951
-0.104558
-0.00106635
-0.0996111
0.00536462
-0.0888628
0.0114523
-0.0728752
0.0169062
-0.0524994
0.0214346
-0.0288868
0.0247503
-0.00345807
0.0266015
0.022186
0.0268208
0.0464197
0.0253839
0.0677622
0.0224267
0.0849845
0.0181837
0.0971551
0.0129366
0.103637
0.00697784
0.104066
0.000598021
0.0983487
-0.00590107
0.0866839
-0.0122085
0.0696052
-0.0179725
0.0480135
-0.0227975
0.0231911
-0.0262663
-0.0279972
-0.031177
-0.0567351
-0.0784511
-0.0950704
-0.105754
-0.110048
-0.107842
-0.0993295
-0.0850058
-0.0656564
-0.0423599
-0.0164696
0.0104466
0.0367194
0.0607465
0.0811197
0.0966962
0.106624
0.110344
0.10759
0.0983982
0.0831353
0.0625412
0.0377654
0.0103651
-0.0177769
-0.0446633
-0.0684823
-0.0877802
-0.101517
-0.109057
-0.110123
-0.104759
-0.0933064
-0.0764002
-0.0549655
-0.0302152
-0.00361374
0.023207
0.0485909
0.0710176
0.0892013
0.102138
0.109116
0.109714
0.103813
0.0916043
0.0736317
0.0508342
0.0245679
)
;

boundaryField
{
    top
    {
        type            calculated;
        value           nonuniform List<scalar> 
51
(
0
0
0
0
0
0
0
0
-1.73472e-18
0
0
0
0
0
0
0
1.73472e-18
0
0
0
0
-8.67362e-19
0
0
0
0
4.33681e-19
0
0
8.67362e-19
0
0
0
0
0
0
0
0
0
0
0
0
-1.73472e-18
0
0
0
0
0
0
-4.33681e-19
0
)
;
    }
    bottom
    {
        type            calculated;
        value           uniform 0;
    }
    frontAndBack
    {
        type            empty;
        value           nonuniform 0();
    }
    left_cyc
    {
        type            cyclic;
        value           nonuniform List<scalar> 
15
(
-0.00267144
-0.00296202
-0.00280477
-0.00246371
-0.00199162
-0.00143544
-0.000824323
-0.000178569
0.000485465
0.00115001
0.00179167
0.0023794
0.00287502
0.00323743
0.00342928
)
;
    }
    right_cyc
    {
        type            cyclic;
        value           nonuniform List<scalar> 
15
(
0.00267144
0.00296202
0.00280477
0.00246371
0.00199162
0.00143544
0.000824323
0.000178569
-0.000485465
-0.00115001
-0.00179167
-0.0023794
-0.00287502
-0.00323743
-0.00342928
)
;
    }
}


// ************************************************************************* //
