/*--------------------------------*- C++ -*----------------------------------*\
| =========                 |                                                 |
| \\      /  F ield         | OpenFOAM: The Open Source CFD Toolbox           |
|  \\    /   O peration     | Version:  2.3.0                                 |
|   \\  /    A nd           | Web:      www.OpenFOAM.org                      |
|    \\/     M anipulation  |                                                 |
\*---------------------------------------------------------------------------*/
FoamFile
{
    version     2.0;
    format      ascii;
    class       volScalarField;
    location    "23000";
    object      T;
}
// * * * * * * * * * * * * * * * * * * * * * * * * * * * * * * * * * * * * * //

dimensions      [0 0 0 1 0 0 0];

internalField   nonuniform List<scalar> 
765
(
31.4902
31.6142
31.8315
32.1304
32.5013
32.9347
33.4098
33.8455
34.2699
34.6785
35.0443
35.3208
35.4457
35.3648
35.1174
34.7678
34.3664
33.9448
33.5113
33.0413
32.5961
32.2098
31.8932
31.6554
31.5077
31.4641
31.5366
31.709
31.9682
32.3035
32.7059
33.1616
33.6211
34.0526
34.4714
34.8637
35.1929
35.4043
35.4329
35.2633
34.9589
34.5785
34.1639
33.7351
33.2873
32.8211
32.4026
32.049
31.7694
31.574
31.4753
23.1577
23.4522
23.9658
24.6704
25.5449
26.5723
27.7301
28.9701
30.2033
31.3779
32.4138
33.1977
33.5619
33.3242
32.6196
31.6319
30.4824
29.2627
28.0302
26.8318
25.7685
24.8563
24.1099
23.5484
23.1978
23.0938
23.2665
23.675
24.2866
25.0772
26.0287
27.125
28.342
29.5775
30.7854
31.9044
32.8332
33.4391
33.5236
33.0334
32.1733
31.0927
29.8993
28.6622
27.4316
26.3031
25.3123
24.4786
23.8192
23.3569
23.1219
17.2521
17.649
18.3376
19.2755
20.4335
21.7946
23.3482
25.0769
26.9007
28.7002
30.2981
31.4978
32.0534
31.69
30.6129
29.0897
27.3197
25.4899
23.7316
22.1339
20.7268
19.5205
18.5287
17.7772
17.3052
17.1651
17.3979
17.9473
18.7644
19.8134
21.0721
22.529
24.1745
25.9578
27.7858
29.5115
30.9407
31.8655
31.995
31.2471
29.9276
28.2605
26.4418
24.6345
22.9446
21.4375
20.1261
19.021
18.1417
17.5208
17.204
13.5327
14.0011
14.8073
15.889
17.2029
18.7305
20.4759
22.4551
24.6056
26.7736
28.7325
30.2045
30.8728
30.4372
29.1192
27.2457
25.1027
22.9313
20.9017
19.1069
17.5316
16.1682
15.0292
14.1523
13.5957
13.4307
13.7056
14.3522
15.3022
16.5018
17.9202
19.551
21.4048
23.4824
25.6644
27.7627
29.523
30.6493
30.8039
29.899
28.2756
26.2399
24.0588
21.9404
20.0209
18.3311
16.8565
15.5977
14.5795
13.8505
13.4762
11.3366
11.8791
12.8042
14.0192
15.455
17.0812
18.9095
20.9846
23.2519
25.5567
27.6562
29.2322
29.9319
29.4785
28.0705
26.0596
23.7761
21.4815
19.3491
17.4757
15.8084
14.3289
13.0578
12.0558
11.4116
11.2212
11.5394
12.2865
13.3664
14.696
16.2246
17.9437
19.8828
22.0648
24.374
26.6145
28.5041
29.7018
29.8617
28.9068
27.1657
24.9877
22.6742
20.4453
18.4356
16.6605
15.0813
13.6961
12.5451
11.7054
11.2718
10.0277
10.6626
11.7369
13.1176
14.6974
16.4213
18.2952
20.3749
22.6161
24.8853
26.9485
28.4859
29.1535
28.7233
27.354
25.3794
23.1322
20.8686
18.7444
16.8329
15.08
13.4661
12.0315
10.8724
10.1187
9.89732
10.2689
11.1418
12.3847
13.8732
15.5246
17.3155
19.2808
21.4466
23.722
25.9259
27.7786
28.9377
29.0885
28.1709
26.4679
24.3262
22.0477
19.8406
17.8163
15.9828
14.2931
12.7553
11.4387
10.4599
9.95279
9.16257
9.90787
11.1631
12.7485
14.5109
16.3606
18.2824
20.3182
22.4468
24.5688
26.4786
27.8842
28.4825
28.0989
26.8513
25.0281
22.9323
20.7935
18.7351
16.7939
14.9317
13.1463
11.5084
10.1581
9.27293
9.01464
9.44975
10.4743
11.9164
13.6038
15.4126
17.2923
19.2616
21.344
23.4855
25.5357
27.2415
28.2925
28.4262
27.5991
26.0365
24.0492
21.9122
19.8042
17.8007
15.8989
14.0672
12.3374
10.8171
9.67046
9.07551
8.47851
9.34423
10.7951
12.6046
14.5737
16.5755
18.5631
20.534
22.5062
24.4182
26.108
27.337
27.8575
27.5241
26.4354
24.8275
22.9488
20.9825
19.0129
17.0356
15.039
13.0574
11.1958
9.63838
8.61037
8.31114
8.81624
10.0052
11.6636
13.5717
15.563
17.5559
19.5263
21.4956
23.4498
25.2788
26.7781
27.6938
27.8099
27.09
25.7204
23.9552
22.0184
20.0467
18.0769
16.0839
14.0844
12.1396
10.3974
9.069
8.37791
7.83191
8.81777
10.4519
12.4669
14.6272
16.7682
18.8035
20.7106
22.5293
24.2308
25.7006
26.7571
27.2047
26.9178
25.9834
24.5904
22.9294
21.1334
19.2501
17.2513
15.1347
12.9706
10.9036
9.15405
7.98645
7.64283
8.22164
9.56853
11.4265
13.5377
15.6999
17.7896
19.7516
21.6104
23.3783
24.9852
26.2797
27.0651
27.165
26.5469
25.3673
23.825
22.0882
20.2503
18.319
16.2531
14.0962
11.9526
10.0063
8.50581
7.71621
7.12359
8.19866
9.95801
12.11
14.4018
16.6463
18.724
20.5906
22.2918
23.8203
25.1025
26.01
26.3944
26.148
25.3471
24.1383
22.6584
20.9957
19.1717
17.1497
14.9405
12.649
10.4447
8.56517
7.29646
6.91689
7.55386
9.01256
11.0044
13.2525
15.5365
17.7051
19.6673
21.4461
23.065
24.4851
25.6033
26.2759
26.3618
25.8318
24.8161
23.4625
21.8882
20.1505
18.2423
16.1131
13.8418
11.563
9.48053
7.86044
6.99542
6.28578
7.38851
9.17478
11.3519
13.6724
15.9463
18.0356
19.8773
21.5025
22.9096
24.0532
24.8469
25.1822
24.9673
24.2692
23.1979
21.8472
20.2727
18.4852
16.4588
14.2215
11.8999
9.66965
7.76392
6.46663
6.0727
6.73143
8.21891
10.2364
12.5116
14.8269
17.0207
18.9775
20.7064
22.2245
23.5097
24.495
25.0803
25.1552
24.6935
23.8022
22.5866
21.124
19.4492
17.5556
15.4074
13.1054
10.7989
8.69134
7.04328
6.15238
5.27458
6.31685
7.99219
10.0335
12.2232
14.3923
16.409
18.1985
19.7591
21.079
22.1248
22.8373
23.1371
22.9452
22.3208
21.3467
20.0879
18.5836
16.8495
14.8881
12.747
10.5508
8.45731
6.67113
5.44807
5.07204
5.69893
7.0982
8.98857
11.1274
13.3237
15.43
17.3287
19.0019
20.4439
21.6337
22.5248
23.0472
23.1141
22.7017
21.8987
20.7802
19.3992
17.7832
15.9406
13.8742
11.6855
9.51395
7.5393
5.99177
5.14691
4.06062
4.93469
6.33026
8.03138
9.87157
11.7267
13.5009
15.1247
16.554
17.7573
18.7001
19.3355
19.6023
19.4318
18.8763
18.0012
16.8564
15.4791
13.9002
12.1592
10.3173
8.46517
6.71828
5.23117
4.20776
3.88978
4.4185
5.58704
7.16045
8.94826
10.8078
12.6315
14.3337
15.8623
17.1818
18.2607
19.0589
19.5231
19.5824
19.2157
18.4979
17.4864
16.2244
14.7443
13.0784
11.2768
9.41582
7.59691
5.95314
4.66287
3.95243
2.62616
3.21895
4.15754
5.29773
6.53729
7.8105
9.08037
10.3071
11.4147
12.3584
13.1003
13.6003
13.8106
13.6763
13.2395
12.5509
11.6521
10.5809
9.37952
8.11434
6.84074
5.58936
4.4181
3.4193
2.72683
2.50953
2.86999
3.65875
4.71409
5.91335
7.17406
8.44587
9.70452
10.8769
11.9069
12.755
13.3832
13.7482
13.7949
13.5061
12.9412
12.1453
11.1572
10.0147
8.76553
7.49528
6.22746
5.00578
3.90421
3.03513
2.55208
0.960632
1.17638
1.51194
1.91195
2.34161
2.78738
3.26223
3.76876
4.24493
4.66071
4.99278
5.21854
5.31383
5.25303
5.05559
4.74659
4.34884
3.88531
3.38382
2.89655
2.44689
2.01338
1.60408
1.24866
0.99761
0.917756
1.04987
1.33449
1.70802
2.12527
2.56181
3.01523
3.51649
4.01182
4.46066
4.83767
5.12026
5.2854
5.30654
5.17573
4.92105
4.56589
4.13265
3.64496
3.13493
2.67393
2.23367
1.80991
1.42192
1.10981
0.933362
)
;

boundaryField
{
    top
    {
        type            fixedValue;
        value           uniform 0;
    }
    bottom
    {
        type            fixedValue;
        value           uniform 36.5;
    }
    frontAndBack
    {
        type            empty;
    }
    left_cyc
    {
        type            cyclic;
    }
    right_cyc
    {
        type            cyclic;
    }
}


// ************************************************************************* //
