/*--------------------------------*- C++ -*----------------------------------*\
| =========                 |                                                 |
| \\      /  F ield         | OpenFOAM: The Open Source CFD Toolbox           |
|  \\    /   O peration     | Version:  2.3.0                                 |
|   \\  /    A nd           | Web:      www.OpenFOAM.org                      |
|    \\/     M anipulation  |                                                 |
\*---------------------------------------------------------------------------*/
FoamFile
{
    version     2.0;
    format      ascii;
    class       volScalarField;
    location    "23000";
    object      T;
}
// * * * * * * * * * * * * * * * * * * * * * * * * * * * * * * * * * * * * * //

dimensions      [0 0 0 1 0 0 0];

internalField   nonuniform List<scalar> 
3060
(
34.1831
34.1944
34.2151
34.2448
34.2829
34.329
34.3828
34.4439
34.5122
34.5877
34.6704
34.7604
34.8574
34.9592
35.0636
35.1707
35.2802
35.3913
35.5021
35.6099
35.7115
35.8032
35.881
35.9404
35.9772
35.9877
35.9706
35.9281
35.8638
35.7823
35.6878
35.5843
35.4755
35.3644
35.2535
35.1444
35.038
34.934
34.8329
34.7374
34.6491
34.5682
34.4945
34.428
34.3688
34.317
34.2729
34.2371
34.2098
34.1917
34.1831
34.1845
34.1959
34.2166
34.2464
34.2846
34.3308
34.3848
34.4461
34.5146
34.5903
34.6733
34.7637
34.861
34.963
35.0676
35.1748
35.2846
35.3958
35.5065
35.6142
35.7155
35.8068
35.8839
35.9424
35.9782
35.9876
35.9693
35.9258
35.8607
35.7786
35.6836
35.5799
35.471
35.36
35.2492
35.1403
35.034
34.9303
34.8294
34.7343
34.6463
34.5656
34.4922
34.4259
34.3669
34.3152
34.2713
34.2355
34.2084
34.1902
34.1817
29.6847
29.7163
29.7741
29.8569
29.9634
30.0926
30.2437
30.4161
30.6097
30.8246
31.0611
31.3198
31.6005
31.9025
32.2161
32.5373
32.8661
33.1994
33.5313
33.854
34.1583
34.4334
34.6674
34.847
34.9588
34.9911
34.9388
34.8096
34.6157
34.3705
34.0872
33.7775
33.4517
33.1186
32.7859
32.4587
32.1393
31.8266
31.5293
31.2537
31.0004
30.7691
30.5596
30.3713
30.2044
30.059
29.9358
29.8356
29.7595
29.7089
29.6849
29.6889
29.7205
29.7785
29.8615
29.9683
30.0979
30.2494
30.4224
30.6166
30.8322
31.0697
31.3292
31.6109
31.9139
32.2281
32.5499
32.8791
33.2127
33.5446
33.8669
34.1703
34.4441
34.6761
34.8532
34.9618
34.9906
34.9349
34.8027
34.6063
34.3594
34.0749
33.7644
33.4383
33.1053
32.7729
32.4462
32.1275
31.8154
31.5191
31.2445
30.9921
30.7617
30.5528
30.3652
30.1988
30.0538
29.9309
29.831
29.7552
29.7046
29.6807
25.4963
25.5457
25.6362
25.7658
25.9327
26.1355
26.373
26.6444
26.9496
27.2886
27.6618
28.0698
28.5124
28.9888
29.4958
30.0196
30.5585
31.1059
31.6513
32.1815
32.6816
33.1347
33.5213
33.8195
34.0063
34.0608
33.9729
33.7573
33.4357
33.0311
32.5649
32.0559
31.5205
30.9732
30.4269
29.8911
29.3715
28.8695
28.4004
27.9659
27.5663
27.2014
26.8709
26.5743
26.3115
26.0831
25.8898
25.7328
25.6137
25.5344
25.4968
25.5031
25.5527
25.6434
25.7733
25.9408
26.1441
26.3823
26.6546
26.9608
27.301
27.6756
28.0849
28.5291
29.0069
29.5152
30.0402
30.58
31.1279
31.6733
32.2028
32.7015
33.1523
33.5358
33.8298
34.0114
34.0599
33.9662
33.7457
33.4202
33.0127
32.5445
32.0343
31.4984
30.9512
30.4054
29.8706
29.3522
28.8516
28.3841
27.9511
27.5529
27.1893
26.8599
26.5643
26.3024
26.0746
25.8818
25.7253
25.6065
25.5274
25.49
21.7671
21.8319
21.9506
22.1206
22.3396
22.6056
22.9172
23.2732
23.6732
24.1173
24.6057
25.1391
25.7175
26.3406
27.006
27.7039
28.4289
29.1706
29.9128
30.6358
31.3183
31.937
32.4662
32.8759
33.1339
33.2095
33.0877
32.7902
32.3488
31.7954
31.1589
30.4644
29.7346
28.9905
28.2511
27.5314
26.8404
26.1842
25.5714
25.0036
24.4811
24.0035
23.5705
23.1816
22.837
22.5373
22.2836
22.0777
21.9215
21.8175
21.7682
21.7765
21.8415
21.9605
22.1309
22.3505
22.6173
22.9298
23.287
23.6883
24.1339
24.6241
25.1593
25.7397
26.3647
27.0321
27.7317
28.4581
29.2007
29.9428
30.6649
31.3454
31.9611
32.486
32.8901
33.141
33.2083
33.0784
32.7743
32.3276
31.7703
31.1311
30.4349
29.7044
28.9605
28.2221
27.5038
26.8142
26.1604
25.5497
24.9838
24.4632
23.9873
23.5557
23.1681
22.8245
22.5257
22.2728
22.0675
21.9117
21.808
21.7588
18.5893
18.6673
18.8099
19.014
19.2767
19.5955
19.9682
20.3935
20.8705
21.399
21.9794
22.6125
23.2989
24.0386
24.8296
25.6679
26.5454
27.4487
28.3583
29.2494
30.0934
30.8591
31.5144
32.0228
32.3438
32.4382
32.2862
31.9164
31.369
30.6839
29.8962
29.0378
28.1393
27.2287
26.3297
25.4602
24.6325
23.8529
23.1257
22.452
21.8318
21.2641
20.7485
20.2846
19.8727
19.514
19.21
18.9629
18.7753
18.6503
18.5911
18.601
18.6792
18.8221
19.0268
19.2902
19.6099
19.9838
20.4104
20.8889
21.4192
22.0017
22.6369
23.3257
24.0678
24.8612
25.7018
26.5811
27.4855
28.3953
29.2855
30.1271
30.8891
31.5391
32.0404
32.3526
32.4367
32.2747
31.8965
31.3426
30.6527
29.8617
29.0013
28.1021
27.192
26.2943
25.4269
24.6015
23.8243
23.0995
22.4282
21.81
21.2443
20.7304
20.268
19.8574
19.4998
19.1966
18.9502
18.7632
18.6385
18.5794
15.9895
16.0787
16.2418
16.4749
16.7743
17.1368
17.5594
18.0401
18.5774
19.1711
19.8215
20.5297
21.297
22.1242
23.0104
23.9558
24.9506
25.9795
27.021
28.0469
29.0231
29.9115
30.6717
31.261
31.6331
31.7427
31.5664
31.1377
30.5032
29.7082
28.7948
27.8029
26.7699
25.7286
24.7057
23.7212
22.7893
21.9166
21.1036
20.3506
19.6565
19.0201
18.4405
17.9174
17.4516
17.0445
16.6986
16.4167
16.2025
16.0595
15.9916
16.003
16.0925
16.256
16.4897
16.79
17.1535
17.5774
18.0595
18.5986
19.1942
19.8468
20.5575
21.3274
22.1574
23.0465
23.9945
24.9915
26.0219
27.0638
28.0887
29.0623
29.9463
30.7004
31.2815
31.6434
31.7409
31.553
31.1146
30.4725
29.6719
28.7546
27.7606
26.7271
25.6865
24.6653
23.6834
22.7545
21.8842
21.0739
20.3235
19.6318
18.9975
18.4197
17.8983
17.4339
17.0281
16.6831
16.4021
16.1884
16.0458
15.9781
13.9367
14.0361
14.2177
14.4768
14.8085
15.2084
15.6727
16.1983
16.783
17.4262
18.1281
18.8902
19.7147
20.6036
21.5577
22.5793
23.658
24.7776
25.915
27.0399
28.1148
29.0961
29.9366
30.5867
30.9959
31.116
30.9226
30.4509
29.7504
28.8715
27.8631
26.7721
25.6405
24.5042
23.3921
22.3252
21.3183
20.3803
19.5071
18.6979
17.9505
17.263
16.6344
16.0645
15.5545
15.1068
14.7246
14.4121
14.1739
14.0146
13.939
13.9516
14.0514
14.2334
14.4931
14.8258
15.2269
15.6925
16.2196
16.8062
17.4514
18.1557
18.9204
19.7478
20.6397
21.5971
22.6216
23.7028
24.8241
25.9621
27.0861
28.1582
29.1348
29.9684
30.6094
31.0072
31.1141
30.9079
30.4254
29.7164
28.8312
27.8187
26.7255
25.5934
24.4581
23.3479
22.2838
21.28
20.345
19.4748
18.6683
17.9235
17.2383
16.6117
16.0436
15.5351
15.0886
14.7075
14.3959
14.1583
13.9994
13.924
12.3613
12.4708
12.6707
12.9549
13.3174
13.7524
14.2542
14.8185
15.4423
16.124
16.864
17.6638
18.5266
19.4558
20.4544
21.5251
22.6575
23.8356
25.0354
26.2253
27.3652
28.4082
29.3019
29.9916
30.4236
30.5496
30.3465
29.8479
29.104
28.1693
27.0982
25.9418
24.7456
23.5478
22.3782
21.2586
20.2036
19.2225
18.3097
17.4623
16.6771
15.9515
15.284
14.6751
14.1264
13.6417
13.2255
12.8836
12.6219
12.4466
12.3633
12.3772
12.4871
12.6874
12.9724
13.3359
13.772
14.2752
14.8412
15.4669
16.1507
16.8931
17.6957
18.5614
19.4938
20.4958
21.5697
22.7049
23.8848
25.0854
26.2744
27.4115
28.4494
29.3357
30.0156
30.4355
30.5475
30.3309
29.8208
29.0678
28.1264
27.0509
25.8923
24.6957
23.499
22.3315
21.2147
20.1631
19.1853
18.2756
17.4311
16.6486
15.9253
15.2599
14.6528
14.1057
13.6223
13.2073
12.8663
12.6053
12.4304
12.3473
11.1748
11.2952
11.5145
11.8255
12.2203
12.691
13.2302
13.8317
14.491
15.2055
15.9751
16.8017
17.6891
18.6422
19.6662
20.7631
21.9236
23.1317
24.364
25.5878
26.7617
27.8364
28.7568
29.4653
29.9065
30.0343
29.828
29.3179
28.5532
27.5903
26.4866
25.2961
24.0663
22.8366
21.6373
20.4903
19.4095
18.4032
17.4663
16.5937
15.781
15.0248
14.3237
13.6786
13.0926
12.5707
12.1195
11.7466
11.4601
11.2675
11.176
11.1913
11.312
11.5319
11.8436
12.2395
12.7114
13.2521
13.8552
14.5163
15.233
16.0051
16.8344
17.7249
18.6813
19.7088
20.809
21.9723
23.1824
24.4154
25.6384
26.8094
27.879
28.7917
29.4899
29.9187
30.0322
29.8121
29.2901
28.5159
27.546
26.4378
25.245
24.0148
22.7863
21.5893
20.4452
19.3677
18.3649
17.4313
16.5617
15.7516
14.9977
14.2987
13.6555
13.0711
12.5506
12.1006
11.7287
11.4428
11.2508
11.1595
10.2868
10.4194
10.6606
11.0016
11.4323
11.9424
12.522
13.1626
13.8577
14.6036
15.3992
16.2466
17.1499
18.1153
19.1499
20.2547
21.4218
22.6362
23.8749
25.1055
26.286
27.3659
28.2892
28.9975
29.4362
29.5623
29.3583
28.8504
28.0852
27.1188
26.0094
24.8122
23.5757
22.3396
21.1341
19.9803
18.8911
17.8736
16.9233
16.0336
15.1987
14.4149
13.6811
12.9991
12.3734
11.8111
11.3212
10.9138
10.5993
10.3875
10.2867
10.3036
10.4365
10.6782
11.02
11.4518
11.9632
12.5442
13.1864
13.8835
14.6315
15.4296
16.2796
17.1859
18.1547
19.1928
20.3009
21.4708
22.6872
23.9268
25.1565
26.334
27.4087
28.3241
29.022
29.4482
29.5603
29.3425
28.8226
28.0477
27.0742
25.9603
24.7608
23.5239
22.2889
21.0857
19.9349
18.8491
17.835
16.888
16.0012
15.1689
14.3874
13.6557
12.9755
12.3515
11.7906
11.302
10.8955
10.5818
10.3705
10.27
9.61569
9.76211
10.0283
10.4034
10.875
11.4297
12.0547
12.7388
13.4732
14.2522
15.074
15.9398
16.8544
17.8247
18.8591
19.9579
21.1146
22.3159
23.5397
24.7543
25.918
26.9809
27.887
28.5795
29.0062
29.1281
28.9306
28.4359
27.687
26.7378
25.6455
24.4648
23.2441
22.0226
20.8297
19.6854
18.601
17.5821
16.6252
15.7223
14.8668
14.0549
13.2861
12.5634
11.8935
11.2857
10.752
10.3053
9.95895
9.72511
9.61387
9.63245
9.77918
10.0459
10.4219
10.8946
11.4505
12.077
12.7628
13.499
14.2802
15.1042
15.9727
16.8902
17.8638
18.9015
20.0035
21.163
22.3663
23.5908
24.8045
25.9653
27.0229
27.9212
28.6034
29.0178
29.1261
28.9153
28.4088
27.6503
26.694
25.5971
24.4141
23.1929
21.9725
20.7819
19.6404
18.5594
17.5438
16.5901
15.69
14.837
14.0274
13.2606
12.5398
11.8714
11.2651
10.7326
10.287
9.94141
9.70811
9.59713
9.094
9.25596
9.55021
9.96388
10.4816
11.0867
11.763
12.4962
13.2747
14.0908
14.941
15.826
16.7504
17.7215
18.7482
19.8307
20.9644
22.1376
23.3295
24.5098
25.6382
26.666
27.5393
28.2039
28.6114
28.7272
28.5394
28.0663
27.3468
26.4311
25.3741
24.2287
23.0418
21.8513
20.6855
19.5626
18.4926
17.4789
16.5188
15.6036
14.7264
13.8836
13.0756
12.3072
11.5872
10.9281
10.3448
9.8538
9.47159
9.21302
9.09002
9.11053
9.27281
9.56767
9.98222
10.501
11.1074
11.7852
12.52
13.3003
14.1185
14.9709
15.8585
16.7856
17.7598
18.7897
19.8753
21.0116
22.1865
23.3791
24.5585
25.6839
26.7064
27.5721
28.2268
28.6225
28.7254
28.5248
28.0404
27.3115
26.3888
25.3272
24.1795
22.9921
21.8027
20.6389
19.5188
18.4518
17.4413
16.4843
15.5717
14.6969
13.8563
13.0503
12.2837
11.5653
10.9076
10.3255
9.83562
9.45424
9.19623
9.07351
8.66928
8.84826
9.17338
9.62949
10.198
10.8589
11.5922
12.3801
13.2081
14.066
14.9484
15.855
16.7897
17.7603
18.7745
19.8339
20.9356
22.0696
23.217
24.3491
25.4278
26.4069
27.2358
27.8639
28.2473
28.3557
28.1795
27.734
27.0532
26.1833
25.1754
24.0796
22.9402
21.7931
20.6647
19.5717
18.5222
17.5176
16.5555
15.6269
14.7252
13.8474
12.9954
12.1758
11.4002
10.684
10.046
9.50612
9.08443
8.79869
8.66282
8.68544
8.86476
9.19051
9.64752
10.2172
10.8794
11.6142
12.4037
13.2334
14.0932
14.9777
15.8867
16.824
17.7975
18.8146
19.8768
20.9809
22.1165
23.2645
24.3955
25.4712
26.4453
27.2668
27.8854
28.2576
28.354
28.1659
27.7096
27.0199
26.1432
25.1309
24.0327
22.8927
21.7464
20.6199
19.5295
18.4827
17.4811
16.5217
15.5957
14.6962
13.8205
12.9704
12.1526
11.3785
10.6638
10.027
9.48823
9.0674
8.78226
8.64668
8.30267
8.49979
8.85787
9.35935
9.98242
10.7032
11.498
12.3453
13.2274
14.1315
15.0503
15.9816
16.9286
17.8985
18.898
19.9303
20.9945
22.0823
23.1763
24.2502
25.2688
26.1896
26.966
27.5519
27.9081
28.0085
27.8451
27.4308
26.795
25.9794
25.0306
23.9947
22.9125
21.8172
20.733
19.6751
18.6495
17.656
16.6911
15.7469
14.8173
13.9003
12.9997
12.1243
11.2883
10.5107
9.81387
9.2217
8.75781
8.44308
8.2935
8.31837
8.51584
8.87457
9.37699
10.0012
10.7233
11.5196
12.3684
13.2523
14.1582
15.0789
16.0124
16.9618
17.9342
18.9363
19.9712
21.0374
22.1267
23.221
24.2938
25.3095
26.2254
26.9948
27.5717
27.9176
28.0069
27.8325
27.4082
26.764
25.942
24.9889
23.9505
22.8676
21.773
20.6905
19.6347
18.6117
17.6208
16.6585
15.7165
14.789
13.874
12.9751
12.1013
11.2669
10.4908
9.79526
9.20421
8.74121
8.42709
8.27782
7.96632
8.18225
8.57446
9.12293
9.80247
10.5854
11.4443
12.3539
13.2934
14.2474
15.2061
16.1653
17.127
18.0971
19.0817
20.0855
21.1092
22.1475
23.1827
24.1915
25.1429
25.9988
26.7176
27.2585
27.5869
27.6795
27.5288
27.1466
26.5593
25.8034
24.9205
23.9515
22.9332
21.8945
20.8578
19.8374
18.8371
17.855
16.8858
15.9232
14.9622
14.0024
13.0496
12.1152
11.2161
10.3746
9.61679
8.97043
8.46284
8.11808
7.9543
7.98148
8.19777
8.59067
9.14009
9.8208
10.6051
11.4654
12.3766
13.3178
14.2734
15.2339
16.1951
17.1589
18.1312
19.118
20.124
21.1496
22.1891
23.2243
24.2319
25.1805
26.0317
26.744
27.2767
27.5956
27.6781
27.5173
27.1259
26.5308
25.769
24.8819
23.9106
22.8914
21.8531
20.8178
19.7993
18.8012
17.8213
16.8543
15.8938
14.9347
13.9766
13.0255
12.0927
11.1952
10.3551
9.59861
8.9534
8.44673
8.10261
7.93916
7.64069
7.8756
8.3021
8.89756
9.63345
10.4785
11.4015
12.3739
13.3719
14.3776
15.379
16.3689
17.3476
18.3196
19.2904
20.2659
21.248
22.2322
23.2054
24.147
25.0295
25.8193
26.48
26.9759
27.2767
27.3616
27.2234
26.8732
26.3344
25.639
24.8232
23.923
22.9708
21.9925
21.0068
20.0248
19.0493
18.0771
17.1018
16.1184
15.1236
14.118
13.1117
12.1173
11.1547
10.2493
9.43064
8.73018
8.17883
7.80385
7.62572
7.65526
7.89055
8.31776
8.9142
9.65129
10.4977
11.4221
12.3961
13.3957
14.403
15.406
16.3976
17.3781
18.3519
19.3246
20.3019
21.2855
22.2706
23.2437
24.184
25.0638
25.8492
26.5039
26.9924
27.2846
27.3602
27.2129
26.8544
26.3085
25.6076
24.7879
23.8854
22.9323
21.9541
20.9695
19.9891
19.0154
18.0451
17.0716
16.09
15.0967
14.0929
13.0881
12.0953
11.1343
10.2303
9.41295
8.71366
8.16328
7.78897
7.61117
7.3121
7.5658
8.02568
8.66636
9.45613
10.3604
11.3447
12.3775
13.432
14.4875
15.5298
16.5504
17.5475
18.5231
19.4824
20.4321
21.375
22.3081
23.2212
24.097
24.9119
25.6371
26.2412
26.6934
26.9675
27.0448
26.9188
26.5996
26.1079
25.4714
24.7213
23.8886
23.001
22.0808
21.1435
20.1974
19.244
18.2794
17.2965
16.2913
15.2627
14.2141
13.1557
12.1035
11.0801
10.1136
9.23689
8.48462
7.89106
7.48654
7.2941
7.32603
7.58012
8.04073
8.68242
9.47341
10.379
11.3648
12.3991
13.4551
14.5121
15.5558
16.578
17.5765
18.5536
19.5145
20.4656
21.4096
22.3433
23.2561
24.1306
24.9429
25.6641
26.2627
26.7082
26.9746
27.0436
26.9094
26.5827
26.0846
25.443
24.6893
23.8544
22.9658
22.0456
21.109
20.1641
19.2122
18.2491
17.2677
16.2639
15.2368
14.1897
13.1328
12.0821
11.0601
10.0951
9.21973
8.46868
7.8761
7.47228
7.28019
6.97013
7.2414
7.73177
8.41312
9.25089
10.2077
11.2465
12.3335
13.4395
14.5416
15.6234
16.6746
17.691
18.6722
19.6235
20.5515
21.4597
22.3464
23.204
24.0183
24.7698
25.4341
25.9848
26.3958
26.6446
26.7148
26.6002
26.3103
25.863
25.282
24.5938
23.8244
22.997
22.1303
21.2365
20.3218
19.3867
18.4266
17.4343
16.4067
15.345
14.2549
13.1484
12.0438
10.9659
9.94523
9.01692
8.21841
7.58673
7.15508
6.94914
6.98337
7.25504
7.74615
8.42853
9.26754
10.2257
11.266
12.3544
13.4619
14.5654
15.6485
16.701
17.7186
18.701
19.6534
20.5825
21.4915
22.3785
23.2356
24.0486
24.7976
25.4582
26.004
26.409
26.6509
26.7137
26.5918
26.2952
25.8422
25.2566
24.565
23.7935
22.9651
22.098
21.2047
20.2909
19.3569
18.3979
17.4068
16.3804
15.3199
14.2312
13.1261
12.023
10.9465
9.92732
9.00038
8.2031
7.57243
7.1415
6.93592
6.6066
6.89273
7.40848
8.1233
9.00031
10.0001
11.0838
12.2159
13.3657
14.5085
15.6259
16.7059
17.7416
18.7303
19.677
20.5883
21.4677
22.3145
23.1232
23.8826
24.5767
25.1857
25.6878
26.0612
26.2868
26.3505
26.2464
25.9833
25.5765
25.0461
24.4139
23.7015
22.9278
22.1079
21.2512
20.3624
19.4408
18.4819
17.479
16.4295
15.3371
14.2099
13.0617
11.9129
10.7897
9.72455
8.75412
7.91776
7.25463
6.8003
6.58288
6.61909
6.90563
7.42213
8.13798
9.01624
10.0174
11.1026
12.2361
13.3873
14.5314
15.6501
16.7311
17.7678
18.7574
19.705
20.617
21.4968
22.3437
23.1518
23.9098
24.6015
25.2072
25.7048
26.0729
26.2924
26.3495
26.239
25.9699
25.558
25.0234
24.3881
23.6737
22.8989
22.0785
21.222
20.3337
19.4128
18.4549
17.4528
16.4043
15.313
14.187
13.0402
11.8927
10.771
9.70732
8.73828
7.90316
7.24106
6.78745
6.5704
6.21566
6.5127
7.04669
7.78514
8.68963
9.71952
10.8351
11.9999
13.1825
14.3568
15.5032
16.6075
17.6607
18.6576
19.603
20.5024
21.3593
22.1736
22.9412
23.6535
24.298
24.8588
25.3181
25.6583
25.8634
25.9213
25.8266
25.587
25.216
24.7298
24.1465
23.4833
22.7554
21.9745
21.148
20.2789
19.3663
18.4061
17.3925
16.3236
15.2055
14.0486
12.8685
11.6869
10.5312
9.43453
8.43461
7.57171
6.88629
6.41556
6.18965
6.22735
6.5248
7.05953
7.79903
8.70477
9.73604
10.8531
12.0193
13.2032
14.3788
15.5263
16.6316
17.6856
18.6831
19.6291
20.529
21.386
22.2001
22.967
23.6779
24.3202
24.8778
25.3332
25.6686
25.8684
25.9205
25.82
25.5752
25.1996
24.7097
24.1235
23.4583
22.7292
21.9477
21.1211
20.2522
19.3401
18.3805
17.3676
16.2995
15.1823
14.0266
12.8478
11.6675
10.5132
9.41808
8.41955
7.5579
6.8735
6.40351
6.17797
5.79316
6.09605
6.63918
7.3889
8.30608
9.34988
10.4806
11.662
12.8622
14.0551
15.2198
16.3407
17.4067
18.4104
19.3558
20.2473
21.0874
21.8762
22.6108
23.2846
23.8879
24.4081
24.8313
25.1433
25.331
25.3839
25.2971
25.0777
24.7369
24.2882
23.7457
23.1232
22.4326
21.6829
20.8796
20.025
19.1182
18.156
17.134
16.0512
14.916
13.7407
12.5423
11.3432
10.1714
9.06
8.04652
7.17129
6.4751
5.99601
5.76546
5.80401
6.10729
6.65116
7.40191
8.32033
9.3655
10.4977
11.6804
12.882
14.0761
15.2419
16.3636
17.4303
18.4344
19.3803
20.2719
21.112
21.9004
22.6341
23.3065
23.9076
24.425
24.8447
25.1524
25.3353
25.3831
25.2912
25.0672
24.7224
24.2703
23.7252
23.1008
22.4089
21.6584
20.8548
20.0002
19.0937
18.1319
17.1103
16.0282
14.8939
13.7196
12.5225
11.3248
10.1544
9.04443
8.03233
7.15834
6.46317
5.9848
5.75463
5.33627
5.63886
6.18026
6.92646
7.83864
8.87674
10.0022
11.1797
12.3783
13.572
14.7398
15.865
16.9351
17.9406
18.8845
19.7692
20.5961
21.3651
22.0737
22.7167
23.2868
23.7741
24.1678
24.4566
24.6298
24.6786
24.5983
24.3956
24.0796
23.6613
23.152
22.5622
21.9013
21.1761
20.391
19.5478
18.6463
17.6846
16.6602
15.5732
14.434
13.2561
12.0576
10.8609
9.69341
8.58754
7.57966
6.7091
6.01593
5.5381
5.30759
5.3462
5.64918
6.19131
6.93851
7.8519
8.89135
10.0182
11.1971
12.397
13.592
14.7607
15.8868
16.9574
17.9633
18.9074
19.7921
20.6188
21.3872
22.0948
22.7364
23.3044
23.7892
24.1797
24.4647
24.6337
24.6779
24.5931
24.3863
24.0667
23.6454
23.1335
22.5419
21.8797
21.1536
20.368
19.5247
18.6233
17.6618
16.6377
15.5513
14.4129
13.2361
12.0388
10.8434
9.67742
8.57297
7.56646
6.69711
6.00494
5.52781
5.29767
4.8431
5.13836
5.6656
6.39137
7.27819
8.28786
9.38385
10.5329
11.7058
12.8776
14.0279
15.1396
16.1996
17.197
18.1329
19.0076
19.8211
20.5724
21.2591
21.8769
22.42
22.8807
23.2506
23.5205
23.682
23.7274
23.6525
23.4632
23.1673
22.7737
22.2911
21.728
21.0915
20.3871
19.6185
18.7879
17.8957
16.9419
15.9261
14.8501
13.7254
12.5664
11.3909
10.2208
9.08229
8.0058
7.02573
6.17932
5.50495
5.03939
4.81431
4.85207
5.14769
5.67562
6.40236
7.29035
8.30132
9.39869
10.5491
11.7233
12.8963
14.0475
15.16
16.2205
17.2181
18.1543
19.0289
19.8421
20.5927
21.2784
21.8948
22.4359
22.8942
23.2611
23.5277
23.6855
23.7268
23.6479
23.4549
23.1558
22.7594
22.2745
21.7096
21.0717
20.3664
19.5973
18.7663
17.8741
16.9204
15.9049
14.8295
13.7056
12.5476
11.3734
10.2046
9.06747
7.99237
7.01361
6.16838
5.49497
5.03008
4.80535
4.31268
4.59284
5.09224
5.779
6.61797
7.57379
8.61297
9.70512
10.8236
11.9455
13.0516
14.1258
15.1549
16.1276
17.0426
17.898
18.6919
19.4222
20.0864
20.6803
21.1991
21.6366
21.986
22.24
22.3916
22.4342
22.3637
22.1857
21.907
21.5345
21.0755
20.5366
19.9237
19.2414
18.4934
17.6823
16.8098
15.8778
14.8885
13.8452
12.7598
11.6466
10.5224
9.40768
8.32632
7.30615
6.37859
5.57786
4.93961
4.49843
4.28472
4.32062
4.60112
5.10118
5.78883
6.62891
7.58597
8.62645
9.71991
10.8396
11.9627
13.0697
14.1446
15.174
16.1472
17.0625
17.9177
18.7112
19.4409
20.104
20.6965
21.2135
21.6487
21.9954
22.2465
22.3947
22.4336
22.3596
22.1783
21.8966
21.5216
21.0605
20.5199
19.9056
19.2224
18.4737
17.6622
16.7897
15.8578
14.8687
13.826
12.7415
11.6293
10.5063
9.39286
8.31285
7.29401
6.36769
5.56807
4.93071
4.49017
4.27678
3.74478
4.00164
4.45882
5.08693
5.85418
6.72892
7.6815
8.6852
9.71667
10.7558
11.7856
12.7916
13.7615
14.6856
15.559
16.3775
17.1378
17.8366
18.4706
19.0357
19.5275
19.9406
20.2693
20.5076
20.6497
20.6895
20.6234
20.4565
20.1946
19.8438
19.4099
18.8985
18.3147
17.663
16.9471
16.1704
15.336
14.4477
13.51
12.5281
11.5132
10.4782
9.43821
8.4112
7.41818
6.48351
5.63485
4.90261
4.31875
3.91472
3.71866
3.75164
4.00882
4.46657
5.09551
5.86376
6.73964
7.69343
8.69836
9.73102
10.7713
11.802
12.8087
13.7791
14.7037
15.5772
16.3956
17.1555
17.8536
18.4866
19.0504
19.5404
19.9514
20.2777
20.5134
20.6524
20.689
20.6197
20.4498
20.1853
19.8322
19.3963
18.8833
18.2982
17.6455
16.929
16.152
15.3175
14.4294
13.492
12.5107
11.4966
10.4626
9.42382
8.39804
7.40627
6.47282
5.62531
4.89407
4.31102
3.90757
3.7118
3.13993
3.36523
3.76564
4.31532
4.98663
5.75245
6.5876
7.46964
8.37909
9.2993
10.2162
11.1179
11.9941
12.8372
13.6394
14.3947
15.0982
15.7459
16.3336
16.8571
17.312
17.6934
17.9964
18.2157
18.3464
18.383
18.3221
18.1684
17.9273
17.6037
17.2028
16.7295
16.1886
15.5844
14.9211
14.2029
13.4339
12.6195
11.7662
10.881
9.97298
9.05283
8.13303
7.22838
6.35634
5.53726
4.79445
4.15378
3.64273
3.28873
3.11668
3.14565
3.37122
3.77214
4.32253
4.99472
5.76154
6.59777
7.48091
8.39144
9.31267
10.2305
11.1329
12.0098
12.8533
13.6557
14.4109
15.1141
15.7611
16.3478
16.8701
17.3234
17.703
18.0039
18.2208
18.3488
18.3825
18.3188
18.1626
17.919
17.5934
17.1907
16.716
16.1739
15.5688
14.905
14.1864
13.4175
12.6033
11.7504
10.8658
9.95862
9.03942
8.12067
7.21713
6.3462
5.52821
4.7864
4.1466
3.63626
3.28276
3.11096
2.49934
2.68513
3.01489
3.46717
4.01931
4.64932
5.33702
6.06463
6.81689
7.58098
8.34629
9.1041
9.84733
10.5707
11.2645
11.9216
12.5365
13.1043
13.6206
14.0811
14.4815
14.8171
15.0837
15.2767
15.3916
15.4238
15.3701
15.235
15.0227
14.7379
14.3851
13.9685
13.4928
12.9623
12.3812
11.7542
11.0862
10.3833
9.65328
8.90442
8.14279
7.37591
6.613
5.86532
5.14635
4.4721
3.86108
3.33411
2.91353
2.62189
2.47994
2.50387
2.68988
3.02005
3.47291
4.02578
4.65661
5.34521
6.07374
6.82693
7.59192
8.35806
9.11663
9.86052
10.5843
11.2783
11.9354
12.55
13.1173
13.6328
14.0923
14.4913
14.8254
15.0901
15.281
15.3937
15.4234
15.3673
15.2299
15.0157
14.7292
14.3748
13.957
13.4803
12.949
12.3674
11.7402
11.0722
10.3696
9.64011
8.8919
8.13103
7.36499
6.60299
5.85624
5.1382
4.46484
3.85465
3.32839
2.90838
2.61715
2.47541
1.82477
1.9639
2.21054
2.54844
2.96063
3.43077
3.94404
4.48754
5.05038
5.62368
6.20039
6.77522
7.34459
7.90628
8.44989
8.9682
9.45572
9.90781
10.3203
10.689
11.0102
11.2799
11.4942
11.6494
11.7419
11.7678
11.7246
11.6157
11.445
11.2161
10.9327
10.5986
10.2179
9.79441
9.33225
8.83574
8.30976
7.76025
7.19527
6.6233
6.04672
5.46958
4.89766
4.33852
3.80163
3.29844
2.84244
2.44897
2.13466
1.91647
1.81012
1.82806
1.96736
2.2143
2.55263
2.96535
3.43611
3.95005
4.49424
5.0578
5.6318
6.2092
6.78469
7.35469
7.91679
8.46062
8.97895
9.46628
9.91797
10.3298
10.6978
11.0179
11.2863
11.4992
11.6528
11.7435
11.7675
11.7224
11.6118
11.4395
11.2092
10.9246
10.5896
10.2081
9.78401
9.32151
8.82487
8.29896
7.74975
7.18532
6.61394
6.03798
5.46151
4.89028
4.33185
3.79566
3.29314
2.83775
2.4448
2.13092
1.91302
1.80683
1.11836
1.20492
1.35816
1.56781
1.8232
2.11413
2.43143
2.7672
3.11493
3.46948
3.82707
4.18545
4.54417
4.9042
5.25602
5.59375
5.91315
6.2107
6.48321
6.72765
6.94107
7.12062
7.26354
7.36717
7.42893
7.44624
7.41735
7.34466
7.2307
7.07808
6.88945
6.66761
6.41544
6.1359
5.83207
5.50723
5.16509
4.81029
4.4496
4.09047
3.73164
3.37409
3.02053
2.67512
2.34339
2.03224
1.74997
1.50608
1.31099
1.17537
1.10919
1.12036
1.20702
1.36044
1.57036
1.82608
2.11739
2.43509
2.7713
3.11947
3.47446
3.83251
4.19136
4.5506
4.91095
5.26295
5.60072
5.92003
6.21735
6.48948
6.73339
6.94614
7.12488
7.26686
7.36942
7.43001
7.44603
7.4159
7.34205
7.22707
7.07353
6.88413
6.66166
6.409
6.12912
5.82509
5.50019
5.15814
4.8036
4.44339
4.08469
3.72628
3.36916
3.01603
2.67105
2.33974
2.02901
1.7471
1.50354
1.30871
1.17328
1.10719
0.382207
0.411879
0.464325
0.535919
0.622899
0.721682
0.829067
0.94233
1.05926
1.17819
1.29802
1.41842
1.54041
1.66674
1.79162
1.91236
2.02722
2.13478
2.23373
2.32285
2.40091
2.46677
2.51929
2.55743
2.58018
2.58655
2.57591
2.54914
2.50722
2.45115
2.38201
2.30093
2.20909
2.1077
1.99801
1.88137
1.75927
1.63368
1.50797
1.38643
1.26603
1.14621
1.02754
0.911297
0.799296
0.6939
0.597975
0.514849
0.448186
0.401748
0.379052
0.382886
0.412591
0.465099
0.53678
0.623868
0.722775
0.830294
0.943697
1.06077
1.17985
1.29983
1.42041
1.54266
1.66914
1.79409
1.91486
2.0297
2.13719
2.23601
2.32494
2.40277
2.46833
2.52051
2.55826
2.58057
2.58647
2.57537
2.54818
2.50588
2.44948
2.38007
2.29876
2.20675
2.10524
1.99549
1.87884
1.75679
1.63133
1.50588
1.3845
1.26425
1.14457
1.02605
0.909939
0.798076
0.692812
0.59701
0.513991
0.447414
0.401037
0.378373
)
;

boundaryField
{
    top
    {
        type            fixedValue;
        value           uniform 0;
    }
    bottom
    {
        type            fixedValue;
        value           uniform 36.5;
    }
    frontAndBack
    {
        type            empty;
    }
    left_cyc
    {
        type            cyclic;
    }
    right_cyc
    {
        type            cyclic;
    }
}


// ************************************************************************* //
