/*--------------------------------*- C++ -*----------------------------------*\
| =========                 |                                                 |
| \\      /  F ield         | OpenFOAM: The Open Source CFD Toolbox           |
|  \\    /   O peration     | Version:  2.3.0                                 |
|   \\  /    A nd           | Web:      www.OpenFOAM.org                      |
|    \\/     M anipulation  |                                                 |
\*---------------------------------------------------------------------------*/
FoamFile
{
    version     2.0;
    format      ascii;
    class       volScalarField;
    location    "21000";
    object      NUEff;
}
// * * * * * * * * * * * * * * * * * * * * * * * * * * * * * * * * * * * * * //

dimensions      [0 2 -1 0 0 0 0];

internalField   nonuniform List<scalar> 
3060
(
0.175149
0.174956
0.174603
0.174105
0.173473
0.172721
0.171865
0.170915
0.169882
0.168774
0.1676
0.166364
0.165082
0.163788
0.162511
0.161253
0.160016
0.158811
0.157655
0.156573
0.155588
0.154727
0.154017
0.153485
0.153161
0.153066
0.153213
0.153585
0.154158
0.154903
0.155794
0.156803
0.157904
0.159073
0.160287
0.161531
0.162794
0.164078
0.165377
0.166652
0.167876
0.169037
0.170128
0.171142
0.17207
0.172901
0.173622
0.17422
0.174681
0.174991
0.175139
0.175115
0.174921
0.174567
0.174067
0.173434
0.17268
0.171821
0.170868
0.169832
0.168721
0.167542
0.166302
0.165016
0.16372
0.162443
0.161185
0.159948
0.158743
0.157591
0.156513
0.155534
0.154681
0.15398
0.15346
0.153149
0.153068
0.153229
0.153613
0.154197
0.154952
0.155851
0.156865
0.15797
0.159141
0.160356
0.161599
0.162862
0.164144
0.165442
0.166713
0.167933
0.16909
0.170177
0.171188
0.172113
0.172942
0.173661
0.174257
0.174717
0.175026
0.175173
0.635689
0.628029
0.613725
0.592745
0.565183
0.531557
0.493094
0.451805
0.410176
0.370548
0.334571
0.303037
0.276055
0.253329
0.234783
0.219682
0.207217
0.196883
0.188337
0.18132
0.175629
0.171111
0.167662
0.165226
0.16379
0.163378
0.164017
0.165672
0.168327
0.172004
0.176771
0.18274
0.190078
0.198999
0.209777
0.222785
0.238582
0.258105
0.281792
0.309832
0.342445
0.379383
0.419649
0.461389
0.502166
0.539551
0.571708
0.597597
0.616829
0.629359
0.635205
0.634249
0.626542
0.612153
0.591057
0.563364
0.529615
0.49107
0.449769
0.40821
0.368721
0.332926
0.301589
0.274802
0.252257
0.233897
0.218936
0.206586
0.196351
0.187892
0.180954
0.175332
0.170878
0.167489
0.165112
0.163737
0.163387
0.164088
0.165803
0.168517
0.172255
0.177087
0.183129
0.190547
0.199559
0.210442
0.223571
0.239516
0.259234
0.283105
0.311342
0.344152
0.381264
0.421652
0.463441
0.504184
0.541472
0.5735
0.599258
0.618379
0.630832
0.63664
0.940626
0.939881
0.938474
0.93636
0.933452
0.929606
0.924601
0.918094
0.909548
0.898098
0.88229
0.859562
0.825152
0.770078
0.67994
0.551606
0.421449
0.32903
0.272063
0.236756
0.213959
0.198767
0.188578
0.182003
0.178335
0.177304
0.178905
0.183171
0.190458
0.201594
0.218176
0.243196
0.282309
0.345877
0.447662
0.582217
0.703528
0.784903
0.834332
0.865538
0.886393
0.901036
0.911719
0.919731
0.925846
0.930548
0.934149
0.936848
0.938774
0.940004
0.940573
0.94048
0.939729
0.93831
0.936179
0.933245
0.929362
0.924304
0.91772
0.909059
0.897435
0.88135
0.858156
0.822923
0.766365
0.67393
0.543977
0.415128
0.324966
0.269547
0.235143
0.212887
0.198041
0.188095
0.181706
0.1782
0.177326
0.179084
0.183517
0.191003
0.202405
0.219377
0.245018
0.285187
0.350537
0.454622
0.589722
0.708912
0.788141
0.836292
0.866794
0.887245
0.901645
0.912174
0.920083
0.926128
0.930782
0.934349
0.937024
0.938934
0.940154
0.940719
0.971848
0.971544
0.970974
0.970129
0.968986
0.967508
0.965639
0.963297
0.96036
0.956649
0.951888
0.945649
0.937228
0.925407
0.90792
0.880427
0.832929
0.742535
0.580056
0.406119
0.3037
0.251281
0.222833
0.206891
0.198712
0.196492
0.199951
0.209598
0.227718
0.260072
0.320571
0.438801
0.621315
0.768001
0.846052
0.887784
0.912489
0.928448
0.939371
0.947224
0.953082
0.957574
0.961088
0.963873
0.966094
0.967863
0.969255
0.97032
0.971093
0.971592
0.971824
0.971786
0.97148
0.970906
0.970054
0.968902
0.967412
0.965526
0.963161
0.960192
0.956436
0.951611
0.945276
0.936707
0.924646
0.906742
0.878452
0.829276
0.735302
0.568974
0.398073
0.29956
0.249082
0.221596
0.20621
0.198419
0.196539
0.200344
0.21041
0.229167
0.262678
0.325574
0.448193
0.631845
0.77402
0.849117
0.889497
0.91355
0.929135
0.939846
0.947567
0.95334
0.957773
0.961247
0.964003
0.966203
0.967956
0.969336
0.970393
0.97116
0.971655
0.971886
0.982596
0.982404
0.982046
0.981517
0.980808
0.979899
0.978764
0.977363
0.975638
0.973508
0.970851
0.967488
0.963142
0.957375
0.949457
0.938084
0.920741
0.892051
0.839025
0.729244
0.533297
0.365759
0.283993
0.24579
0.228335
0.223828
0.230888
0.251875
0.296834
0.393789
0.579951
0.760783
0.853977
0.899823
0.925298
0.941008
0.951461
0.958822
0.964225
0.968321
0.971507
0.974031
0.97606
0.977703
0.979037
0.980115
0.980973
0.981635
0.982119
0.982433
0.982579
0.982555
0.982362
0.982002
0.981469
0.980754
0.979838
0.978694
0.97728
0.975538
0.973384
0.970695
0.967287
0.962876
0.95701
0.948936
0.937302
0.919488
0.889845
0.834644
0.719933
0.52091
0.358883
0.280818
0.244279
0.227733
0.223924
0.231706
0.253739
0.300757
0.402275
0.592619
0.768415
0.857556
0.90169
0.92639
0.941703
0.951932
0.959157
0.964472
0.968509
0.971653
0.974148
0.976155
0.977782
0.979105
0.980173
0.981024
0.981682
0.982163
0.982474
0.98262
0.987793
0.987647
0.987375
0.986975
0.98644
0.985759
0.984917
0.983886
0.982633
0.981105
0.979229
0.976897
0.97395
0.970143
0.965087
0.95811
0.948064
0.932763
0.907583
0.861469
0.765922
0.58073
0.399105
0.309912
0.273313
0.264409
0.278454
0.323396
0.430293
0.627446
0.793526
0.874391
0.914362
0.936763
0.950637
0.959871
0.966349
0.971086
0.974676
0.977469
0.979687
0.981477
0.982937
0.984135
0.985118
0.98592
0.986563
0.987063
0.98743
0.987668
0.98778
0.987761
0.987614
0.987341
0.986938
0.986399
0.985714
0.984864
0.983824
0.982559
0.981015
0.979118
0.976757
0.973769
0.969901
0.964756
0.957637
0.947358
0.931637
0.905623
0.857621
0.757587
0.567848
0.391385
0.306607
0.272108
0.264597
0.280124
0.32761
0.439814
0.63995
0.800259
0.877541
0.916026
0.937745
0.951265
0.960295
0.966647
0.971308
0.974845
0.977601
0.979792
0.981562
0.983007
0.984194
0.985169
0.985964
0.986603
0.987099
0.987463
0.9877
0.987811
0.990714
0.99059
0.99036
0.990021
0.989571
0.989002
0.988301
0.987452
0.986428
0.985193
0.983693
0.981853
0.979559
0.976642
0.972838
0.967705
0.960539
0.950091
0.933955
0.907008
0.857083
0.75489
0.574008
0.415668
0.343861
0.326893
0.353796
0.442045
0.617166
0.783917
0.871061
0.914276
0.93818
0.95277
0.962349
0.968989
0.973784
0.97736
0.98012
0.982301
0.984057
0.985492
0.986675
0.987656
0.988468
0.989136
0.989675
0.990096
0.990406
0.990609
0.990703
0.990688
0.990563
0.990331
0.98999
0.989537
0.988964
0.988257
0.987401
0.986367
0.98512
0.983604
0.981742
0.979417
0.976456
0.972589
0.967359
0.960041
0.949339
0.932741
0.904869
0.852866
0.746122
0.562241
0.409139
0.34154
0.327249
0.357048
0.450213
0.629083
0.791147
0.874516
0.916086
0.939235
0.953437
0.962797
0.969303
0.974012
0.977532
0.980253
0.982406
0.984142
0.985561
0.986733
0.987705
0.988511
0.989173
0.989708
0.990127
0.990435
0.990636
0.99073
0.992497
0.992384
0.992173
0.991865
0.991457
0.990943
0.990315
0.98956
0.988657
0.987578
0.986282
0.984707
0.982765
0.980322
0.977174
0.972989
0.967261
0.959135
0.947058
0.927999
0.8955
0.83497
0.719612
0.559144
0.450428
0.422029
0.46672
0.592962
0.750563
0.851779
0.904295
0.933013
0.950166
0.961193
0.968695
0.974028
0.977953
0.98092
0.983238
0.985089
0.986595
0.987838
0.988874
0.989741
0.990465
0.991064
0.991551
0.991934
0.992217
0.992401
0.992488
0.992474
0.99236
0.992148
0.991838
0.991426
0.990909
0.990276
0.989515
0.988604
0.987515
0.986205
0.984612
0.982645
0.980167
0.976968
0.972707
0.966866
0.958556
0.946167
0.926533
0.892876
0.829879
0.710499
0.550226
0.446574
0.422631
0.471993
0.602775
0.758579
0.855998
0.906509
0.93428
0.950951
0.961711
0.969053
0.974286
0.978143
0.981065
0.98335
0.985179
0.986668
0.987899
0.988925
0.989784
0.990502
0.991097
0.991581
0.991961
0.992242
0.992425
0.992511
0.993644
0.993534
0.993331
0.993034
0.992643
0.992153
0.991558
0.990848
0.990006
0.98901
0.987824
0.986398
0.984656
0.982485
0.979712
0.976069
0.971156
0.96432
0.954429
0.939413
0.915244
0.873784
0.800326
0.686728
0.580479
0.546243
0.598803
0.713571
0.819907
0.884934
0.921622
0.943295
0.956944
0.966036
0.972378
0.976968
0.980394
0.983014
0.985079
0.986743
0.98811
0.98925
0.990209
0.991018
0.9917
0.992269
0.992735
0.993102
0.993374
0.993553
0.993636
0.993622
0.993512
0.993308
0.993009
0.992615
0.992122
0.991522
0.990807
0.989958
0.988953
0.987755
0.986313
0.984549
0.982347
0.979531
0.975825
0.970819
0.963838
0.953709
0.938283
0.913356
0.870443
0.7945
0.679245
0.575999
0.547001
0.604537
0.720978
0.824966
0.887776
0.923249
0.944287
0.957585
0.966472
0.972685
0.977193
0.980562
0.983143
0.98518
0.986824
0.988177
0.989305
0.990255
0.991058
0.991735
0.9923
0.992762
0.993127
0.993397
0.993574
0.993657
0.994412
0.994302
0.994098
0.9938
0.993409
0.992921
0.992333
0.991635
0.990816
0.989856
0.988724
0.987376
0.985744
0.983729
0.981176
0.977859
0.973442
0.967391
0.958816
0.946181
0.926721
0.895438
0.844439
0.769071
0.692116
0.664
0.706362
0.787051
0.857648
0.903624
0.931758
0.949405
0.960976
0.968899
0.974534
0.978674
0.981801
0.984219
0.986139
0.987701
0.988997
0.990088
0.991015
0.991804
0.992475
0.993039
0.993502
0.99387
0.994143
0.994322
0.994406
0.994392
0.994282
0.994076
0.993777
0.993383
0.992892
0.9923
0.991597
0.990771
0.989802
0.988659
0.987296
0.985645
0.983602
0.981011
0.977638
0.973141
0.966967
0.958199
0.945247
0.925241
0.893012
0.840544
0.763993
0.688552
0.664647
0.710717
0.791965
0.861098
0.905737
0.933055
0.950235
0.96153
0.969284
0.97481
0.978878
0.981955
0.984338
0.986233
0.987777
0.989059
0.990139
0.991058
0.991841
0.992507
0.993067
0.993527
0.993892
0.994164
0.994342
0.994426
0.994948
0.994834
0.994623
0.994316
0.993912
0.993412
0.992811
0.992103
0.991278
0.99032
0.989202
0.987883
0.986303
0.984369
0.981942
0.978821
0.974716
0.969168
0.961451
0.950363
0.933903
0.908833
0.870878
0.818904
0.767332
0.748147
0.776945
0.831035
0.880423
0.915243
0.938095
0.953161
0.963379
0.970543
0.975726
0.979585
0.982534
0.984839
0.986685
0.988202
0.989473
0.990553
0.991479
0.992276
0.992958
0.993534
0.994011
0.99439
0.994672
0.994857
0.994944
0.99493
0.994815
0.994603
0.994294
0.993888
0.993384
0.992779
0.992066
0.991235
0.990269
0.98914
0.987807
0.986208
0.984249
0.981786
0.978616
0.974438
0.968783
0.960902
0.949556
0.93268
0.906953
0.868098
0.815499
0.76492
0.748593
0.779868
0.834368
0.882945
0.916913
0.939183
0.953884
0.963876
0.970894
0.975982
0.979776
0.982679
0.984951
0.986774
0.988274
0.989532
0.990602
0.991521
0.992311
0.992988
0.993561
0.994035
0.994411
0.994692
0.994876
0.994962
0.995341
0.995221
0.994999
0.994675
0.994251
0.993725
0.993097
0.99236
0.991509
0.990527
0.989391
0.988065
0.986493
0.984589
0.982223
0.979216
0.975306
0.970095
0.962969
0.952968
0.938605
0.917741
0.88814
0.850542
0.81537
0.802603
0.821826
0.859083
0.89539
0.92297
0.942213
0.955468
0.964738
0.97138
0.976265
0.97995
0.982799
0.985051
0.986874
0.988387
0.989667
0.990767
0.991718
0.992543
0.993253
0.993856
0.994356
0.994755
0.995052
0.995248
0.995339
0.995324
0.995204
0.99498
0.994654
0.994227
0.993699
0.993066
0.992325
0.991467
0.990477
0.989331
0.987992
0.986402
0.984474
0.982073
0.97902
0.975044
0.969738
0.962469
0.952253
0.937562
0.916225
0.886057
0.848173
0.813761
0.802898
0.823792
0.861447
0.897321
0.924341
0.943152
0.956115
0.965194
0.971708
0.976506
0.980132
0.982938
0.98516
0.986961
0.988457
0.989725
0.990814
0.991758
0.992577
0.993282
0.993882
0.994379
0.994776
0.995071
0.995265
0.995356
0.995647
0.99552
0.995283
0.994938
0.994486
0.993927
0.99326
0.992481
0.991585
0.990558
0.989381
0.988019
0.986421
0.984506
0.982155
0.979205
0.975416
0.970436
0.963742
0.95456
0.94178
0.924008
0.900215
0.871983
0.847129
0.838406
0.851604
0.878235
0.905908
0.928384
0.944951
0.956836
0.965394
0.971659
0.976343
0.979924
0.982728
0.984973
0.98681
0.988351
0.989669
0.990811
0.991808
0.992676
0.993428
0.994069
0.994601
0.995026
0.995342
0.99555
0.995646
0.995631
0.995503
0.995265
0.994918
0.994464
0.993902
0.99323
0.992447
0.991544
0.990509
0.989321
0.987947
0.986332
0.984393
0.982011
0.979017
0.975166
0.970099
0.96328
0.953915
0.940874
0.922755
0.898603
0.870273
0.846025
0.838606
0.852968
0.879972
0.907432
0.929534
0.945776
0.957424
0.965818
0.971969
0.976574
0.9801
0.982863
0.985079
0.986895
0.98842
0.989726
0.990858
0.991847
0.99271
0.993457
0.994094
0.994623
0.995045
0.99536
0.995566
0.995663
0.995901
0.995766
0.995513
0.995145
0.994661
0.994062
0.993349
0.992517
0.991563
0.990475
0.989236
0.987815
0.986164
0.984208
0.981839
0.978904
0.975185
0.970369
0.964012
0.955495
0.944
0.928661
0.909185
0.887437
0.86932
0.863159
0.872526
0.892143
0.913751
0.932378
0.946819
0.957589
0.965573
0.971548
0.976093
0.97962
0.982416
0.984686
0.986567
0.988164
0.989542
0.990746
0.991803
0.992728
0.993531
0.994217
0.994786
0.99524
0.995579
0.9958
0.995903
0.995886
0.99575
0.995496
0.995126
0.994639
0.994038
0.99332
0.992483
0.991522
0.990426
0.989177
0.987743
0.986076
0.984097
0.981697
0.978721
0.974945
0.970049
0.963582
0.954909
0.943205
0.927613
0.907912
0.88617
0.86854
0.863298
0.873501
0.893454
0.914975
0.933355
0.947551
0.958127
0.96597
0.971844
0.976316
0.97979
0.982549
0.98479
0.986651
0.988231
0.989598
0.990792
0.991841
0.992761
0.993559
0.994241
0.994807
0.995259
0.995595
0.995815
0.995918
0.996127
0.995983
0.995714
0.995321
0.994804
0.994163
0.993399
0.992508
0.991487
0.990326
0.98901
0.987511
0.985787
0.983767
0.981355
0.978409
0.974729
0.970035
0.963965
0.956031
0.945657
0.93236
0.916285
0.899268
0.885729
0.881241
0.888093
0.902885
0.919986
0.935535
0.948174
0.957967
0.965447
0.971182
0.975627
0.979127
0.981944
0.984262
0.986211
0.987882
0.989338
0.990619
0.991747
0.992737
0.993597
0.994331
0.99494
0.995425
0.995786
0.996021
0.996131
0.996113
0.995968
0.995698
0.995303
0.994783
0.994139
0.993371
0.992475
0.991447
0.990278
0.988952
0.987441
0.985699
0.983658
0.981217
0.978231
0.974498
0.969731
0.963563
0.955499
0.94496
0.93148
0.915272
0.898311
0.885162
0.881342
0.888808
0.903889
0.920976
0.936366
0.948823
0.95846
0.965819
0.971464
0.975842
0.979294
0.982074
0.984365
0.986294
0.98795
0.989394
0.990665
0.991785
0.992769
0.993624
0.994354
0.99496
0.995443
0.995802
0.996036
0.996145
0.99634
0.996187
0.995902
0.995485
0.994936
0.994254
0.993439
0.992488
0.991397
0.990157
0.988754
0.987166
0.985354
0.983256
0.980786
0.977814
0.974162
0.969593
0.963805
0.956429
0.947081
0.935553
0.922233
0.90878
0.898495
0.895157
0.900271
0.911596
0.925253
0.938271
0.949327
0.958217
0.965214
0.970707
0.975053
0.97854
0.981391
0.983772
0.985802
0.987562
0.989107
0.990473
0.991677
0.992735
0.993653
0.994435
0.995083
0.995598
0.99598
0.996229
0.996345
0.996326
0.996173
0.995887
0.995468
0.994916
0.994231
0.993411
0.992455
0.991357
0.990109
0.988696
0.987096
0.985267
0.983149
0.98065
0.977641
0.973941
0.969307
0.963434
0.955949
0.946473
0.934816
0.921423
0.908049
0.898075
0.895231
0.900804
0.912373
0.926054
0.938976
0.9499
0.958665
0.96556
0.970975
0.97526
0.978702
0.981519
0.983874
0.985885
0.987629
0.989162
0.990518
0.991715
0.992766
0.993679
0.994457
0.995102
0.995614
0.995995
0.996243
0.996358
0.996548
0.996388
0.996088
0.99565
0.995072
0.994353
0.993491
0.992484
0.991327
0.990012
0.988526
0.986849
0.984948
0.982772
0.980242
0.977245
0.973627
0.969189
0.963693
0.95687
0.948494
0.938545
0.92752
0.916848
0.908965
0.906453
0.910316
0.919055
0.929988
0.940864
0.95049
0.958514
0.965026
0.97027
0.97451
0.977979
0.980864
0.98331
0.985422
0.987271
0.988904
0.99035
0.991628
0.992749
0.99372
0.994546
0.995229
0.99577
0.996172
0.996433
0.996555
0.996535
0.996375
0.996074
0.995634
0.995053
0.994331
0.993465
0.992452
0.991288
0.989965
0.988469
0.98678
0.984863
0.982666
0.98011
0.977079
0.973416
0.968922
0.963352
0.956441
0.947968
0.937932
0.926875
0.916287
0.908652
0.906508
0.910716
0.919656
0.930635
0.941457
0.95099
0.958918
0.965345
0.970521
0.974708
0.978135
0.980988
0.983409
0.985503
0.987337
0.988958
0.990395
0.991665
0.992779
0.993746
0.994567
0.995247
0.995786
0.996186
0.996446
0.996567
0.996758
0.996592
0.996281
0.995827
0.995226
0.994479
0.993581
0.992529
0.991318
0.989939
0.988382
0.986628
0.984649
0.982405
0.97983
0.976824
0.97326
0.96898
0.963804
0.957554
0.950125
0.941617
0.932555
0.924112
0.918064
0.916167
0.919094
0.925841
0.934562
0.943581
0.951882
0.959053
0.965056
0.970022
0.974132
0.977563
0.980466
0.982964
0.985146
0.987073
0.988782
0.990297
0.991636
0.992809
0.993822
0.994682
0.995391
0.995953
0.996369
0.996641
0.996767
0.996746
0.99658
0.996268
0.995811
0.995209
0.994458
0.993556
0.992499
0.991281
0.989894
0.988326
0.98656
0.984566
0.982303
0.979703
0.976667
0.973063
0.968734
0.963497
0.957178
0.949677
0.941114
0.932045
0.923685
0.917831
0.916208
0.919394
0.926304
0.935078
0.944074
0.952312
0.959411
0.965347
0.970255
0.974318
0.977712
0.980586
0.98306
0.985225
0.987138
0.988835
0.990341
0.991672
0.992838
0.993846
0.994702
0.995408
0.995968
0.996382
0.996653
0.996778
0.996975
0.996805
0.996488
0.996024
0.995411
0.994647
0.993728
0.992649
0.991404
0.989983
0.988377
0.986571
0.984541
0.98226
0.979669
0.976691
0.973223
0.969147
0.96434
0.958701
0.952213
0.945045
0.937692
0.931077
0.926466
0.925041
0.92725
0.932422
0.939306
0.946688
0.953738
0.960048
0.965501
0.97014
0.974074
0.977426
0.980314
0.982832
0.985056
0.987034
0.988794
0.990356
0.991734
0.992938
0.993977
0.994856
0.99558
0.996154
0.996579
0.996856
0.996985
0.996964
0.996794
0.996476
0.99601
0.995394
0.994627
0.993704
0.99262
0.991368
0.98994
0.988324
0.986506
0.984462
0.982162
0.97955
0.976544
0.973042
0.968925
0.964069
0.958377
0.95184
0.94464
0.937296
0.930755
0.926294
0.925071
0.927472
0.932774
0.939712
0.947088
0.9541
0.960358
0.965759
0.970351
0.974245
0.977566
0.980427
0.982924
0.985132
0.987096
0.988845
0.990397
0.991768
0.992966
0.994
0.994875
0.995596
0.996168
0.996591
0.996867
0.996995
0.9972
0.99703
0.996712
0.996247
0.995634
0.994869
0.993948
0.992865
0.991613
0.990184
0.988566
0.986747
0.984712
0.98244
0.979888
0.976994
0.973685
0.969882
0.965511
0.960533
0.954992
0.949082
0.943232
0.938138
0.934674
0.933617
0.935262
0.93917
0.944509
0.950428
0.956289
0.96172
0.966566
0.97081
0.974499
0.977712
0.980527
0.983014
0.985232
0.987217
0.988988
0.990561
0.991948
0.993157
0.994199
0.99508
0.995805
0.996379
0.996804
0.997082
0.997212
0.997191
0.99702
0.996701
0.996234
0.995619
0.994851
0.993926
0.992838
0.99158
0.990143
0.988516
0.986686
0.984637
0.98235
0.979778
0.976861
0.973524
0.969687
0.965279
0.960264
0.95469
0.948765
0.942932
0.937901
0.93455
0.933639
0.935424
0.939431
0.944819
0.950744
0.956584
0.96198
0.966789
0.970996
0.974654
0.977839
0.980631
0.9831
0.985303
0.987276
0.989037
0.990601
0.99198
0.993184
0.994221
0.995097
0.995819
0.996391
0.996815
0.997092
0.997221
0.997436
0.997268
0.996956
0.9965
0.9959
0.995152
0.994252
0.993194
0.991969
0.990571
0.988989
0.987213
0.985233
0.983039
0.980597
0.977867
0.974801
0.971355
0.967497
0.963234
0.958641
0.953909
0.949382
0.945557
0.943013
0.942246
0.943446
0.94633
0.950366
0.954982
0.959712
0.964248
0.968428
0.972196
0.975558
0.978547
0.981212
0.983597
0.985742
0.987675
0.989405
0.990942
0.992298
0.993481
0.994499
0.995359
0.996068
0.99663
0.997047
0.997321
0.997448
0.997428
0.997259
0.996946
0.996489
0.995886
0.995136
0.994232
0.993169
0.991939
0.990533
0.988943
0.987157
0.985165
0.982957
0.980499
0.977749
0.974661
0.97119
0.967305
0.963017
0.958406
0.95367
0.949162
0.945387
0.942925
0.942261
0.94356
0.946517
0.950595
0.955224
0.959944
0.964459
0.968613
0.972355
0.975692
0.97866
0.981305
0.983675
0.985807
0.987729
0.989449
0.990979
0.992328
0.993505
0.994518
0.995375
0.996082
0.996642
0.997057
0.997329
0.997457
0.997682
0.99752
0.997221
0.996785
0.996212
0.9955
0.994645
0.993642
0.992483
0.991161
0.98967
0.988
0.986148
0.98411
0.981865
0.979388
0.976658
0.973656
0.970383
0.966873
0.963211
0.959562
0.95618
0.953402
0.951591
0.951051
0.9519
0.953963
0.956914
0.960388
0.964063
0.967706
0.971173
0.97439
0.977333
0.980008
0.982432
0.984631
0.986627
0.988437
0.990064
0.991514
0.992795
0.993915
0.99488
0.995698
0.996373
0.99691
0.997309
0.997571
0.997694
0.997674
0.997512
0.997212
0.996775
0.9962
0.995485
0.994627
0.993619
0.992455
0.991128
0.989629
0.987951
0.986088
0.984039
0.981781
0.979289
0.976541
0.973522
0.970232
0.966706
0.963036
0.959389
0.956026
0.953285
0.951532
0.951061
0.951978
0.954093
0.957077
0.960563
0.964238
0.96787
0.971321
0.97452
0.977445
0.980103
0.982513
0.984699
0.986684
0.988484
0.990103
0.991546
0.992822
0.993936
0.994898
0.995713
0.996385
0.99692
0.997318
0.997579
0.997702
0.997937
0.997786
0.997506
0.9971
0.99657
0.995913
0.995127
0.994208
0.993152
0.991952
0.990605
0.989105
0.987451
0.985647
0.98368
0.981543
0.979228
0.97674
0.974097
0.971343
0.968558
0.965868
0.963448
0.961509
0.960267
0.959901
0.96048
0.961901
0.963973
0.966476
0.969205
0.971996
0.974735
0.977349
0.979801
0.982078
0.984179
0.98611
0.98788
0.989498
0.990961
0.992273
0.993437
0.994458
0.995343
0.996095
0.996719
0.997217
0.997589
0.997834
0.99795
0.997931
0.997779
0.997498
0.997091
0.996559
0.995899
0.995111
0.994188
0.993128
0.991923
0.990569
0.989063
0.987401
0.985588
0.983611
0.981462
0.979136
0.976637
0.973983
0.971222
0.968434
0.965749
0.963344
0.961432
0.960229
0.959908
0.960531
0.961987
0.964083
0.966598
0.96933
0.972117
0.974847
0.97745
0.979891
0.982156
0.984246
0.986167
0.987929
0.989539
0.990995
0.992301
0.99346
0.994477
0.995358
0.996108
0.99673
0.997226
0.997597
0.997841
0.997956
0.998201
0.998063
0.99781
0.997444
0.996969
0.996383
0.995688
0.99488
0.993958
0.992919
0.99176
0.99048
0.989082
0.987571
0.985943
0.984201
0.98235
0.980405
0.978389
0.976346
0.974338
0.972454
0.970803
0.969509
0.968694
0.968455
0.968834
0.969771
0.971161
0.972879
0.974804
0.97683
0.978875
0.98088
0.982809
0.984638
0.986356
0.987958
0.989445
0.990816
0.992066
0.993196
0.994207
0.9951
0.995879
0.996546
0.997103
0.99755
0.997885
0.998108
0.998213
0.998196
0.998057
0.997803
0.997437
0.996959
0.996372
0.995674
0.994864
0.993938
0.992895
0.991731
0.990446
0.989042
0.987524
0.985889
0.98414
0.982282
0.980329
0.978308
0.976262
0.974255
0.972376
0.970736
0.969461
0.96867
0.968459
0.968866
0.969826
0.971232
0.97296
0.974889
0.976914
0.978955
0.980955
0.982876
0.984698
0.986409
0.988004
0.989484
0.990849
0.992095
0.99322
0.994226
0.995116
0.995892
0.996557
0.997112
0.997557
0.997892
0.998113
0.998218
0.998472
0.998351
0.99813
0.997813
0.997403
0.996903
0.996314
0.995637
0.994871
0.994017
0.993074
0.992045
0.990933
0.989742
0.988478
0.987147
0.985759
0.984332
0.982889
0.981463
0.980097
0.978848
0.977778
0.976955
0.976444
0.976295
0.976532
0.977122
0.97801
0.979129
0.980413
0.9818
0.983236
0.98468
0.986102
0.98748
0.988798
0.990047
0.99122
0.992314
0.993323
0.994244
0.995077
0.995821
0.996476
0.997042
0.997519
0.997904
0.998196
0.99839
0.998482
0.998467
0.998346
0.998124
0.997806
0.997396
0.996894
0.996303
0.995623
0.994855
0.993998
0.993052
0.992019
0.990902
0.989707
0.988438
0.987102
0.985711
0.98428
0.982834
0.981407
0.980044
0.978799
0.977737
0.976926
0.976429
0.976298
0.976551
0.977155
0.978053
0.97918
0.980468
0.981856
0.983291
0.984732
0.98615
0.987523
0.988837
0.990081
0.99125
0.99234
0.993345
0.994263
0.995093
0.995834
0.996487
0.997051
0.997526
0.99791
0.998201
0.998395
0.998487
0.998747
0.998646
0.998462
0.9982
0.997864
0.997459
0.996986
0.996449
0.99585
0.99519
0.994471
0.993697
0.99287
0.991995
0.991079
0.990131
0.989162
0.988186
0.98722
0.986287
0.985415
0.984633
0.983977
0.98348
0.983175
0.983086
0.983228
0.983581
0.984119
0.984809
0.985616
0.986507
0.987451
0.988423
0.989401
0.990367
0.99131
0.992218
0.993082
0.993898
0.99466
0.995365
0.996011
0.996595
0.997116
0.997572
0.997959
0.998276
0.998517
0.998679
0.998756
0.998744
0.998642
0.998458
0.998195
0.997859
0.997452
0.996978
0.996439
0.995838
0.995175
0.994454
0.993677
0.992848
0.99197
0.991051
0.990101
0.989129
0.988152
0.987185
0.986253
0.985382
0.984604
0.983953
0.983463
0.983166
0.983088
0.983239
0.9836
0.984145
0.984839
0.98565
0.986542
0.987486
0.988457
0.989433
0.990397
0.991337
0.992242
0.993104
0.993917
0.994676
0.995379
0.996023
0.996605
0.997124
0.997578
0.997965
0.998281
0.998521
0.998683
0.99876
0.999026
0.998947
0.998803
0.9986
0.998343
0.998035
0.997682
0.997286
0.99685
0.996378
0.995872
0.995334
0.994768
0.994175
0.993563
0.99294
0.992316
0.991698
0.9911
0.990533
0.990014
0.989556
0.989179
0.988896
0.988724
0.988675
0.988754
0.988954
0.989261
0.989659
0.990133
0.990666
0.991243
0.991848
0.992469
0.993095
0.993716
0.994325
0.994913
0.995473
0.996004
0.996503
0.996967
0.997393
0.997778
0.99812
0.998415
0.998658
0.998846
0.998973
0.999033
0.999023
0.998944
0.9988
0.998596
0.998338
0.99803
0.997676
0.997279
0.996842
0.996368
0.99586
0.995321
0.994753
0.994158
0.993545
0.992921
0.992295
0.991677
0.991079
0.990513
0.989995
0.98954
0.989166
0.988887
0.98872
0.988676
0.98876
0.988964
0.989275
0.989676
0.990152
0.990687
0.991264
0.991869
0.992489
0.993114
0.993734
0.994341
0.994927
0.995486
0.996016
0.996513
0.996975
0.9974
0.997785
0.998125
0.998419
0.998662
0.998849
0.998975
0.999036
0.999306
0.999249
0.999148
0.999005
0.998827
0.998617
0.998378
0.998116
0.997831
0.997528
0.997209
0.996875
0.996527
0.996167
0.9958
0.995433
0.99507
0.994719
0.994384
0.994072
0.99379
0.993547
0.993348
0.9932
0.993111
0.993086
0.993127
0.99323
0.993391
0.993601
0.993855
0.994145
0.994463
0.994803
0.995159
0.995524
0.995892
0.996258
0.996616
0.996961
0.997292
0.997608
0.997907
0.998186
0.998443
0.998675
0.998877
0.999046
0.999178
0.999268
0.999311
0.999304
0.999247
0.999145
0.999003
0.998824
0.998613
0.998374
0.998111
0.997826
0.997522
0.997202
0.996867
0.996518
0.996157
0.99579
0.995422
0.995059
0.994707
0.994372
0.994061
0.993781
0.993538
0.993341
0.993196
0.993109
0.993086
0.99313
0.993236
0.993398
0.99361
0.993865
0.994156
0.994475
0.994815
0.99517
0.995535
0.995902
0.996268
0.996625
0.996969
0.997299
0.997614
0.997912
0.998191
0.998447
0.998678
0.99888
0.999049
0.99918
0.99927
0.999313
0.999585
0.999552
0.999492
0.999409
0.999307
0.999188
0.999055
0.998911
0.998759
0.998599
0.998433
0.998263
0.998087
0.997906
0.997724
0.997544
0.99737
0.997203
0.997046
0.996902
0.996774
0.996665
0.996576
0.996511
0.996472
0.996461
0.996479
0.996525
0.996596
0.996689
0.996804
0.996936
0.997083
0.997243
0.997412
0.997588
0.997769
0.997952
0.998132
0.998306
0.998476
0.99864
0.998799
0.99895
0.999091
0.99922
0.999335
0.999433
0.99951
0.999562
0.999588
0.999584
0.99955
0.999491
0.999408
0.999305
0.999186
0.999053
0.998909
0.998756
0.998595
0.99843
0.998259
0.998083
0.997901
0.997719
0.997539
0.997364
0.997197
0.997041
0.996897
0.99677
0.996661
0.996573
0.996509
0.996471
0.996461
0.996481
0.996527
0.996599
0.996693
0.996808
0.996941
0.997088
0.997248
0.997417
0.997594
0.997774
0.997956
0.998136
0.99831
0.99848
0.998644
0.998802
0.998952
0.999093
0.999222
0.999337
0.999434
0.999511
0.999564
0.999589
0.999862
0.999851
0.999832
0.999805
0.999773
0.999736
0.999695
0.999652
0.999608
0.999562
0.999515
0.999468
0.99942
0.99937
0.999319
0.99927
0.999223
0.999179
0.999138
0.9991
0.999067
0.99904
0.999017
0.999001
0.998991
0.998988
0.998993
0.999004
0.999022
0.999046
0.999075
0.999109
0.999147
0.999189
0.999235
0.999282
0.999332
0.999382
0.999432
0.99948
0.999527
0.999574
0.999619
0.999664
0.999706
0.999746
0.999782
0.999813
0.999837
0.999854
0.999863
0.999861
0.99985
0.999831
0.999805
0.999772
0.999735
0.999695
0.999652
0.999607
0.999561
0.999514
0.999467
0.999419
0.999368
0.999318
0.999269
0.999222
0.999177
0.999136
0.999099
0.999066
0.999039
0.999016
0.999
0.998991
0.998988
0.998993
0.999005
0.999023
0.999047
0.999076
0.99911
0.999149
0.999191
0.999236
0.999284
0.999333
0.999383
0.999433
0.999481
0.999528
0.999575
0.99962
0.999665
0.999707
0.999747
0.999782
0.999813
0.999838
0.999855
0.999863
)
;

boundaryField
{
    top
    {
        type            calculated;
        value           uniform 1;
    }
    bottom
    {
        type            calculated;
        value           uniform 0.148957;
    }
    frontAndBack
    {
        type            empty;
    }
    left_cyc
    {
        type            cyclic;
    }
    right_cyc
    {
        type            cyclic;
    }
}


// ************************************************************************* //
