/*--------------------------------*- C++ -*----------------------------------*\
| =========                 |                                                 |
| \\      /  F ield         | OpenFOAM: The Open Source CFD Toolbox           |
|  \\    /   O peration     | Version:  2.3.0                                 |
|   \\  /    A nd           | Web:      www.OpenFOAM.org                      |
|    \\/     M anipulation  |                                                 |
\*---------------------------------------------------------------------------*/
FoamFile
{
    version     2.0;
    format      ascii;
    class       volScalarField;
    location    "21000";
    object      NUEff;
}
// * * * * * * * * * * * * * * * * * * * * * * * * * * * * * * * * * * * * * //

dimensions      [0 2 -1 0 0 0 0];

internalField   nonuniform List<scalar> 
765
(
0.0165279
0.0164885
0.016522
0.0165923
0.0166455
0.0166094
0.0164295
0.0162408
0.0159928
0.0156742
0.0155042
0.0157918
0.016097
0.0163261
0.0165178
0.0166449
0.0166407
0.0165731
0.0165097
0.0164975
0.0165682
0.0166988
0.016872
0.0170902
0.0173655
0.0177183
0.0181803
0.0187966
0.019629
0.0207601
0.0223134
0.0245951
0.0271466
0.0294299
0.0312725
0.0321452
0.0318989
0.0306466
0.0285814
0.0261977
0.0235891
0.0216465
0.0202761
0.0192729
0.0185335
0.017984
0.0175692
0.0172497
0.0169984
0.0167984
0.0166409
0.0233177
0.0230625
0.0229646
0.0229555
0.0229157
0.0226788
0.022142
0.0211559
0.0197157
0.0181008
0.0173477
0.0186436
0.0202574
0.021545
0.0223475
0.022824
0.0229748
0.0229866
0.0230156
0.0231635
0.0234826
0.0240595
0.0248595
0.0258841
0.0271779
0.028833
0.0310241
0.0341066
0.0388719
0.0473253
0.0641899
0.0963634
0.160998
0.319162
0.589675
0.717201
0.686609
0.486645
0.238564
0.129464
0.0816289
0.0559688
0.043337
0.0367215
0.0327586
0.0300854
0.0281316
0.0266315
0.0254493
0.0245132
0.0237936
0.0331399
0.0322429
0.0315826
0.0310599
0.0305332
0.0297913
0.0285353
0.0262287
0.0231162
0.0200289
0.0187304
0.0210245
0.024273
0.0271954
0.0291602
0.0301572
0.0307931
0.0313039
0.0318687
0.0326124
0.0336234
0.0349617
0.0368464
0.0393897
0.0427525
0.0472786
0.0535385
0.0627053
0.0775066
0.104899
0.173721
0.43758
0.806542
0.906424
0.938781
0.949875
0.94714
0.929544
0.880636
0.705121
0.285305
0.136528
0.0914375
0.0705736
0.0585673
0.0507779
0.0453018
0.0412928
0.0382806
0.0359993
0.034341
0.0406424
0.03907
0.0377376
0.0366012
0.0355987
0.0345458
0.0328162
0.029703
0.0254506
0.0213522
0.0197147
0.0226457
0.0270322
0.0310185
0.0336499
0.0350027
0.0360008
0.0370457
0.0382553
0.0396783
0.0413597
0.0433527
0.0457251
0.0485871
0.0520491
0.0562382
0.0616103
0.0692403
0.0817329
0.106674
0.175902
0.489965
0.851026
0.930968
0.956549
0.965204
0.963129
0.949334
0.910638
0.766324
0.303125
0.137587
0.0941079
0.0757883
0.0657646
0.0592482
0.0544473
0.0505766
0.0473658
0.0447196
0.0425051
0.0407334
0.0393113
0.0380099
0.0369027
0.0360349
0.0352516
0.033855
0.0309952
0.0265573
0.022112
0.0203703
0.0235024
0.0282431
0.0322455
0.0345074
0.0355819
0.0363421
0.0372937
0.0384807
0.0398364
0.041291
0.0427972
0.044333
0.0459065
0.0475736
0.0494946
0.052047
0.0560179
0.0631224
0.0778159
0.116428
0.293529
0.817794
0.932352
0.961243
0.970188
0.968127
0.953526
0.907168
0.663151
0.183349
0.0958216
0.0705463
0.05975
0.0541978
0.050927
0.0486942
0.0469076
0.0452931
0.0437424
0.0422208
0.0370799
0.0361055
0.0352098
0.0345125
0.0340865
0.0337429
0.0330035
0.0307741
0.0267016
0.0224318
0.0207776
0.0237567
0.0282814
0.0318116
0.0333987
0.0338848
0.034211
0.0347321
0.0355107
0.0364461
0.0374209
0.0383463
0.0391763
0.0399165
0.0406389
0.0415139
0.0428682
0.0453022
0.0500022
0.0597866
0.0839253
0.178483
0.75004
0.93044
0.963908
0.97336
0.971251
0.955468
0.897841
0.47384
0.122399
0.0715875
0.0550943
0.0478179
0.0441993
0.0422813
0.0411662
0.0403805
0.0396673
0.0388992
0.0380318
0.0333783
0.0327627
0.0322559
0.031955
0.0318901
0.0318729
0.0314126
0.0295766
0.026185
0.0225505
0.0210846
0.0236776
0.0274878
0.0304245
0.0316986
0.0318641
0.0318876
0.0320289
0.0324087
0.0329628
0.0335892
0.0341972
0.0347298
0.0351783
0.0355996
0.0361427
0.0370918
0.0389464
0.0426348
0.0502397
0.0682279
0.131779
0.666639
0.929532
0.966445
0.976171
0.974044
0.957554
0.890012
0.32901
0.0953627
0.059265
0.0466736
0.0409565
0.0381227
0.0366912
0.0359409
0.0354689
0.0350489
0.0345707
0.0340046
0.0305954
0.0302458
0.0300163
0.0299245
0.0298959
0.0298651
0.0293914
0.0279629
0.0254393
0.0226132
0.0213581
0.0234959
0.0263964
0.0285897
0.0296421
0.0299005
0.0299064
0.0299378
0.0300734
0.0303468
0.0307238
0.0311478
0.0315685
0.0319641
0.0323643
0.0328851
0.0337747
0.0354789
0.0387998
0.0454803
0.0608402
0.11229
0.60619
0.931035
0.969181
0.978896
0.976783
0.960233
0.887823
0.265166
0.083154
0.0532384
0.0423875
0.0373195
0.0347429
0.033413
0.0326992
0.032242
0.0318492
0.0314418
0.0310125
0.0287335
0.028495
0.0283235
0.0282065
0.0281272
0.0279664
0.0274932
0.0264362
0.0246817
0.0226344
0.0216054
0.0232708
0.0253304
0.0268685
0.0277013
0.0280372
0.0281478
0.028235
0.0283672
0.0285583
0.0288183
0.0291404
0.0295127
0.0299342
0.0304357
0.0311151
0.0321861
0.0340471
0.0374278
0.0439322
0.0585645
0.107871
0.619285
0.936216
0.972298
0.981625
0.979575
0.96383
0.895613
0.260852
0.0798938
0.051385
0.0409781
0.0359632
0.0332714
0.031764
0.0308692
0.0302695
0.0298011
0.0293958
0.0290377
0.0275871
0.0272954
0.027057
0.0268578
0.0266629
0.0264035
0.0259646
0.0252017
0.0240312
0.0226349
0.021836
0.0230538
0.0244414
0.0254845
0.0261254
0.0264886
0.0267154
0.0269061
0.0271147
0.02737
0.0276807
0.0280522
0.0284948
0.0290335
0.0297202
0.0306669
0.0320935
0.0344015
0.0383385
0.0456219
0.0620261
0.122134
0.727805
0.945618
0.976014
0.984429
0.982539
0.968638
0.914409
0.35245
0.0875758
0.0540412
0.0423858
0.036684
0.0334697
0.0315438
0.0303229
0.0294855
0.0288583
0.0283554
0.0279379
0.0275146
0.0270222
0.0265871
0.0261951
0.0258257
0.0254443
0.0249939
0.0243996
0.0236066
0.0226865
0.0221022
0.0229384
0.0238553
0.0245878
0.0251287
0.0255494
0.0259221
0.0262963
0.0267009
0.0271538
0.0276683
0.0282583
0.0289422
0.0297828
0.0308521
0.0323021
0.034413
0.0376919
0.043107
0.0530664
0.0770743
0.191729
0.851385
0.957527
0.980218
0.987284
0.985649
0.974376
0.937776
0.660963
0.121406
0.0651488
0.0486771
0.0408782
0.0363982
0.0336157
0.0317805
0.0304866
0.0295086
0.0287279
0.0280777
0.0298254
0.0288398
0.0279693
0.0271878
0.0264753
0.025813
0.0251767
0.0245341
0.0238592
0.0231825
0.0227544
0.0233399
0.0240373
0.024706
0.0253457
0.0259889
0.0266663
0.0274001
0.0282087
0.029114
0.0301447
0.031337
0.0327282
0.0343476
0.0363819
0.0390882
0.0429497
0.0489315
0.0591456
0.0798573
0.14545
0.637288
0.925756
0.969815
0.984747
0.990163
0.988862
0.980598
0.959082
0.882428
0.339332
0.10977
0.0704604
0.0549257
0.0465895
0.0415098
0.0381227
0.0356832
0.0338062
0.0322791
0.0309597
0.0403106
0.0376943
0.0354981
0.0336075
0.0319489
0.0304783
0.0291712
0.0280145
0.0270088
0.0261951
0.0257752
0.0263631
0.0272524
0.0283122
0.0295193
0.030879
0.0324077
0.0341355
0.0361148
0.0384317
0.0412165
0.0446449
0.0489143
0.0542115
0.0607979
0.0701112
0.0843544
0.109441
0.166469
0.372049
0.796928
0.924624
0.963884
0.980928
0.989395
0.993035
0.992121
0.986841
0.975881
0.953226
0.895807
0.678148
0.263393
0.140364
0.0991685
0.0789317
0.0667514
0.0585199
0.0524263
0.0474802
0.0435081
0.152251
0.119046
0.0979887
0.0834643
0.0728437
0.0647734
0.0585067
0.0536195
0.0498947
0.0473192
0.0462891
0.0478393
0.0507832
0.0548607
0.0601483
0.0669196
0.0756812
0.0873281
0.103514
0.127546
0.166728
0.238699
0.381164
0.59626
0.758135
0.839376
0.885167
0.914912
0.936199
0.952685
0.965947
0.976434
0.984354
0.990057
0.993886
0.995845
0.99533
0.992638
0.98814
0.981681
0.972892
0.961532
0.947356
0.929604
0.90613
0.872186
0.818083
0.716213
0.526809
0.325842
0.210848
0.982512
0.980822
0.978999
0.977017
0.974859
0.972529
0.970067
0.96758
0.965275
0.963493
0.962805
0.963878
0.965871
0.968278
0.970791
0.973235
0.975525
0.977636
0.979573
0.981358
0.983015
0.984553
0.985962
0.987232
0.988383
0.989423
0.99034
0.991159
0.991959
0.992803
0.993736
0.994769
0.995871
0.996967
0.997927
0.998518
0.998354
0.99759
0.996563
0.995459
0.994383
0.993393
0.992503
0.991687
0.990893
0.990057
0.989094
0.988022
0.98684
0.985531
0.984083
)
;

boundaryField
{
    top
    {
        type            calculated;
        value           uniform 1;
    }
    bottom
    {
        type            calculated;
        value           uniform 0.0143123;
    }
    frontAndBack
    {
        type            empty;
    }
    left_cyc
    {
        type            cyclic;
    }
    right_cyc
    {
        type            cyclic;
    }
}


// ************************************************************************* //
