/*--------------------------------*- C++ -*----------------------------------*\
| =========                 |                                                 |
| \\      /  F ield         | OpenFOAM: The Open Source CFD Toolbox           |
|  \\    /   O peration     | Version:  2.3.0                                 |
|   \\  /    A nd           | Web:      www.OpenFOAM.org                      |
|    \\/     M anipulation  |                                                 |
\*---------------------------------------------------------------------------*/
FoamFile
{
    version     2.0;
    format      ascii;
    class       volScalarField;
    location    "21000";
    object      NUEff;
}
// * * * * * * * * * * * * * * * * * * * * * * * * * * * * * * * * * * * * * //

dimensions      [0 2 -1 0 0 0 0];

internalField   nonuniform List<scalar> 
3060
(
0.186895
0.186319
0.185258
0.183789
0.182004
0.180007
0.177903
0.175791
0.173753
0.171852
0.170128
0.168478
0.166875
0.165321
0.163818
0.162353
0.160925
0.159545
0.158231
0.157007
0.155899
0.154933
0.154133
0.153529
0.153148
0.153016
0.153149
0.153532
0.154138
0.154939
0.155907
0.157017
0.158242
0.159559
0.160942
0.162372
0.163842
0.165351
0.166911
0.168519
0.170172
0.171899
0.17381
0.175844
0.177944
0.180027
0.181995
0.183741
0.185164
0.186173
0.186692
0.186663
0.18609
0.185035
0.183574
0.1818
0.179816
0.177727
0.175631
0.173609
0.171719
0.170002
0.168354
0.166751
0.165197
0.163693
0.162227
0.160801
0.159423
0.158115
0.156899
0.155803
0.15485
0.154067
0.153483
0.153124
0.153018
0.153176
0.153581
0.154206
0.155024
0.156006
0.157126
0.15836
0.159682
0.161067
0.162499
0.163968
0.165477
0.167036
0.168645
0.1703
0.172035
0.17396
0.176009
0.178125
0.180223
0.182203
0.183959
0.18539
0.186404
0.186925
0.849354
0.844669
0.835187
0.819945
0.797257
0.764595
0.718777
0.657288
0.581609
0.499993
0.423769
0.361667
0.314094
0.278718
0.252161
0.231608
0.21539
0.202447
0.192078
0.183793
0.177213
0.172063
0.168155
0.165382
0.163702
0.163131
0.163709
0.165395
0.168176
0.172093
0.177255
0.183851
0.19216
0.202563
0.215558
0.231857
0.252542
0.279319
0.315081
0.363109
0.425704
0.502201
0.583457
0.658561
0.719401
0.764657
0.796876
0.819206
0.834128
0.843287
0.847603
0.847368
0.842581
0.83289
0.817303
0.794096
0.760703
0.71395
0.651499
0.575268
0.493913
0.41864
0.357611
0.310941
0.276283
0.250228
0.230048
0.214121
0.201412
0.191238
0.183115
0.176673
0.171643
0.167845
0.165175
0.163599
0.163137
0.163823
0.165613
0.168499
0.172526
0.17781
0.184547
0.193022
0.203625
0.216862
0.233465
0.254545
0.281858
0.318366
0.367334
0.431028
0.508445
0.589883
0.66436
0.724204
0.768521
0.800016
0.821834
0.836417
0.845369
0.849588
0.96145
0.960796
0.959518
0.95758
0.954911
0.951406
0.946919
0.941234
0.934019
0.924714
0.91234
0.895182
0.869972
0.82994
0.763633
0.651704
0.499487
0.370607
0.292179
0.246767
0.219096
0.201356
0.189711
0.18223
0.177966
0.176553
0.177982
0.182263
0.189766
0.201446
0.219247
0.247034
0.292686
0.371611
0.501203
0.653517
0.764947
0.830857
0.870571
0.8956
0.912638
0.924925
0.934158
0.941315
0.946949
0.951389
0.954847
0.957471
0.959364
0.960592
0.961191
0.961158
0.960496
0.959204
0.957242
0.954539
0.95099
0.946442
0.940674
0.933339
0.923853
0.911187
0.893536
0.867437
0.825709
0.756176
0.639449
0.486106
0.361597
0.286931
0.24361
0.217088
0.200033
0.18884
0.181693
0.17771
0.176567
0.178266
0.182832
0.190679
0.202829
0.221351
0.25036
0.298248
0.381142
0.514899
0.665412
0.772075
0.834961
0.873026
0.897205
0.913771
0.925777
0.934834
0.941874
0.947426
0.951805
0.955219
0.95781
0.959679
0.960892
0.961483
0.979748
0.979448
0.978868
0.978001
0.97683
0.975329
0.973463
0.971175
0.968382
0.96495
0.960668
0.95519
0.947953
0.937979
0.923548
0.901366
0.863898
0.792748
0.649947
0.452256
0.321938
0.25812
0.225092
0.206972
0.197563
0.194566
0.197593
0.207041
0.225224
0.258383
0.322519
0.453533
0.651467
0.79365
0.864409
0.901692
0.923781
0.938158
0.948085
0.955292
0.960745
0.965007
0.96842
0.971195
0.973465
0.975314
0.976796
0.977947
0.978794
0.979351
0.979625
0.979611
0.979309
0.978723
0.977847
0.976664
0.975149
0.973261
0.970946
0.968115
0.96463
0.960268
0.954671
0.947246
0.936956
0.922009
0.898848
0.859319
0.78341
0.632297
0.436207
0.313814
0.25403
0.222862
0.20575
0.197015
0.194597
0.198204
0.208349
0.227597
0.26276
0.331286
0.470457
0.668442
0.802352
0.868718
0.90409
0.925257
0.939139
0.948775
0.955802
0.96114
0.965326
0.968686
0.971424
0.973667
0.975496
0.976962
0.978101
0.97894
0.979491
0.979762
0.986802
0.986611
0.986241
0.985691
0.984955
0.98402
0.982868
0.981472
0.979788
0.977752
0.975263
0.972167
0.968223
0.963048
0.956
0.946006
0.930978
0.906495
0.861886
0.768516
0.578592
0.384246
0.288227
0.244985
0.225256
0.219328
0.225308
0.245119
0.288535
0.385005
0.579939
0.7694
0.862331
0.906751
0.931145
0.946126
0.956091
0.963119
0.968279
0.972211
0.975298
0.977777
0.979805
0.981479
0.982866
0.984007
0.984932
0.985656
0.986193
0.986549
0.986724
0.986715
0.986522
0.986149
0.985594
0.984851
0.983907
0.982743
0.98133
0.979625
0.977559
0.975028
0.971871
0.967838
0.962527
0.955266
0.944919
0.929255
0.903501
0.855975
0.755332
0.557051
0.371341
0.2825
0.242312
0.224156
0.219389
0.226543
0.248015
0.294752
0.399014
0.601443
0.7816
0.867835
0.90958
0.932792
0.947174
0.956802
0.963627
0.968657
0.972503
0.975531
0.977969
0.979967
0.98162
0.982991
0.984121
0.985036
0.985754
0.986286
0.986638
0.986812
0.990341
0.990195
0.989916
0.989501
0.988949
0.988252
0.987399
0.986371
0.98514
0.983665
0.981882
0.979695
0.976958
0.973448
0.9688
0.962436
0.953343
0.939596
0.917136
0.876179
0.790113
0.607526
0.405457
0.305931
0.265682
0.25441
0.26577
0.306182
0.406109
0.608613
0.790765
0.8765
0.917317
0.939713
0.953426
0.962498
0.968848
0.973485
0.976988
0.979719
0.981901
0.983679
0.985149
0.986374
0.987396
0.988243
0.988933
0.989476
0.989881
0.99015
0.990284
0.990277
0.99013
0.989848
0.98943
0.988873
0.988169
0.987307
0.986267
0.985021
0.983525
0.981712
0.979484
0.97669
0.973094
0.968318
0.961753
0.952327
0.937984
0.914336
0.870663
0.777681
0.585551
0.391715
0.300222
0.263555
0.254523
0.268174
0.312447
0.421052
0.63031
0.802233
0.881636
0.919963
0.941255
0.954405
0.96316
0.969318
0.973831
0.977252
0.979927
0.982069
0.983819
0.985268
0.986478
0.987488
0.988326
0.989009
0.989548
0.989949
0.990216
0.990348
0.992348
0.992225
0.991988
0.991639
0.991175
0.990593
0.989885
0.989037
0.98803
0.986832
0.985396
0.983654
0.981499
0.978772
0.975217
0.970441
0.9638
0.954145
0.939252
0.914335
0.867681
0.768503
0.577249
0.40312
0.326142
0.305554
0.326283
0.403541
0.578067
0.769087
0.867968
0.914491
0.939349
0.954211
0.963847
0.970477
0.975245
0.978794
0.981517
0.983669
0.985409
0.986842
0.988037
0.989041
0.989884
0.990588
0.991164
0.991621
0.991963
0.99219
0.992303
0.992297
0.992173
0.991935
0.991583
0.991115
0.990527
0.989811
0.988954
0.987934
0.986719
0.98526
0.983486
0.981288
0.978497
0.974848
0.96993
0.963065
0.953034
0.937454
0.911139
0.86124
0.754249
0.556576
0.392023
0.3222
0.305757
0.330763
0.415702
0.599028
0.782331
0.873953
0.917502
0.941063
0.955279
0.964558
0.970974
0.975606
0.979064
0.981726
0.983835
0.985544
0.986954
0.988133
0.989124
0.989958
0.990654
0.991225
0.991678
0.992016
0.992242
0.992354
0.99357
0.993457
0.99324
0.99292
0.992497
0.991969
0.991331
0.990573
0.989681
0.988629
0.98738
0.985879
0.984041
0.981738
0.978766
0.974823
0.969434
0.961783
0.950382
0.932266
0.900895
0.8404
0.716741
0.534505
0.414794
0.380464
0.414992
0.535008
0.717272
0.840689
0.901046
0.932354
0.95044
0.961823
0.969463
0.974846
0.978784
0.981752
0.984054
0.98589
0.987391
0.988638
0.989688
0.990579
0.991333
0.991967
0.99249
0.992907
0.99322
0.993429
0.993533
0.993528
0.993414
0.993195
0.992872
0.992446
0.991913
0.991269
0.990503
0.989599
0.988532
0.987264
0.985736
0.983862
0.981506
0.978458
0.974403
0.968841
0.960912
0.94903
0.93001
0.896753
0.831937
0.700316
0.518598
0.408225
0.380804
0.422436
0.551771
0.732961
0.848565
0.904937
0.934497
0.951735
0.962664
0.970039
0.975256
0.979086
0.98198
0.984231
0.986032
0.987506
0.988734
0.98977
0.99065
0.991396
0.992023
0.992541
0.992955
0.993265
0.993473
0.993575
0.994353
0.994242
0.99403
0.993718
0.993307
0.992798
0.992186
0.991466
0.990626
0.989646
0.988496
0.987127
0.985467
0.983405
0.980767
0.977304
0.972628
0.9661
0.956598
0.942015
0.918073
0.875426
0.794444
0.658109
0.528329
0.482339
0.528539
0.658486
0.794731
0.875583
0.918162
0.942069
0.956634
0.966126
0.972647
0.977319
0.98078
0.983415
0.985476
0.987137
0.988506
0.989657
0.990636
0.991474
0.992192
0.9928
0.993305
0.99371
0.994015
0.99422
0.994321
0.994316
0.994205
0.993991
0.993677
0.993263
0.992748
0.992131
0.991403
0.990553
0.98956
0.988392
0.986999
0.985306
0.983199
0.980495
0.976936
0.972116
0.965362
0.955484
0.940235
0.915012
0.869713
0.783591
0.643382
0.519807
0.482814
0.538015
0.673306
0.805001
0.880951
0.92106
0.943769
0.957705
0.96684
0.973145
0.977678
0.981046
0.983618
0.985635
0.987263
0.98861
0.989743
0.990709
0.991538
0.992247
0.99285
0.99335
0.993752
0.994054
0.994257
0.994358
0.994878
0.994765
0.994549
0.99423
0.993813
0.993298
0.992683
0.991966
0.991137
0.99018
0.98907
0.987764
0.986198
0.984271
0.981826
0.978648
0.974402
0.968552
0.960189
0.94769
0.927979
0.894976
0.837293
0.743286
0.639322
0.594836
0.639477
0.743505
0.837451
0.895068
0.928033
0.947723
0.960211
0.968567
0.974414
0.978658
0.981835
0.984279
0.986208
0.987776
0.989083
0.990194
0.99115
0.991978
0.992694
0.993305
0.993816
0.994228
0.994539
0.994748
0.994851
0.994846
0.994732
0.994514
0.994194
0.993773
0.993253
0.992633
0.991908
0.99107
0.990101
0.988974
0.987647
0.98605
0.984081
0.981577
0.978312
0.973939
0.967894
0.959218
0.946188
0.925523
0.890722
0.829845
0.732608
0.631453
0.595324
0.648041
0.754068
0.844543
0.899101
0.930373
0.949163
0.961147
0.969205
0.974864
0.978986
0.982081
0.984466
0.986354
0.987893
0.989178
0.990273
0.991217
0.992036
0.992744
0.99335
0.993857
0.994265
0.994574
0.994781
0.994884
0.995252
0.995134
0.994906
0.994572
0.994134
0.993595
0.992956
0.992215
0.991366
0.990397
0.989286
0.987995
0.986464
0.9846
0.982259
0.979245
0.975261
0.969836
0.962203
0.951046
0.934034
0.906982
0.86309
0.796741
0.723314
0.68965
0.723404
0.796862
0.86318
0.907037
0.934067
0.951066
0.962216
0.969846
0.975268
0.979252
0.982267
0.984609
0.986475
0.988009
0.989303
0.990416
0.991385
0.992233
0.992972
0.993608
0.994143
0.994574
0.994901
0.99512
0.995228
0.995223
0.995104
0.994875
0.994538
0.994097
0.993554
0.992909
0.992161
0.991303
0.990323
0.989196
0.987884
0.986324
0.98442
0.982023
0.97893
0.97483
0.969232
0.961326
0.949726
0.931962
0.903613
0.857666
0.789355
0.717507
0.690033
0.729668
0.804176
0.868392
0.910257
0.936052
0.952337
0.963064
0.970433
0.975688
0.979561
0.982498
0.984786
0.986614
0.98812
0.989393
0.990491
0.991448
0.992287
0.993019
0.99365
0.99418
0.994608
0.994932
0.99515
0.995258
0.995537
0.995411
0.995168
0.99481
0.994343
0.993767
0.993087
0.992302
0.99141
0.990401
0.989256
0.987941
0.9864
0.984546
0.982246
0.979318
0.975487
0.970333
0.963188
0.95296
0.937832
0.914849
0.879952
0.831221
0.780115
0.756834
0.780164
0.831288
0.880005
0.914882
0.937851
0.952972
0.963196
0.970339
0.975493
0.979325
0.982255
0.984558
0.986415
0.987959
0.989278
0.990426
0.991436
0.992328
0.993111
0.993787
0.994357
0.994818
0.995167
0.995401
0.995516
0.99551
0.995384
0.995139
0.994779
0.994308
0.993729
0.993043
0.992252
0.99135
0.990329
0.989169
0.987833
0.986265
0.984373
0.98202
0.979016
0.975078
0.969765
0.962378
0.951769
0.936029
0.912078
0.875821
0.82601
0.776118
0.757101
0.784479
0.836483
0.88401
0.917549
0.939586
0.954122
0.963982
0.970892
0.975892
0.97962
0.982478
0.984729
0.986549
0.988066
0.989365
0.990497
0.991496
0.992379
0.993155
0.993826
0.994392
0.99485
0.995196
0.995429
0.995543
0.995773
0.995637
0.995376
0.994991
0.994486
0.993866
0.993132
0.992288
0.991333
0.99026
0.989053
0.987683
0.986097
0.984212
0.981906
0.979005
0.975254
0.97027
0.963467
0.953925
0.940217
0.920258
0.89173
0.854741
0.8184
0.802373
0.818429
0.854782
0.891763
0.920279
0.940228
0.953931
0.963471
0.970274
0.975259
0.979013
0.981918
0.984228
0.986118
0.987708
0.989083
0.990293
0.991367
0.992323
0.993164
0.993893
0.994508
0.995004
0.99538
0.99563
0.995754
0.995748
0.995612
0.995349
0.994962
0.994454
0.99383
0.993091
0.99224
0.991275
0.99019
0.988969
0.987578
0.985965
0.984043
0.981685
0.978712
0.97486
0.969729
0.962706
0.952833
0.938622
0.917928
0.888492
0.850957
0.815643
0.802555
0.82142
0.858584
0.894929
0.922536
0.941772
0.954989
0.96421
0.970802
0.975644
0.979299
0.982135
0.984396
0.986249
0.987813
0.989168
0.990363
0.991426
0.992372
0.993207
0.99393
0.99454
0.995034
0.995407
0.995656
0.995779
0.995982
0.995837
0.995556
0.995142
0.994597
0.993925
0.993131
0.992216
0.991183
0.990027
0.988735
0.987283
0.985621
0.983672
0.981321
0.978403
0.974678
0.9698
0.963249
0.954254
0.941703
0.924149
0.900457
0.871749
0.845237
0.833938
0.845262
0.871782
0.900482
0.924163
0.941708
0.954259
0.963252
0.969805
0.974686
0.978414
0.981337
0.983694
0.985649
0.987317
0.988775
0.990069
0.991227
0.99226
0.993171
0.99396
0.994625
0.99516
0.995564
0.995834
0.995966
0.995959
0.995813
0.995531
0.995114
0.994567
0.993891
0.993091
0.992169
0.991127
0.989959
0.988652
0.98718
0.985491
0.983505
0.981104
0.978117
0.974296
0.96928
0.96253
0.953247
0.940277
0.922168
0.897876
0.868939
0.843293
0.834067
0.847381
0.874627
0.903024
0.926094
0.943094
0.955239
0.963952
0.970312
0.97506
0.978695
0.981551
0.983859
0.985779
0.98742
0.988858
0.990138
0.991284
0.992308
0.993212
0.993996
0.994656
0.995188
0.99559
0.995857
0.995989
0.99618
0.996026
0.995725
0.995281
0.994695
0.993971
0.993111
0.99212
0.990998
0.989745
0.988351
0.986794
0.985031
0.982989
0.980563
0.977593
0.973856
0.969041
0.962696
0.954184
0.942663
0.927203
0.907369
0.884723
0.864913
0.856731
0.864934
0.88475
0.907392
0.927217
0.942672
0.95419
0.962702
0.96905
0.973868
0.97761
0.980587
0.98302
0.985069
0.986839
0.988402
0.989799
0.991053
0.992173
0.993161
0.994014
0.99473
0.995305
0.995738
0.996025
0.996166
0.996159
0.996004
0.995702
0.995255
0.994667
0.993938
0.993073
0.992074
0.990943
0.989678
0.988269
0.986692
0.984902
0.982824
0.980349
0.977312
0.973484
0.968542
0.962017
0.953254
0.941394
0.925516
0.905293
0.882595
0.863508
0.856825
0.866474
0.886919
0.909451
0.928871
0.943911
0.955097
0.963365
0.969539
0.974233
0.977886
0.980798
0.983183
0.985197
0.986942
0.988485
0.989867
0.991109
0.99222
0.9932
0.994048
0.994759
0.995332
0.995762
0.996048
0.996188
0.996377
0.996213
0.995894
0.995422
0.994797
0.994022
0.993098
0.992028
0.990815
0.989457
0.987949
0.986271
0.984386
0.98223
0.979708
0.97667
0.972912
0.968151
0.962001
0.953952
0.943391
0.929768
0.913107
0.895061
0.880005
0.873955
0.880025
0.895088
0.913131
0.929787
0.943405
0.953964
0.962013
0.968166
0.972932
0.976696
0.979742
0.982272
0.984436
0.986329
0.988012
0.989524
0.990881
0.992092
0.993156
0.994073
0.994838
0.995451
0.995911
0.996216
0.996365
0.996357
0.996192
0.995872
0.995398
0.99477
0.993991
0.993061
0.991984
0.990761
0.989391
0.987867
0.986169
0.984258
0.982067
0.979497
0.976396
0.972551
0.967673
0.961363
0.9531
0.942266
0.928335
0.911431
0.893432
0.878972
0.874025
0.881164
0.896759
0.914804
0.9312
0.944509
0.954798
0.962638
0.968635
0.973286
0.976967
0.97995
0.982435
0.984564
0.986431
0.988095
0.989591
0.990937
0.992138
0.993195
0.994106
0.994867
0.995476
0.995933
0.996237
0.996385
0.996577
0.996404
0.996069
0.995573
0.994914
0.994094
0.993113
0.991972
0.990672
0.989212
0.987588
0.985784
0.98377
0.981491
0.978862
0.975748
0.971962
0.967258
0.961313
0.953733
0.9441
0.932142
0.918161
0.903722
0.892165
0.887629
0.892185
0.903751
0.91819
0.932168
0.944122
0.953755
0.961336
0.967284
0.971993
0.975786
0.978909
0.981547
0.983835
0.985856
0.987665
0.989291
0.990749
0.992045
0.99318
0.994152
0.994961
0.995607
0.99609
0.99641
0.996566
0.996558
0.996385
0.996049
0.99555
0.994888
0.994064
0.993077
0.991928
0.990619
0.989147
0.987507
0.985683
0.983643
0.981331
0.978657
0.975482
0.971616
0.966805
0.96072
0.952961
0.943112
0.930934
0.916812
0.90247
0.891398
0.887682
0.893035
0.905043
0.919545
0.933366
0.945095
0.954514
0.961918
0.967729
0.972334
0.976049
0.979114
0.981708
0.983962
0.985958
0.987747
0.989358
0.990804
0.99209
0.993217
0.994183
0.994988
0.99563
0.996111
0.996429
0.996585
0.996784
0.996605
0.996258
0.995743
0.995059
0.994204
0.993178
0.991978
0.990605
0.989055
0.987326
0.985403
0.983265
0.980868
0.978136
0.97495
0.971149
0.966523
0.960814
0.953734
0.945024
0.934617
0.922957
0.911428
0.902531
0.899112
0.902552
0.911461
0.922994
0.934653
0.945058
0.953768
0.96085
0.966563
0.971195
0.975005
0.978199
0.98094
0.983346
0.985491
0.987417
0.989147
0.990693
0.992061
0.993252
0.994268
0.99511
0.995781
0.996282
0.996613
0.996775
0.996767
0.996588
0.996239
0.995722
0.995034
0.994176
0.993143
0.991936
0.990553
0.988992
0.987247
0.985305
0.983141
0.980712
0.977937
0.974696
0.970821
0.9661
0.960271
0.953044
0.944169
0.933611
0.921881
0.910469
0.901961
0.899152
0.903187
0.912456
0.924081
0.935656
0.945904
0.954449
0.961386
0.96698
0.97152
0.975257
0.978398
0.981097
0.983471
0.985592
0.987498
0.989213
0.990747
0.992105
0.993288
0.994298
0.995136
0.995803
0.996301
0.996631
0.996793
0.997001
0.996818
0.996464
0.995939
0.995241
0.994366
0.993312
0.992074
0.990649
0.989034
0.987223
0.985207
0.982968
0.980475
0.977665
0.974435
0.970652
0.966148
0.96073
0.954204
0.94644
0.937509
0.927902
0.918777
0.911962
0.909391
0.911985
0.918814
0.927948
0.937557
0.946489
0.954254
0.960783
0.966206
0.970716
0.974507
0.977746
0.980565
0.983065
0.98531
0.987328
0.989137
0.990747
0.992164
0.993392
0.994435
0.995296
0.995981
0.996491
0.996829
0.996994
0.996985
0.996802
0.996447
0.99592
0.995218
0.994339
0.993279
0.992034
0.9906
0.988973
0.987147
0.985111
0.982848
0.980325
0.977475
0.974195
0.970347
0.965762
0.960244
0.953602
0.945717
0.936688
0.927058
0.918052
0.911542
0.909422
0.912456
0.919572
0.928805
0.938379
0.947208
0.954851
0.961265
0.966589
0.971019
0.974746
0.977935
0.980716
0.983187
0.985407
0.987406
0.989201
0.990799
0.992206
0.993427
0.994463
0.99532
0.996001
0.996509
0.996845
0.99701
0.997229
0.997046
0.996691
0.996166
0.995467
0.99459
0.99353
0.992282
0.990838
0.989193
0.987342
0.985275
0.982981
0.980441
0.977602
0.974384
0.970683
0.966375
0.961329
0.955433
0.948657
0.941151
0.933389
0.926286
0.921138
0.919228
0.921162
0.926329
0.933444
0.941212
0.948721
0.955501
0.9614
0.966452
0.970766
0.974475
0.977701
0.980547
0.983093
0.98539
0.987457
0.989304
0.990942
0.992377
0.993614
0.994662
0.995525
0.996209
0.996719
0.997058
0.997224
0.997215
0.997031
0.996675
0.996148
0.995446
0.994565
0.9935
0.992244
0.990791
0.989135
0.987269
0.985184
0.982868
0.9803
0.977426
0.974164
0.970407
0.966031
0.960906
0.954923
0.948064
0.940501
0.932744
0.92575
0.920835
0.919252
0.921506
0.926892
0.934103
0.941867
0.949315
0.956009
0.961821
0.966794
0.971042
0.974696
0.977878
0.980689
0.983209
0.985484
0.987532
0.989365
0.990991
0.992416
0.993647
0.994688
0.995547
0.996228
0.996736
0.997073
0.997238
0.997467
0.997287
0.99694
0.996425
0.995741
0.994883
0.993844
0.992617
0.991195
0.98957
0.987734
0.98568
0.983402
0.98089
0.978104
0.974986
0.971462
0.967454
0.962885
0.957712
0.951971
0.945847
0.939751
0.934364
0.930565
0.929178
0.930591
0.934411
0.939812
0.945919
0.952049
0.957795
0.962973
0.967547
0.971562
0.975092
0.978217
0.981008
0.983524
0.985804
0.987854
0.989685
0.991302
0.992714
0.993929
0.994955
0.995799
0.996469
0.996969
0.997301
0.997464
0.997455
0.997274
0.996926
0.996409
0.995722
0.99486
0.993816
0.992582
0.991152
0.989515
0.987666
0.985596
0.983297
0.980762
0.977946
0.974789
0.971221
0.967159
0.96253
0.957297
0.951504
0.945352
0.939276
0.933981
0.930353
0.929195
0.930833
0.934816
0.940301
0.946422
0.952521
0.958211
0.963327
0.967843
0.971805
0.97529
0.978377
0.981139
0.983631
0.98589
0.987925
0.989741
0.991348
0.992751
0.993959
0.994979
0.99582
0.996487
0.996984
0.997314
0.997477
0.997716
0.997543
0.99721
0.996718
0.996065
0.995247
0.994258
0.99309
0.991735
0.990184
0.988431
0.98647
0.984297
0.981912
0.979286
0.976382
0.973158
0.969573
0.965598
0.961238
0.956567
0.951764
0.947155
0.943214
0.940504
0.939529
0.94053
0.943262
0.94722
0.951842
0.956653
0.961331
0.965697
0.969678
0.973269
0.976498
0.979406
0.982036
0.984423
0.986595
0.988552
0.990298
0.99184
0.993184
0.994341
0.995318
0.996122
0.996761
0.997239
0.997557
0.997714
0.997705
0.997532
0.997197
0.996703
0.996048
0.995226
0.994232
0.993058
0.991695
0.990135
0.988371
0.986395
0.984204
0.981799
0.979148
0.976214
0.972956
0.969332
0.965315
0.960916
0.956216
0.951405
0.946822
0.942952
0.940362
0.939542
0.940694
0.943542
0.947566
0.952209
0.957009
0.961656
0.965982
0.969922
0.973473
0.976668
0.979546
0.982151
0.984518
0.986673
0.988616
0.99035
0.991881
0.993218
0.994368
0.99534
0.996141
0.996777
0.997253
0.997569
0.997725
0.997974
0.997812
0.997501
0.997043
0.996438
0.995682
0.994771
0.993697
0.992455
0.991037
0.989437
0.98765
0.985678
0.983525
0.981175
0.978608
0.97581
0.972767
0.969484
0.965996
0.962384
0.958801
0.955479
0.952723
0.950871
0.950215
0.950895
0.952768
0.955541
0.958877
0.962471
0.96609
0.969585
0.972874
0.975921
0.978724
0.981294
0.983646
0.985799
0.987769
0.989551
0.991144
0.992554
0.993786
0.994849
0.995748
0.996492
0.997085
0.997529
0.997826
0.997973
0.997964
0.997802
0.99749
0.99703
0.996423
0.995664
0.994748
0.99367
0.992421
0.990994
0.989384
0.987586
0.9856
0.983431
0.981061
0.978472
0.975648
0.972579
0.969271
0.96576
0.962136
0.958555
0.955257
0.952554
0.950781
0.950224
0.951002
0.952951
0.955773
0.959131
0.962725
0.96633
0.969802
0.973064
0.976085
0.978863
0.981411
0.983744
0.985881
0.987837
0.989606
0.991189
0.992591
0.993816
0.994873
0.995768
0.996508
0.997098
0.997541
0.997836
0.997983
0.99824
0.998092
0.997811
0.997398
0.996855
0.996181
0.995373
0.994427
0.993338
0.992101
0.990714
0.989174
0.987485
0.985654
0.983676
0.981546
0.979266
0.976844
0.974299
0.971676
0.969048
0.966525
0.964259
0.96243
0.961226
0.960805
0.961246
0.962468
0.964313
0.966592
0.969125
0.971762
0.974392
0.976941
0.979369
0.981652
0.983784
0.985763
0.987593
0.98928
0.990815
0.992196
0.993426
0.994506
0.995443
0.996241
0.996904
0.997436
0.997837
0.998105
0.998239
0.998231
0.998084
0.997801
0.997387
0.996842
0.996165
0.995354
0.994403
0.993309
0.992065
0.99067
0.989121
0.987422
0.985579
0.983586
0.981441
0.979145
0.976706
0.974148
0.971514
0.968882
0.966366
0.96412
0.962326
0.961172
0.960811
0.961311
0.962582
0.96446
0.966757
0.969296
0.971928
0.974546
0.977082
0.979493
0.98176
0.983876
0.985842
0.98766
0.989336
0.990861
0.992234
0.993457
0.994531
0.995464
0.996258
0.996918
0.997448
0.997847
0.998114
0.998247
0.998511
0.998381
0.998136
0.997778
0.99731
0.996734
0.996048
0.995253
0.994346
0.993325
0.992191
0.990944
0.989589
0.988133
0.98658
0.984934
0.983205
0.98141
0.979573
0.977733
0.975943
0.974276
0.972819
0.971671
0.970928
0.970671
0.970943
0.971699
0.97286
0.974328
0.976004
0.977802
0.979649
0.981491
0.98329
0.985021
0.986669
0.988223
0.989677
0.991031
0.992275
0.993405
0.99442
0.99532
0.996108
0.996785
0.997353
0.997811
0.998159
0.998393
0.99851
0.998504
0.998374
0.998128
0.997769
0.997299
0.996721
0.996033
0.995234
0.994322
0.993297
0.992156
0.990902
0.98954
0.988076
0.986513
0.984858
0.98312
0.981316
0.979472
0.977628
0.975839
0.974179
0.972736
0.97161
0.970897
0.970675
0.970981
0.971766
0.972948
0.974429
0.976112
0.97791
0.979753
0.981588
0.983378
0.9851
0.986738
0.988283
0.989729
0.991075
0.992312
0.993436
0.994445
0.995341
0.996125
0.996799
0.997364
0.997821
0.998167
0.998401
0.998517
0.998785
0.998677
0.998472
0.998176
0.997793
0.997325
0.996775
0.996143
0.995432
0.994642
0.993775
0.992833
0.991822
0.990748
0.989617
0.98844
0.987228
0.985997
0.984768
0.983568
0.982431
0.9814
0.980519
0.979839
0.979405
0.979256
0.979415
0.979858
0.980548
0.981436
0.982475
0.983618
0.984823
0.986056
0.987291
0.988506
0.989685
0.990816
0.99189
0.9929
0.99384
0.994704
0.995491
0.996197
0.996823
0.997367
0.997828
0.998204
0.998491
0.998687
0.998785
0.998779
0.998671
0.998466
0.998169
0.997784
0.997315
0.996762
0.996129
0.995414
0.99462
0.993749
0.992803
0.991787
0.990707
0.989571
0.988388
0.987171
0.985936
0.984705
0.983504
0.98237
0.981344
0.980472
0.979805
0.979388
0.979259
0.979436
0.979896
0.980598
0.981495
0.982539
0.983684
0.984889
0.986119
0.98735
0.98856
0.989733
0.990859
0.991927
0.992932
0.993867
0.994727
0.99551
0.996213
0.996836
0.997378
0.997837
0.998212
0.998498
0.998693
0.998791
0.99906
0.998975
0.998815
0.998586
0.998292
0.997938
0.997526
0.997061
0.996544
0.995979
0.995368
0.994714
0.994021
0.993293
0.992538
0.991766
0.990986
0.990211
0.989454
0.988731
0.988062
0.987468
0.98697
0.986592
0.986354
0.986273
0.98636
0.986604
0.986988
0.987491
0.98809
0.988763
0.989489
0.99025
0.991028
0.99181
0.992584
0.99334
0.994068
0.994761
0.995414
0.996023
0.996586
0.9971
0.997562
0.99797
0.998319
0.998608
0.998831
0.998984
0.999061
0.999056
0.998971
0.998811
0.998581
0.998286
0.99793
0.997517
0.99705
0.996531
0.995963
0.99535
0.994693
0.993997
0.993265
0.992508
0.991733
0.990951
0.990174
0.989416
0.988695
0.988028
0.987437
0.986946
0.986574
0.986345
0.986274
0.986371
0.986624
0.987015
0.987523
0.988126
0.988801
0.989528
0.990288
0.991064
0.991844
0.992615
0.993368
0.994093
0.994783
0.995433
0.996039
0.9966
0.997112
0.997572
0.997978
0.998326
0.998614
0.998836
0.998988
0.999065
0.999334
0.999274
0.999161
0.999
0.998796
0.998553
0.998276
0.997968
0.997631
0.997269
0.996884
0.996479
0.996055
0.995613
0.995162
0.994708
0.994258
0.993819
0.993399
0.993006
0.992649
0.992337
0.99208
0.991887
0.991766
0.991725
0.99177
0.991893
0.99209
0.99235
0.992664
0.993024
0.99342
0.993842
0.994283
0.994734
0.99519
0.995642
0.996084
0.996508
0.996913
0.997297
0.997658
0.997994
0.9983
0.998575
0.998815
0.999015
0.999171
0.99928
0.999335
0.999331
0.999271
0.999157
0.998996
0.998792
0.998548
0.99827
0.997961
0.997623
0.997259
0.996873
0.996466
0.99604
0.995597
0.995144
0.994689
0.994238
0.993799
0.993379
0.992987
0.992631
0.992322
0.992067
0.991878
0.991762
0.991726
0.991775
0.991903
0.992103
0.992366
0.992683
0.993044
0.993441
0.993863
0.994303
0.994754
0.995208
0.995659
0.996099
0.996521
0.996925
0.997308
0.997667
0.998001
0.998307
0.998581
0.998819
0.999019
0.999175
0.999283
0.999338
0.999605
0.999569
0.999502
0.999409
0.999292
0.999155
0.999001
0.998832
0.998652
0.998461
0.998263
0.998056
0.997843
0.997621
0.997398
0.997176
0.99696
0.996753
0.996558
0.996378
0.996217
0.996078
0.995966
0.995882
0.99583
0.995812
0.995831
0.995885
0.99597
0.996084
0.996224
0.996386
0.996567
0.996764
0.996972
0.997189
0.997411
0.997636
0.997858
0.998071
0.998277
0.998476
0.998666
0.998846
0.999014
0.999167
0.999303
0.999418
0.999509
0.999572
0.999605
0.999603
0.999567
0.9995
0.999407
0.999289
0.999152
0.998997
0.998828
0.998647
0.998456
0.998257
0.99805
0.997835
0.997613
0.997389
0.997167
0.996951
0.996743
0.996548
0.996369
0.996209
0.996072
0.99596
0.995878
0.995828
0.995812
0.995834
0.995889
0.995976
0.996091
0.996232
0.996395
0.996577
0.996773
0.996982
0.997199
0.997421
0.997644
0.997865
0.998078
0.998283
0.998482
0.998671
0.99885
0.999018
0.99917
0.999305
0.99942
0.999511
0.999574
0.999607
0.999869
0.999857
0.999835
0.999805
0.999769
0.999726
0.999679
0.999629
0.999576
0.999522
0.999466
0.99941
0.999351
0.999289
0.999226
0.999164
0.999105
0.999049
0.998996
0.998949
0.998906
0.99887
0.998841
0.99882
0.998806
0.998802
0.998807
0.99882
0.998842
0.998872
0.998908
0.998951
0.998999
0.999052
0.999108
0.999168
0.99923
0.999293
0.999355
0.999414
0.999471
0.999526
0.999581
0.999633
0.999683
0.99973
0.999772
0.999808
0.999837
0.999858
0.999869
0.999868
0.999856
0.999835
0.999805
0.999768
0.999725
0.999678
0.999628
0.999575
0.999521
0.999465
0.999408
0.999349
0.999286
0.999223
0.999162
0.999102
0.999046
0.998994
0.998946
0.998904
0.998869
0.99884
0.998819
0.998806
0.998802
0.998807
0.998822
0.998844
0.998874
0.99891
0.998953
0.999001
0.999054
0.999111
0.999171
0.999232
0.999295
0.999357
0.999416
0.999472
0.999528
0.999582
0.999634
0.999684
0.999731
0.999773
0.999809
0.999838
0.999859
0.999869
)
;

boundaryField
{
    top
    {
        type            calculated;
        value           uniform 1;
    }
    bottom
    {
        type            calculated;
        value           uniform 0.148957;
    }
    frontAndBack
    {
        type            empty;
    }
    left_cyc
    {
        type            cyclic;
    }
    right_cyc
    {
        type            cyclic;
    }
}


// ************************************************************************* //
