/*--------------------------------*- C++ -*----------------------------------*\
| =========                 |                                                 |
| \\      /  F ield         | OpenFOAM: The Open Source CFD Toolbox           |
|  \\    /   O peration     | Version:  2.3.0                                 |
|   \\  /    A nd           | Web:      www.OpenFOAM.org                      |
|    \\/     M anipulation  |                                                 |
\*---------------------------------------------------------------------------*/
FoamFile
{
    version     2.0;
    format      ascii;
    class       volScalarField;
    location    "21000";
    object      p;
}
// * * * * * * * * * * * * * * * * * * * * * * * * * * * * * * * * * * * * * //

dimensions      [0 2 -2 0 0 0 0];

internalField   nonuniform List<scalar> 
765
(
-1662.41
-1671.25
-1679.91
-1689.09
-1699.7
-1712.7
-1728.58
-1746.72
-1765
-1779.53
-1784.43
-1775.19
-1758.8
-1740.15
-1722.58
-1707.63
-1695.52
-1685.5
-1676.58
-1667.91
-1658.88
-1649.12
-1638.44
-1626.68
-1613.62
-1598.93
-1582.09
-1562.18
-1537.7
-1506.42
-1464.77
-1408.75
-1341.86
-1264.08
-1172.04
-1109.93
-1126.39
-1207.92
-1296.55
-1368.54
-1432.58
-1482.53
-1519.54
-1547.8
-1570.26
-1588.84
-1604.77
-1618.78
-1631.32
-1642.65
-1652.96
-1497.24
-1505.74
-1514.51
-1523.86
-1534.13
-1545.53
-1557.94
-1570.84
-1582.65
-1591.22
-1594.16
-1588.68
-1578.78
-1566.3
-1553.41
-1541.29
-1530.26
-1520.32
-1511.19
-1502.53
-1494.03
-1485.39
-1476.35
-1466.74
-1456.41
-1445.17
-1432.76
-1418.77
-1402.57
-1383.71
-1360.83
-1332.25
-1298.89
-1274.34
-1281.51
-1282.47
-1282.87
-1276.91
-1280.55
-1312.75
-1344.19
-1370.23
-1391.34
-1409.07
-1424.32
-1437.63
-1449.56
-1460.42
-1470.46
-1479.83
-1488.69
-1359.55
-1366.62
-1374.1
-1382.06
-1390.52
-1399.41
-1408.52
-1417.11
-1423.97
-1428.18
-1429.61
-1426.96
-1421.86
-1414.21
-1405.3
-1396.23
-1387.45
-1379.15
-1371.35
-1364.01
-1357.06
-1350.41
-1343.91
-1337.42
-1330.89
-1324.27
-1317.6
-1310.9
-1304.23
-1297.73
-1284.48
-1268.17
-1247.88
-1212.58
-1204.31
-1203.23
-1203.67
-1205.27
-1224.64
-1257.61
-1273.43
-1290.96
-1300.17
-1306.62
-1313.34
-1320.04
-1326.7
-1333.29
-1339.8
-1346.28
-1352.81
-1236.99
-1241.98
-1247.27
-1252.78
-1258.43
-1264.13
-1269.66
-1274.22
-1277
-1277.91
-1278.14
-1277.71
-1276.31
-1272.83
-1267.82
-1262.18
-1256.48
-1250.87
-1245.42
-1240.23
-1235.36
-1230.83
-1226.67
-1222.82
-1219.23
-1215.83
-1212.57
-1209.3
-1205.82
-1201.86
-1187.05
-1161.36
-1139.38
-1129.96
-1122.97
-1117.62
-1119.11
-1125.69
-1133.16
-1143.36
-1172.23
-1194.97
-1203.37
-1206.99
-1210.38
-1213.63
-1216.94
-1220.41
-1224.1
-1228.05
-1232.34
-1118.04
-1120.86
-1123.78
-1126.73
-1129.66
-1132.54
-1135.15
-1136.9
-1137.16
-1136.16
-1135.62
-1136.59
-1137.32
-1136.51
-1134.39
-1131.62
-1128.72
-1125.78
-1122.83
-1119.94
-1117.19
-1114.65
-1112.36
-1110.31
-1108.41
-1106.5
-1104.35
-1101.67
-1098.09
-1093.85
-1083.88
-1062.87
-1030.4
-1022.72
-1022.94
-1021.6
-1022.06
-1022.96
-1024.59
-1038.57
-1072.68
-1089.46
-1095.42
-1099.44
-1102.62
-1105.05
-1107.07
-1108.95
-1110.89
-1113.03
-1115.41
-996.827
-997.816
-998.764
-999.641
-1000.45
-1001.16
-1001.6
-1001.37
-1000.1
-998.039
-997.078
-998.834
-1000.76
-1001.66
-1001.6
-1001.03
-1000.28
-999.443
-998.543
-997.581
-996.595
-995.636
-994.741
-993.899
-993.025
-991.952
-990.45
-988.259
-985.11
-981.21
-974.851
-961.945
-936.009
-931.777
-933.138
-932.678
-932.909
-932.347
-933.089
-944.212
-967.213
-978.14
-982.634
-986.317
-989.05
-990.937
-992.242
-993.213
-994.062
-994.921
-995.846
-871.258
-870.857
-870.35
-869.758
-869.078
-868.22
-867.06
-865.368
-862.98
-860.239
-859.092
-861.254
-863.991
-866.144
-867.62
-868.646
-869.421
-870.07
-870.638
-871.113
-871.481
-871.746
-871.922
-872.001
-871.931
-871.607
-870.886
-869.628
-867.727
-865.388
-862.023
-857.39
-847.566
-846.907
-846.509
-845.835
-846.096
-846.518
-847.794
-850.204
-858.5
-863.529
-866.182
-868.426
-870.067
-871.1
-871.651
-871.864
-871.871
-871.756
-871.553
-741.086
-739.688
-738.179
-736.563
-734.794
-732.756
-730.33
-727.414
-724.08
-720.897
-719.691
-722.024
-725.366
-728.593
-731.329
-733.588
-735.516
-737.224
-738.803
-740.278
-741.636
-742.86
-743.943
-744.874
-745.621
-746.139
-746.393
-746.376
-746.15
-745.984
-745.319
-748.679
-761.485
-765.875
-762.897
-761.198
-761.629
-764.783
-766.755
-754.01
-746.285
-745.71
-746.031
-746.225
-746.367
-746.271
-745.909
-745.298
-744.478
-743.49
-742.357
-606.959
-604.802
-602.519
-600.062
-597.347
-594.266
-590.709
-586.708
-582.576
-579.112
-577.881
-580.279
-584.066
-588.223
-592.082
-595.458
-598.399
-601.01
-603.399
-605.635
-607.752
-609.767
-611.691
-613.53
-615.268
-616.905
-618.497
-620.152
-622.085
-624.602
-626.928
-638.872
-675.594
-684.61
-679.27
-676.729
-677.347
-683.366
-686.324
-657.918
-633.284
-626.334
-623.795
-621.388
-619.552
-617.909
-616.299
-614.622
-612.841
-610.967
-609.01
-469.817
-466.906
-463.845
-460.535
-456.865
-452.724
-448.067
-443.06
-438.211
-434.491
-433.216
-435.667
-439.857
-444.855
-449.775
-454.255
-458.223
-461.756
-464.967
-467.965
-470.84
-473.666
-476.519
-479.458
-482.496
-485.665
-489.094
-492.958
-497.624
-503.442
-510.253
-533.524
-590.644
-600.217
-592.851
-590.72
-591.075
-597.025
-599.115
-562.207
-522.958
-507.441
-501.401
-495.891
-491.557
-487.853
-484.529
-481.411
-478.404
-475.494
-472.655
-331.321
-327.407
-323.33
-318.947
-314.121
-308.755
-302.877
-296.772
-291.108
-286.993
-285.609
-288.19
-292.916
-298.842
-304.922
-310.643
-315.821
-320.483
-324.746
-328.751
-332.64
-336.549
-340.641
-345.08
-349.908
-355.196
-361.17
-368.109
-376.588
-386.823
-399.718
-427.016
-492.581
-506.528
-502.138
-502.603
-502.253
-503.172
-504.349
-470.487
-415.453
-393.655
-382.99
-373.348
-365.57
-359.015
-353.325
-348.222
-343.533
-339.221
-335.209
-195.346
-189.913
-184.367
-178.513
-172.18
-165.271
-157.857
-150.319
-143.471
-138.592
-136.958
-139.891
-145.534
-152.744
-160.313
-167.589
-174.307
-180.467
-186.2
-191.688
-197.129
-202.723
-208.721
-215.366
-222.682
-230.729
-239.7
-249.404
-259.379
-267.591
-283.717
-319.743
-383.503
-402.552
-410.278
-415.382
-414.1
-407.289
-399.17
-362.221
-301.276
-275.861
-265.454
-255.995
-246.098
-236.566
-227.943
-220.179
-213.099
-206.69
-200.864
-68.0352
-60.1529
-52.0446
-43.5476
-34.5324
-24.9571
-14.9757
-5.08508
3.74514
10.0184
12.1372
8.46969
1.21628
-8.1171
-18.1325
-28.0283
-37.4345
-46.2776
-54.6389
-62.6625
-70.5195
-78.4256
-86.9087
-96.6344
-107.227
-117.792
-127.764
-135.367
-141.039
-143.856
-157.942
-210.763
-276.176
-311.554
-333.483
-343.781
-341.243
-326.064
-299.867
-253.405
-184.945
-147.008
-144.126
-138.879
-133.322
-124.575
-114.345
-103.75
-93.3571
-84.0761
-75.883
23.6138
33.2359
42.978
53.0407
63.6933
75.177
87.5321
100.318
112.299
121.21
124.356
119.074
108.924
96.4385
83.6627
71.5418
60.3266
49.8805
39.9359
30.2344
20.6233
11.2166
2.28673
-5.59676
-11.7103
-15.1752
-15.9182
-15.4394
-20.1989
-35.4476
-66.4144
-118.909
-170.073
-202.567
-223.744
-233.602
-231.189
-216.785
-191.548
-152.595
-96.0364
-52.842
-29.1575
-17.4567
-15.8907
-16.1632
-14.5558
-10.097
-3.28464
5.0158
14.1289
73.9629
69.1643
63.4024
56.68
48.8645
39.7727
29.3279
17.8205
6.33149
-2.87286
-5.86138
-0.558116
9.88351
21.642
32.9274
42.9591
51.6247
59.0662
65.4676
70.9241
75.3918
78.9361
82.4644
85.9893
86.3309
81.8637
71.6367
53.3632
21.5321
-30.0624
-104.862
-194.304
-283.16
-354.547
-404.86
-428.827
-422.985
-388.357
-329.408
-250.858
-158.89
-75.1426
-8.7863
34.9998
60.877
75.8929
83.9047
86.6874
85.0054
81.1735
77.7768
)
;

boundaryField
{
    top
    {
        type            calculated;
        value           uniform -9.81;
    }
    bottom
    {
        type            calculated;
        value           nonuniform List<scalar> 
51
(
-1753.43
-1762.39
-1770.94
-1779.89
-1790.32
-1803.44
-1819.93
-1838.72
-1857.88
-1873.57
-1879.12
-1868.8
-1851.3
-1831.84
-1813.63
-1798.25
-1786.16
-1776.36
-1767.65
-1759.02
-1749.76
-1739.56
-1728.32
-1715.87
-1701.96
-1686.23
-1668.08
-1646.54
-1620.02
-1586.25
-1541.59
-1481.87
-1411.61
-1331.33
-1237.53
-1174.67
-1191.34
-1273.99
-1364.68
-1439.47
-1507.24
-1560.59
-1600.4
-1630.97
-1655.31
-1675.38
-1692.5
-1707.48
-1720.8
-1732.77
-1743.6
)
;
    }
    frontAndBack
    {
        type            empty;
    }
    left_cyc
    {
        type            cyclic;
    }
    right_cyc
    {
        type            cyclic;
    }
}


// ************************************************************************* //
