/*--------------------------------*- C++ -*----------------------------------*\
| =========                 |                                                 |
| \\      /  F ield         | OpenFOAM: The Open Source CFD Toolbox           |
|  \\    /   O peration     | Version:  2.3.0                                 |
|   \\  /    A nd           | Web:      www.OpenFOAM.org                      |
|    \\/     M anipulation  |                                                 |
\*---------------------------------------------------------------------------*/
FoamFile
{
    version     2.0;
    format      ascii;
    class       volScalarField;
    location    "21000";
    object      p;
}
// * * * * * * * * * * * * * * * * * * * * * * * * * * * * * * * * * * * * * //

dimensions      [0 2 -2 0 0 0 0];

internalField   nonuniform List<scalar> 
765
(
0
-13.6353
-38.6326
-73.8137
-117.529
-167.324
-219.4
-268.829
-311.757
-346.112
-367.331
-375.646
-377.695
-376.474
-370.084
-352.465
-320.329
-279.309
-231.062
-179.131
-128.382
-82.9575
-45.5654
-17.9964
-1.51882
3.00991
-4.70107
-24.1816
-54.4563
-94.1425
-141.261
-192.783
-244.197
-290.912
-329.73
-358.826
-372.791
-377.365
-377.76
-374.63
-363.814
-338.533
-301.962
-257.058
-206.523
-154.566
-105.992
-64.2096
-31.4255
-9.15199
1.52888
43.7173
34.9472
19.1273
-2.7522
-29.5818
-60.0854
-93.0645
-128.235
-161.2
-184.041
-197.945
-204.277
-205.204
-204.708
-200.185
-187.814
-167.345
-136.287
-100.811
-67.267
-36.0593
-8.20902
14.9821
32.3721
42.9446
45.8769
40.8866
28.4378
9.42752
-15.1001
-43.9612
-75.8454
-109.999
-145.348
-173.839
-191.849
-202.406
-205.24
-205.385
-203.746
-195.284
-179.512
-153.899
-119.406
-84.7059
-52.2615
-22.5409
3.17452
23.6511
37.8116
44.7045
134.062
127.072
114.49
97.204
76.1969
52.447
26.8656
0.00955684
-24.6804
-39.8489
-46.5735
-45.7573
-43.2826
-44.9135
-47.0288
-41.9215
-28.9991
-5.9397
20.9852
46.9166
71.1992
92.9689
111.258
125.078
133.507
135.846
131.861
121.935
106.846
87.544
65.0166
40.2221
13.9158
-12.7558
-33.459
-44.1355
-47.2943
-44.2949
-43.7238
-46.8063
-45.7636
-37.1655
-19.2658
6.66976
33.2954
58.5036
81.6712
101.855
118.072
129.349
134.848
221.749
215.866
205.309
190.952
173.845
155.141
136.111
118.122
103.637
94.6628
94.7073
104.193
110.773
106.403
96.3554
93.7228
101.233
114.499
131.997
150.925
169.846
187.459
202.594
214.172
221.265
223.231
219.874
211.521
198.906
183.003
164.917
145.845
127.108
110.363
98.5033
93.0347
98.4731
108.273
109.825
101.268
93.3404
96.1702
106.594
122.304
140.717
159.807
178.239
194.778
208.296
217.776
222.408
295.516
290.85
282.562
271.502
258.688
245.193
232.12
220.608
212.382
209.229
214.662
229.183
237.962
232.288
217.478
209.491
211.234
218.429
229.397
242.23
255.748
268.842
280.437
289.496
295.115
296.677
294.004
287.398
277.569
265.466
252.142
238.678
226.185
215.961
210.008
210.176
220.91
234.877
236.85
225.058
211.941
209.285
213.862
223.141
235.176
248.475
261.915
274.406
284.882
292.354
296.038
366.74
363.119
356.779
348.535
339.355
330.238
322.149
315.996
312.78
313.356
319.086
331.151
339.251
333.895
321.359
314.113
312.587
314.99
320.576
328.312
337.294
346.567
355.144
362.041
366.393
367.609
365.523
360.421
352.981
344.112
334.808
326.049
318.773
313.887
312.434
315.153
324.2
336.34
338.232
327.664
316.843
312.684
313.117
317.189
323.919
332.365
341.603
350.657
358.53
364.276
367.144
435.943
433.37
428.965
423.457
417.69
412.519
408.725
406.972
407.711
411.138
417.244
425.771
431.357
427.629
419.016
412.273
408.255
406.898
408.121
411.505
416.436
422.152
427.817
432.574
435.655
436.527
435.031
431.433
426.346
420.573
414.973
410.367
407.489
406.883
408.931
413.616
421.068
429.317
430.641
423.428
415.32
409.921
407.162
407.095
409.413
413.629
419.036
424.832
430.157
434.182
436.232
503.855
502.424
500.108
497.472
495.156
493.787
493.916
495.931
499.883
505.515
512.173
518.901
522.662
520.181
513.733
506.945
501.012
496.632
494.171
493.633
494.704
496.862
499.492
501.952
503.649
504.145
503.293
501.334
498.758
496.179
494.239
493.535
494.554
497.514
502.345
508.567
515.44
521.326
522.2
517.236
510.368
503.898
498.638
495.168
493.643
493.94
495.61
498.078
500.705
502.863
504.018
569.979
569.878
569.952
570.523
571.926
574.478
578.438
583.9
590.651
598.151
605.478
611.495
614.367
612.502
606.989
599.844
592.283
585.292
579.503
575.192
572.334
570.693
569.961
569.805
569.896
569.953
569.855
569.79
570.056
570.986
572.91
576.124
580.829
586.965
594.18
601.738
608.601
613.407
614.057
610.159
603.68
596.205
588.816
582.354
577.256
573.671
571.441
570.285
569.878
569.886
569.997
633.128
634.589
637.421
641.624
647.145
653.91
661.826
670.698
680.123
689.419
697.598
703.558
706.113
704.475
699.169
691.388
682.242
672.765
663.716
655.551
648.508
642.688
638.168
635.005
633.216
632.751
633.549
635.691
639.209
644.071
650.214
657.56
665.987
675.201
684.68
693.584
700.839
705.324
705.889
702.352
695.721
687.152
677.738
668.398
659.735
652.097
645.639
640.443
636.581
634.095
632.971
691.532
694.76
700.676
708.901
718.946
730.298
742.464
754.942
767.177
778.41
787.685
794.019
796.583
794.952
789.401
780.705
769.821
757.732
745.247
732.96
721.372
710.97
702.262
695.748
691.84
690.777
692.596
697.219
704.354
713.556
724.316
736.134
748.521
760.97
772.836
783.258
791.235
795.849
796.409
792.82
785.653
775.785
764.215
751.857
739.412
727.401
716.325
706.681
698.983
693.702
691.176
742.974
748.07
757.226
769.672
784.482
800.7
817.416
833.81
849.157
862.634
873.333
880.394
883.18
881.416
875.278
865.333
852.404
837.404
821.177
804.466
788.047
772.813
759.708
749.675
743.532
741.833
744.736
751.972
762.903
776.664
792.303
808.886
825.538
841.523
856.076
868.327
877.367
882.43
883.033
879.116
871.062
859.574
845.543
829.862
813.327
796.646
780.681
766.359
754.637
746.416
742.405
784.999
791.872
804.102
820.564
839.955
860.936
882.229
902.707
921.436
937.491
949.967
958.071
961.243
959.241
952.222
940.68
925.365
907.167
887.006
865.809
844.637
824.741
807.446
794.073
785.806
783.499
787.437
797.153
811.687
829.803
850.169
871.473
892.49
912.231
929.775
944.202
954.648
960.421
961.104
956.641
947.365
933.903
917.089
897.835
877.068
855.728
835.007
816.205
800.66
789.651
784.225
814.889
823.21
837.932
857.655
880.802
905.781
931.077
955.322
977.335
996.037
1010.46
1019.78
1023.42
1021.13
1013.06
999.749
981.95
960.609
936.778
911.611
886.417
862.681
841.979
825.901
815.907
813.1
817.884
829.614
847.067
868.73
893.007
918.342
943.282
966.577
987.103
1003.83
1015.87
1022.49
1023.28
1018.15
1007.47
991.883
972.25
949.57
924.944
899.581
874.9
852.439
833.797
820.527
813.947
830.724
839.857
855.957
877.468
902.677
929.89
957.526
984.117
1008.26
1028.75
1044.53
1054.72
1058.72
1056.2
1047.39
1032.83
1013.34
989.936
963.796
936.267
908.808
882.96
860.393
842.822
831.863
828.773
834.036
846.885
865.943
889.546
915.981
943.607
970.926
996.484
1018.99
1037.3
1050.46
1057.7
1058.56
1052.95
1041.27
1024.21
1002.69
977.801
950.796
923.12
896.244
871.781
851.439
836.916
829.687
)
;

boundaryField
{
    top
    {
        type            calculated;
        value           nonuniform List<scalar> 
51
(
832.591
842.216
859.082
881.507
907.696
935.927
964.647
992.395
1017.63
1039.07
1055.6
1066.31
1070.53
1067.87
1058.6
1043.34
1022.94
998.479
971.194
942.552
914.067
887.23
863.728
845.345
833.814
830.542
836.106
849.605
869.516
894.072
921.503
950.165
978.628
1005.32
1028.84
1048.02
1061.82
1069.44
1070.35
1064.44
1052.18
1034.31
1011.8
985.795
957.626
928.898
901.016
875.585
854.358
839.122
831.491
)
;
    }
    bottom
    {
        type            calculated;
        value           nonuniform List<scalar> 
51
(
-71.5685
-85.487
-110.98
-146.844
-191.406
-242.191
-295.352
-345.776
-389.673
-424.96
-447.014
-455.96
-458.294
-456.888
-449.934
-431.516
-398.464
-356.481
-307.245
-254.24
-202.475
-156.168
-118.054
-89.9419
-73.127
-68.499
-76.3755
-96.2498
-127.116
-167.568
-215.606
-268.168
-320.631
-368.331
-408.105
-438.097
-452.814
-457.87
-458.33
-454.813
-443.301
-417.152
-379.634
-333.751
-282.193
-229.173
-179.643
-137.053
-103.631
-80.9116
-70.0054
)
;
    }
    frontAndBack
    {
        type            empty;
    }
    left_cyc
    {
        type            cyclic;
    }
    right_cyc
    {
        type            cyclic;
    }
}


// ************************************************************************* //
