/*--------------------------------*- C++ -*----------------------------------*\
| =========                 |                                                 |
| \\      /  F ield         | OpenFOAM: The Open Source CFD Toolbox           |
|  \\    /   O peration     | Version:  2.3.0                                 |
|   \\  /    A nd           | Web:      www.OpenFOAM.org                      |
|    \\/     M anipulation  |                                                 |
\*---------------------------------------------------------------------------*/
FoamFile
{
    version     2.0;
    format      ascii;
    class       volScalarField;
    location    "21000";
    object      p_rgh;
}
// * * * * * * * * * * * * * * * * * * * * * * * * * * * * * * * * * * * * * //

dimensions      [0 2 -2 0 0 0 0];

internalField   nonuniform List<scalar> 
765
(
-71.5685
-85.487
-110.98
-146.844
-191.406
-242.191
-295.352
-345.776
-389.673
-424.96
-447.014
-455.96
-458.294
-456.888
-449.934
-431.516
-398.464
-356.481
-307.245
-254.24
-202.475
-156.168
-118.054
-89.9419
-73.127
-68.499
-76.3755
-96.2498
-127.116
-167.568
-215.606
-268.168
-320.631
-368.331
-408.105
-438.097
-452.814
-457.87
-458.33
-454.813
-443.301
-417.152
-379.634
-333.751
-282.193
-229.173
-179.643
-137.053
-103.631
-80.9116
-70.0054
-113.917
-124.704
-144.043
-170.749
-203.569
-241.11
-282.02
-325.684
-367.095
-397.981
-418.979
-430.679
-434.099
-431.973
-422.623
-403.487
-375.143
-335.731
-291.813
-250.062
-211.571
-177.474
-149.171
-127.936
-114.963
-111.319
-117.493
-132.74
-155.94
-185.884
-221.263
-260.656
-303.146
-346.957
-383.722
-409.395
-426.313
-433.295
-434.017
-429.019
-414.665
-391.49
-357.704
-314.737
-271.608
-231.435
-194.929
-163.503
-138.511
-121.185
-112.683
-61.2463
-72.7679
-93.2121
-121.207
-155.434
-194.723
-238.041
-284.632
-330.141
-365.851
-390.815
-403.691
-407.555
-405.032
-394.849
-372.352
-339.222
-295.275
-248.279
-204.11
-163.766
-128.227
-98.6177
-76.2203
-62.4043
-58.468
-65.1131
-81.3116
-105.73
-137.009
-173.906
-215.332
-260.424
-307.454
-349.025
-379.4
-398.871
-406.425
-407.326
-401.867
-385.759
-358.128
-319.467
-272.901
-226.985
-184.573
-146.436
-113.638
-87.3854
-69.0224
-59.9088
7.76045
-5.61113
-29.0547
-60.702
-98.8085
-141.928
-188.854
-238.476
-287.331
-330.953
-362.212
-376.247
-380.34
-377.74
-366.719
-339.405
-297.646
-249.678
-199.745
-152.135
-108.039
-68.6372
-35.3021
-9.71213
6.27416
10.8741
3.11993
-15.5701
-43.3698
-78.4468
-119.203
-164.34
-212.705
-262.655
-309.388
-348.389
-371.079
-379.273
-380.183
-374.27
-356.248
-320.882
-275.6
-226.037
-176.948
-130.853
-88.8567
-52.2026
-22.4131
-1.28486
9.32496
65.5133
49.6949
22.3951
-13.6336
-55.9519
-102.864
-153.508
-207.66
-262.477
-312.988
-350.691
-368.548
-374.136
-370.481
-356.353
-323.017
-274.35
-220.007
-165.225
-113.9
-66.1248
-22.6317
15.0808
44.7257
63.5779
69.0457
59.8297
37.8691
5.8469
-33.5789
-78.3157
-127.106
-179.447
-234.508
-287.91
-333.777
-361.865
-372.498
-373.799
-365.96
-343.295
-301.193
-249.079
-194.003
-140.676
-90.9035
-45.0168
-4.06302
30.059
54.7833
67.3712
118.495
98.9242
65.5995
22.6763
-26.1801
-78.5938
-133.745
-192.13
-251.634
-308.047
-354.13
-380.664
-389.319
-383.858
-361.996
-319.648
-264.733
-205.484
-146.551
-90.8134
-37.811
11.9924
56.5968
92.5993
115.873
122.642
111.218
84.1862
45.5295
-0.725098
-51.505
-105.243
-161.88
-221.158
-279.756
-332.386
-369.861
-386.818
-388.698
-376.211
-344.253
-294.622
-236.966
-177.468
-119.901
-65.4094
-13.7388
33.933
74.8689
105.191
120.789
168.24
143.537
101.872
49.3025
-8.77431
-68.8461
-129.68
-191.859
-254.297
-313.851
-364.424
-397.606
-409.766
-402.093
-373.667
-326.29
-268.103
-205.979
-143.664
-82.6649
-22.4664
36.2416
90.5169
135.346
164.691
173.218
158.798
124.782
76.8888
21.03
-38.256
-98.6525
-159.983
-222.397
-283.91
-340.072
-383.24
-406.175
-408.804
-391.455
-353.174
-299.586
-238.916
-176.418
-114.638
-53.9777
5.79457
62.9286
113.374
151.424
171.123
218.392
187.301
135.289
70.6799
0.929681
-68.9951
-136.935
-202.416
-266.003
-325.848
-377.055
-412.407
-426.458
-417.507
-386.66
-338.38
-279.968
-217.008
-152.019
-84.8407
-15.3925
54.63
121.01
176.797
213.689
224.419
206.256
163.567
104.19
36.2647
-33.8734
-102.825
-169.286
-233.768
-295.858
-352.272
-396.737
-422.198
-425.283
-405.58
-365.535
-311.549
-250.478
-186.424
-120.49
-51.9396
18.206
87.2746
149.563
197.203
222.014
271.55
233.169
169.809
92.168
9.72284
-70.8229
-145.857
-214.41
-278.246
-336.784
-386.497
-421.479
-435.964
-426.683
-395.917
-348.99
-292.08
-229.359
-162.054
-88.7797
-9.48458
72.8695
152.357
220.098
265.493
278.869
256.289
203.934
132.079
51.0651
-30.9334
-108.825
-180.267
-246.275
-307.672
-362.478
-405.849
-431.517
-434.73
-414.621
-375.31
-322.918
-262.895
-198.02
-128.157
-51.558
29.929
111.97
187.098
245.334
276.075
330.314
285.121
211.624
122.471
28.5753
-62.0228
-144.23
-216.325
-280.693
-337.697
-385.135
-418.531
-432.639
-423.573
-394.129
-349.465
-294.413
-231.756
-161.681
-82.1289
6.66385
100.249
191.346
269.704
322.934
338.912
312.058
250.908
168.013
75.35
-17.5835
-104.303
-180.991
-248.933
-309.678
-362.373
-403.616
-428.294
-431.442
-411.974
-374.538
-324.383
-265.501
-199.456
-125.339
-40.6126
51.459
145.115
231.579
299.358
335.739
397.011
347.349
267.61
171.446
70.2341
-27.4323
-115.435
-191.251
-256.932
-313.16
-358.708
-390.417
-403.919
-395.234
-367.304
-324.63
-270.745
-207.34
-134.12
-49.2441
46.4395
147.35
245.566
330.411
388.684
406.483
376.695
309.984
220.378
120.492
20.2489
-73.1136
-154.538
-224.975
-285.892
-337.081
-376.336
-399.771
-402.791
-384.23
-348.655
-300.232
-241.677
-173.732
-95.3815
-4.38931
94.9047
195.847
289.188
362.908
403.076
473.504
423.848
345.018
250.263
150.089
52.4052
-36.7692
-114.339
-180.934
-236.762
-280.973
-311.316
-324.262
-315.939
-289.276
-248.065
-194.881
-130.884
-56.0479
30.245
126.26
226.355
323.176
406.926
464.989
483.01
452.969
386.71
298.365
199.811
100.118
6.10152
-76.9472
-148.814
-209.98
-260.197
-297.943
-320.3
-323.196
-305.444
-271.324
-224.071
-165.578
-96.3919
-16.166
75.6672
174.639
274.344
366.306
439.333
479.665
561.388
518.354
450.917
370.278
284.633
199.728
119.761
47.5567
-15.2877
-67.9109
-109.234
-137.39
-149.437
-141.695
-116.996
-78.5803
-28.549
31.8703
101.835
180.015
263.976
349.796
432.204
503.703
553.833
569.65
543.388
486.392
411.11
327.178
241.407
158.617
82.484
14.9787
-42.7833
-89.9274
-125.036
-145.742
-148.436
-131.954
-100.253
-55.9735
-0.746416
64.4871
138.809
220.302
305.802
390.816
469.087
531.71
566.815
661.82
633.587
590.442
539.876
486.61
433.103
380.119
328.748
282.484
243.023
211.715
190.221
180.915
186.901
205.778
234.919
272.532
317.226
367.456
420.28
473.595
526.998
578.494
623.978
656.658
667.229
649.777
612.873
565.265
512.998
459.559
406.496
353.848
304.875
261.914
226.369
199.686
183.823
181.737
194.42
218.575
252.058
293.338
341.094
393.471
446.412
499.883
552.729
601.987
642.28
665.463
776.6
771.443
765.322
760.347
757.108
754.805
751
744.055
736.676
729.64
723.432
718.682
716.373
717.887
722.149
728.05
734.899
742.189
749.253
753.984
756.297
759.152
763.682
769.642
775.3
777.491
773.999
767.999
762.324
758.3
755.831
753.436
747.565
740.328
733.115
726.469
720.919
717.236
716.699
719.75
724.939
731.398
738.564
745.968
752.733
755.578
757.85
761.443
766.788
772.926
777.375
)
;

boundaryField
{
    top
    {
        type            fixedFluxPressure;
        gradient        nonuniform List<scalar> 
51
(
1974.03
2417.5
3107.1
3929.09
4811.96
5727.95
6703.72
7744.51
8722.9
9577.18
10259.4
10723.2
10918.9
10793.8
10387.9
9752.91
8935.54
7983.01
6952.54
5951.34
5027.41
4136.64
3295.66
2565.41
2049.7
1885.83
2157.5
2742.46
3510.06
4367.44
5264.46
6196.16
7226.2
8243.97
9166.19
9940.78
10521.3
10860.5
10903.8
10634.9
10111.4
9381.55
8491.27
7489.13
6441.1
5493.9
4589.28
3718.57
2921.39
2280.18
1917.78
)
;
        value           nonuniform List<scalar> 
51
(
842.401
852.026
868.892
891.317
917.506
945.737
974.457
1002.21
1027.44
1048.88
1065.41
1076.12
1080.34
1077.68
1068.41
1053.15
1032.75
1008.29
981.004
952.362
923.877
897.04
873.538
855.155
843.624
840.352
845.916
859.415
879.326
903.882
931.313
959.975
988.438
1015.13
1038.65
1057.83
1071.63
1079.25
1080.16
1074.25
1061.99
1044.12
1021.61
995.605
967.436
938.708
910.826
885.395
864.168
848.932
841.301
)
;
    }
    bottom
    {
        type            fixedFluxPressure;
        gradient        uniform 0;
        value           nonuniform List<scalar> 
51
(
-71.5685
-85.487
-110.98
-146.844
-191.406
-242.191
-295.352
-345.776
-389.673
-424.96
-447.014
-455.96
-458.294
-456.888
-449.934
-431.516
-398.464
-356.481
-307.245
-254.24
-202.475
-156.168
-118.054
-89.9419
-73.127
-68.499
-76.3755
-96.2498
-127.116
-167.568
-215.606
-268.168
-320.631
-368.331
-408.105
-438.097
-452.814
-457.87
-458.33
-454.813
-443.301
-417.152
-379.634
-333.751
-282.193
-229.173
-179.643
-137.053
-103.631
-80.9116
-70.0054
)
;
    }
    frontAndBack
    {
        type            empty;
    }
    left_cyc
    {
        type            cyclic;
    }
    right_cyc
    {
        type            cyclic;
    }
}


// ************************************************************************* //
