/*--------------------------------*- C++ -*----------------------------------*\
| =========                 |                                                 |
| \\      /  F ield         | OpenFOAM: The Open Source CFD Toolbox           |
|  \\    /   O peration     | Version:  2.3.0                                 |
|   \\  /    A nd           | Web:      www.OpenFOAM.org                      |
|    \\/     M anipulation  |                                                 |
\*---------------------------------------------------------------------------*/
FoamFile
{
    version     2.0;
    format      ascii;
    class       volScalarField;
    location    "21000";
    object      p_rgh;
}
// * * * * * * * * * * * * * * * * * * * * * * * * * * * * * * * * * * * * * //

dimensions      [0 2 -2 0 0 0 0];

internalField   nonuniform List<scalar> 
3060
(
-966.8
-970.666
-977.992
-988.378
-1001.26
-1016.01
-1032.2
-1050.07
-1070.82
-1096.04
-1126.51
-1161.45
-1199.19
-1238.02
-1276.19
-1312.03
-1344.24
-1371.99
-1394.41
-1410.61
-1420.98
-1426.54
-1428.69
-1428.98
-1428.64
-1428.42
-1428.58
-1428.85
-1428.48
-1426.23
-1420.56
-1410.06
-1393.73
-1371.18
-1343.3
-1310.98
-1275.05
-1236.85
-1198.06
-1160.45
-1125.71
-1095.5
-1070.51
-1049.92
-1032.18
-1016.14
-1001.6
-988.981
-978.916
-971.954
-968.474
-968.67
-972.528
-979.838
-990.199
-1003.04
-1017.76
-1033.94
-1051.9
-1072.86
-1098.39
-1129.14
-1164.26
-1202.1
-1240.93
-1278.98
-1314.6
-1346.49
-1373.87
-1395.8
-1411.48
-1421.42
-1426.65
-1428.63
-1428.86
-1428.56
-1428.42
-1428.65
-1428.95
-1428.52
-1426.06
-1420.05
-1409.11
-1392.25
-1369.22
-1340.97
-1308.35
-1272.2
-1233.9
-1195.12
-1157.61
-1123.07
-1093.14
-1068.46
-1048.08
-1030.42
-1014.37
-999.786
-987.138
-977.054
-970.082
-966.601
-1085.22
-1085.25
-1085.3
-1085.41
-1085.77
-1086.88
-1089.85
-1096.49
-1108.89
-1128.09
-1153.27
-1182.29
-1213.09
-1244
-1273.47
-1300.65
-1326.57
-1351.94
-1374.5
-1391.41
-1402.73
-1409.61
-1413.36
-1415.16
-1415.9
-1416.08
-1415.85
-1415.04
-1413.17
-1409.35
-1402.37
-1390.95
-1373.93
-1351.29
-1325.87
-1299.92
-1272.7
-1243.21
-1212.35
-1181.67
-1152.86
-1128
-1109.17
-1097.08
-1090.65
-1087.8
-1086.74
-1086.41
-1086.31
-1086.26
-1086.23
-1086.23
-1086.25
-1086.28
-1086.38
-1086.75
-1087.92
-1091.04
-1097.97
-1110.74
-1130.29
-1155.68
-1184.79
-1215.58
-1246.39
-1275.67
-1302.69
-1328.59
-1353.87
-1376.03
-1392.42
-1403.33
-1409.9
-1413.47
-1415.18
-1415.89
-1416.07
-1415.83
-1415
-1413.02
-1409
-1401.71
-1389.86
-1372.32
-1349.31
-1323.81
-1297.84
-1270.44
-1240.77
-1209.82
-1179.14
-1150.44
-1125.82
-1107.34
-1095.64
-1089.47
-1086.77
-1085.77
-1085.44
-1085.33
-1085.27
-1085.23
-1084.78
-1085.85
-1087.97
-1091.26
-1095.93
-1102.35
-1110.99
-1122.43
-1137.08
-1154.86
-1175.09
-1196.76
-1219.16
-1242.1
-1265.8
-1290.93
-1317.23
-1341.71
-1361.6
-1377.37
-1389.44
-1396.94
-1401.02
-1403.16
-1404.21
-1404.52
-1404.16
-1403.07
-1400.87
-1396.72
-1389.15
-1377.01
-1361.17
-1341.23
-1316.73
-1290.47
-1265.43
-1241.82
-1218.98
-1196.69
-1175.14
-1155.08
-1137.48
-1123.02
-1111.73
-1103.21
-1096.9
-1092.31
-1089.1
-1087.06
-1086.08
-1086.12
-1087.2
-1089.34
-1092.66
-1097.39
-1103.9
-1112.67
-1124.27
-1139.07
-1156.97
-1177.24
-1198.9
-1221.27
-1244.19
-1267.93
-1293.15
-1319.42
-1343.54
-1363
-1378.48
-1390.16
-1397.31
-1401.19
-1403.23
-1404.23
-1404.5
-1404.12
-1402.97
-1400.67
-1396.3
-1388.35
-1375.85
-1359.7
-1339.33
-1314.49
-1288.23
-1263.28
-1239.71
-1216.85
-1194.52
-1172.97
-1152.96
-1135.49
-1121.19
-1110.06
-1101.66
-1095.44
-1090.91
-1087.74
-1085.72
-1084.74
-1050.45
-1052.22
-1055.67
-1060.87
-1067.95
-1077.13
-1088.67
-1102.81
-1119.53
-1138.39
-1158.64
-1179.56
-1200.75
-1222.17
-1243.95
-1266.4
-1289.68
-1312.73
-1334.57
-1353.89
-1368.11
-1378.1
-1383.87
-1386.88
-1388.47
-1389
-1388.44
-1386.81
-1383.76
-1377.95
-1367.91
-1353.65
-1334.33
-1312.52
-1289.51
-1266.27
-1243.87
-1222.13
-1200.77
-1179.64
-1158.8
-1138.64
-1119.91
-1103.33
-1089.34
-1077.92
-1068.87
-1061.91
-1056.84
-1053.52
-1051.9
-1051.98
-1053.76
-1057.24
-1062.48
-1069.63
-1078.9
-1090.56
-1104.82
-1121.64
-1140.56
-1160.82
-1181.71
-1202.87
-1224.27
-1246.06
-1268.56
-1291.86
-1314.78
-1336.46
-1355.35
-1369.12
-1378.73
-1384.17
-1387.03
-1388.54
-1388.98
-1388.35
-1386.63
-1383.41
-1377.25
-1366.85
-1352.11
-1332.39
-1310.43
-1287.3
-1264.08
-1241.73
-1220.01
-1198.63
-1177.47
-1156.6
-1136.45
-1117.78
-1101.32
-1087.45
-1076.15
-1067.19
-1060.3
-1055.27
-1051.98
-1050.37
-1016.65
-1018.73
-1022.78
-1028.78
-1036.79
-1046.89
-1059.16
-1073.69
-1090.42
-1109.13
-1129.41
-1150.8
-1172.93
-1195.54
-1218.4
-1241.19
-1263.69
-1285.84
-1307.84
-1328.15
-1344.5
-1356.34
-1363.46
-1367.51
-1369.85
-1370.69
-1369.83
-1367.47
-1363.4
-1356.27
-1344.42
-1328.08
-1307.77
-1285.79
-1263.64
-1241.13
-1218.34
-1195.5
-1172.93
-1150.85
-1129.54
-1109.35
-1090.75
-1074.14
-1059.75
-1047.6
-1037.64
-1029.77
-1023.91
-1020.02
-1018.11
-1018.21
-1020.3
-1024.37
-1030.42
-1038.49
-1048.65
-1061.02
-1075.64
-1092.46
-1111.24
-1131.56
-1152.98
-1175.12
-1197.74
-1220.59
-1243.37
-1265.84
-1287.97
-1309.92
-1329.9
-1345.82
-1357.17
-1363.91
-1367.76
-1369.98
-1370.67
-1369.66
-1367.18
-1362.9
-1355.37
-1343.03
-1326.27
-1305.65
-1283.63
-1261.46
-1238.93
-1216.12
-1193.29
-1170.72
-1148.66
-1127.36
-1107.23
-1088.7
-1072.19
-1057.89
-1045.83
-1035.94
-1028.13
-1022.31
-1018.45
-1016.55
-981.846
-984.285
-988.984
-995.894
-1004.98
-1016.22
-1029.58
-1045.03
-1062.42
-1081.56
-1102.13
-1123.83
-1146.39
-1169.64
-1193.4
-1217.42
-1241.3
-1264.44
-1286.2
-1306.07
-1323.23
-1335.53
-1342.89
-1346.57
-1349
-1350.09
-1348.99
-1346.57
-1342.9
-1335.57
-1323.28
-1306.1
-1286.21
-1264.42
-1241.26
-1217.38
-1193.37
-1169.63
-1146.41
-1123.89
-1102.25
-1081.75
-1062.7
-1045.41
-1030.08
-1016.85
-1005.75
-996.815
-990.073
-985.559
-983.324
-983.436
-985.887
-990.611
-997.56
-1006.7
-1018
-1031.44
-1046.97
-1064.44
-1083.65
-1104.28
-1126.02
-1148.62
-1171.9
-1195.69
-1219.72
-1243.57
-1266.63
-1288.25
-1307.94
-1324.71
-1336.48
-1343.38
-1346.83
-1349.17
-1350.07
-1348.78
-1346.29
-1342.35
-1334.55
-1321.72
-1304.19
-1284.12
-1262.2
-1238.96
-1215.05
-1191.05
-1167.34
-1144.16
-1121.68
-1100.09
-1079.64
-1060.67
-1043.46
-1028.21
-1015.05
-1004.02
-995.142
-988.441
-983.953
-981.733
-948.891
-951.65
-956.938
-964.649
-974.67
-986.889
-1001.19
-1017.45
-1035.49
-1055.14
-1076.16
-1098.33
-1121.47
-1145.44
-1170.12
-1195.27
-1220.52
-1245.32
-1268.97
-1290.47
-1308.39
-1320.51
-1326.28
-1328.15
-1328.97
-1329.67
-1328.99
-1328.22
-1326.4
-1320.65
-1308.5
-1290.54
-1269
-1245.32
-1220.5
-1195.25
-1170.1
-1145.44
-1121.48
-1098.37
-1076.24
-1055.28
-1035.71
-1017.74
-1001.59
-987.412
-975.334
-965.476
-957.951
-952.872
-950.345
-950.472
-953.242
-958.554
-966.301
-976.371
-988.651
-1003.02
-1019.35
-1037.48
-1057.2
-1078.28
-1100.52
-1123.73
-1147.76
-1172.5
-1197.69
-1222.93
-1247.68
-1271.2
-1292.47
-1309.96
-1321.45
-1326.66
-1328.27
-1329.07
-1329.65
-1328.87
-1328.07
-1325.96
-1319.63
-1306.86
-1288.48
-1266.72
-1242.92
-1218.06
-1192.81
-1167.7
-1143.09
-1119.21
-1096.16
-1074.1
-1053.2
-1033.7
-1015.82
-999.747
-985.638
-973.622
-963.815
-956.329
-951.275
-948.763
-918.519
-921.629
-927.562
-936.148
-947.194
-960.497
-975.85
-993.051
-1011.9
-1032.2
-1053.77
-1076.46
-1100.16
-1124.79
-1150.31
-1176.52
-1203.03
-1229.32
-1254.66
-1278.04
-1298.05
-1312.01
-1317.29
-1316.45
-1314.7
-1314.21
-1314.76
-1316.6
-1317.49
-1312.19
-1298.17
-1278.12
-1254.7
-1229.34
-1203.03
-1176.51
-1150.3
-1124.79
-1100.16
-1076.48
-1053.81
-1032.27
-1012.02
-993.235
-976.122
-960.883
-947.723
-936.85
-928.468
-922.769
-919.923
-920.066
-923.186
-929.142
-937.763
-948.856
-962.215
-977.635
-994.91
-1013.84
-1034.22
-1055.87
-1078.64
-1102.43
-1127.15
-1152.76
-1179.03
-1205.57
-1231.83
-1257.07
-1280.23
-1299.84
-1313.05
-1317.53
-1316.34
-1314.62
-1314.2
-1314.83
-1316.68
-1317.17
-1311.04
-1296.31
-1275.88
-1252.26
-1226.79
-1200.47
-1173.98
-1147.84
-1122.41
-1097.87
-1074.27
-1051.69
-1030.23
-1010.06
-991.358
-974.32
-959.149
-946.048
-935.223
-926.879
-921.206
-918.374
-890.684
-894.207
-900.904
-910.532
-922.803
-937.412
-954.054
-972.442
-992.324
-1013.49
-1035.77
-1059.07
-1083.34
-1108.6
-1134.87
-1162
-1189.64
-1217.28
-1244.19
-1269.33
-1291.28
-1307.82
-1315.56
-1314.53
-1310.87
-1309.36
-1310.98
-1314.74
-1315.78
-1308.01
-1291.41
-1269.42
-1244.25
-1217.32
-1189.65
-1162
-1134.86
-1108.59
-1083.32
-1059.04
-1035.73
-1013.45
-992.313
-972.475
-954.158
-937.623
-923.158
-911.073
-901.672
-895.241
-892.017
-892.18
-895.713
-902.432
-912.093
-924.409
-939.073
-955.779
-974.24
-994.202
-1015.45
-1037.83
-1061.23
-1085.61
-1110.98
-1137.36
-1164.59
-1192.28
-1219.93
-1246.75
-1271.69
-1293.28
-1309.16
-1315.93
-1314.31
-1310.65
-1309.37
-1311.21
-1314.92
-1315.3
-1306.57
-1289.35
-1267.01
-1241.65
-1214.64
-1186.99
-1159.4
-1132.36
-1106.19
-1081.04
-1056.86
-1033.65
-1011.47
-990.413
-970.655
-952.412
-935.942
-921.535
-909.497
-900.133
-893.728
-890.518
-864.877
-868.906
-876.538
-887.446
-901.235
-917.477
-935.75
-955.669
-976.908
-999.218
-1022.44
-1046.51
-1071.43
-1097.31
-1124.26
-1152.17
-1180.76
-1209.55
-1237.85
-1264.62
-1288.45
-1307.42
-1318.77
-1321.01
-1318.33
-1316.73
-1318.46
-1321.22
-1318.98
-1307.59
-1288.58
-1264.72
-1237.92
-1209.6
-1180.78
-1152.17
-1124.24
-1097.27
-1071.36
-1046.4
-1022.29
-999.046
-976.727
-955.507
-935.642
-917.467
-901.374
-887.788
-877.136
-869.809
-866.127
-866.314
-870.351
-878.004
-888.944
-902.775
-919.071
-937.408
-957.399
-978.719
-1001.12
-1024.44
-1048.62
-1073.67
-1099.68
-1126.77
-1154.8
-1183.48
-1212.3
-1240.55
-1267.14
-1290.64
-1309.04
-1319.52
-1320.99
-1318.13
-1316.73
-1318.66
-1321.17
-1318.12
-1305.89
-1286.34
-1262.15
-1235.19
-1206.82
-1178.04
-1149.52
-1121.71
-1094.88
-1069.1
-1044.26
-1020.27
-997.119
-974.89
-953.751
-933.959
-915.849
-899.811
-886.272
-875.656
-868.355
-864.687
-840.386
-845.027
-853.799
-866.275
-881.933
-900.205
-920.529
-942.396
-965.387
-989.197
-1013.65
-1038.7
-1064.42
-1090.97
-1118.55
-1147.12
-1176.46
-1206.19
-1235.63
-1263.8
-1289.36
-1310.57
-1325.3
-1331.99
-1332.61
-1331.99
-1332.73
-1332.17
-1325.48
-1310.72
-1289.48
-1263.89
-1235.7
-1206.23
-1176.48
-1147.1
-1118.5
-1090.88
-1064.27
-1038.48
-1013.36
-988.846
-964.993
-941.992
-920.16
-899.927
-881.812
-866.379
-854.196
-845.779
-841.541
-841.758
-846.407
-855.199
-867.706
-883.406
-901.73
-922.116
-944.055
-967.128
-991.032
-1015.59
-1040.76
-1066.62
-1093.32
-1121.06
-1149.77
-1179.23
-1209.01
-1238.43
-1266.45
-1291.71
-1312.42
-1326.43
-1332.36
-1332.59
-1331.99
-1332.71
-1331.72
-1324.25
-1308.79
-1287.07
-1261.2
-1232.87
-1203.38
-1173.7
-1144.43
-1115.98
-1088.51
-1062.05
-1036.4
-1011.4
-986.983
-963.221
-940.301
-918.541
-898.372
-880.312
-864.925
-852.779
-844.388
-840.165
-816.478
-821.847
-831.977
-846.331
-864.24
-884.973
-907.805
-932.081
-957.266
-982.978
-1009.01
-1035.31
-1062.01
-1089.32
-1117.52
-1146.64
-1176.56
-1206.96
-1237.26
-1266.52
-1293.48
-1316.57
-1334.03
-1344.53
-1348.71
-1349.49
-1348.8
-1344.68
-1334.18
-1316.7
-1293.59
-1266.61
-1237.32
-1207
-1176.56
-1146.6
-1117.43
-1089.16
-1061.75
-1034.95
-1008.54
-982.403
-956.611
-931.385
-907.125
-884.379
-863.814
-846.158
-832.143
-822.427
-817.531
-817.784
-823.16
-833.31
-847.694
-865.645
-886.43
-909.323
-933.671
-958.938
-984.745
-1010.88
-1037.32
-1064.16
-1091.64
-1120.01
-1149.29
-1179.34
-1209.83
-1240.12
-1269.26
-1295.96
-1318.62
-1335.47
-1345.27
-1348.93
-1349.47
-1348.53
-1343.86
-1332.67
-1314.58
-1291.05
-1263.82
-1234.44
-1204.12
-1173.77
-1143.94
-1114.93
-1086.82
-1059.58
-1032.92
-1006.63
-980.603
-954.903
-929.758
-905.569
-882.886
-862.376
-844.767
-830.789
-821.101
-816.221
-792.504
-798.715
-810.422
-826.963
-847.505
-871.132
-896.934
-924.089
-951.923
-979.958
-1007.93
-1035.79
-1063.69
-1091.9
-1120.73
-1150.32
-1180.65
-1211.49
-1242.31
-1272.28
-1300.2
-1324.65
-1344.08
-1357.28
-1364.15
-1366.09
-1364.22
-1357.39
-1344.2
-1324.76
-1300.3
-1272.35
-1242.37
-1211.51
-1180.63
-1150.24
-1120.57
-1091.64
-1063.3
-1035.26
-1007.24
-979.116
-950.959
-923.052
-895.893
-870.173
-846.729
-826.476
-810.328
-799.106
-793.449
-793.744
-799.961
-811.687
-828.259
-848.843
-872.523
-898.387
-925.612
-953.528
-981.659
-1009.74
-1037.74
-1065.78
-1094.17
-1123.18
-1152.94
-1183.41
-1214.35
-1245.2
-1275.07
-1302.77
-1326.83
-1345.71
-1358.27
-1364.56
-1366.07
-1363.74
-1356.31
-1342.49
-1322.52
-1297.68
-1269.53
-1239.46
-1208.63
-1177.85
-1147.61
-1118.11
-1089.36
-1061.18
-1033.29
-1005.39
-977.376
-949.31
-921.483
-894.395
-868.739
-845.35
-825.145
-809.036
-797.843
-792.204
-767.933
-775.093
-788.579
-807.595
-831.124
-858.048
-887.254
-917.733
-948.657
-979.433
-1009.73
-1039.47
-1068.8
-1098.06
-1127.57
-1157.58
-1188.18
-1219.21
-1250.24
-1280.49
-1308.89
-1334.13
-1354.72
-1369.56
-1378.13
-1380.85
-1378.18
-1369.63
-1354.81
-1334.21
-1308.97
-1280.55
-1250.27
-1219.21
-1188.12
-1157.44
-1127.32
-1097.68
-1068.25
-1038.72
-1008.77
-978.279
-947.338
-916.308
-885.806
-856.68
-829.957
-806.759
-788.199
-775.278
-768.764
-769.106
-776.272
-789.779
-808.826
-832.399
-859.376
-888.645
-919.195
-950.201
-981.072
-1011.48
-1041.35
-1070.83
-1100.26
-1129.95
-1160.14
-1190.9
-1222.04
-1253.1
-1283.28
-1311.48
-1336.36
-1356.46
-1370.7
-1378.66
-1380.82
-1377.58
-1368.42
-1353
-1331.92
-1306.34
-1277.73
-1247.39
-1216.36
-1185.39
-1154.86
-1124.92
-1095.45
-1066.19
-1036.81
-1006.98
-976.594
-945.743
-914.792
-884.361
-855.299
-828.635
-805.487
-786.969
-774.078
-767.585
-742.356
-750.558
-766.001
-787.736
-814.552
-845.113
-878.095
-912.288
-946.695
-980.597
-1013.58
-1045.51
-1076.54
-1107
-1137.27
-1167.7
-1198.48
-1229.49
-1260.38
-1290.49
-1318.84
-1344.22
-1365.31
-1380.99
-1390.51
-1393.67
-1390.54
-1381.04
-1365.36
-1344.27
-1318.89
-1290.52
-1260.38
-1229.43
-1198.36
-1167.49
-1136.91
-1106.47
-1075.79
-1044.51
-1012.32
-979.092
-944.981
-910.434
-876.2
-843.297
-812.96
-786.521
-765.311
-750.521
-743.067
-743.462
-751.67
-767.134
-788.904
-815.765
-846.382
-879.43
-913.695
-948.184
-982.179
-1015.27
-1047.33
-1078.5
-1109.13
-1139.57
-1170.19
-1201.12
-1232.24
-1263.17
-1293.22
-1321.39
-1346.44
-1367.08
-1382.2
-1391.09
-1393.64
-1389.87
-1379.76
-1363.53
-1341.99
-1316.3
-1287.76
-1257.57
-1226.67
-1195.71
-1164.98
-1134.58
-1104.31
-1073.79
-1042.66
-1010.58
-977.455
-943.432
-908.964
-874.802
-841.966
-811.69
-785.306
-764.141
-749.386
-741.953
-715.464
-724.79
-742.329
-766.969
-797.287
-831.73
-868.766
-906.972
-945.176
-982.527
-1018.51
-1052.94
-1085.92
-1117.76
-1148.87
-1179.69
-1210.49
-1241.27
-1271.78
-1301.42
-1329.32
-1354.4
-1375.45
-1391.36
-1401.26
-1404.62
-1401.27
-1391.39
-1375.47
-1354.42
-1329.33
-1301.4
-1271.72
-1241.16
-1210.28
-1179.36
-1148.37
-1117.04
-1084.93
-1051.65
-1016.91
-980.633
-943.029
-904.654
-866.393
-829.437
-795.242
-765.349
-741.309
-724.518
-716.051
-716.502
-725.834
-743.396
-768.072
-798.44
-832.943
-870.049
-908.328
-946.615
-984.059
-1020.15
-1054.7
-1087.81
-1119.81
-1151.08
-1182.07
-1213.02
-1243.91
-1274.45
-1304.04
-1331.78
-1356.56
-1377.19
-1392.58
-1401.86
-1404.58
-1400.59
-1390.1
-1373.67
-1352.2
-1326.83
-1298.75
-1269.02
-1238.5
-1207.74
-1176.96
-1146.13
-1114.97
-1083
-1049.85
-1015.22
-979.038
-941.521
-903.225
-865.038
-828.154
-794.025
-764.191
-740.2
-723.447
-715.004
-687.032
-697.548
-717.28
-744.928
-778.858
-817.293
-858.479
-900.82
-942.986
-983.991
-1023.21
-1060.37
-1095.52
-1128.93
-1161.02
-1192.31
-1223.14
-1253.63
-1283.58
-1312.52
-1339.68
-1364.1
-1384.69
-1400.4
-1410.27
-1413.66
-1410.27
-1400.4
-1384.69
-1364.09
-1339.64
-1312.45
-1283.46
-1253.43
-1222.83
-1191.84
-1160.35
-1127.99
-1094.27
-1058.77
-1021.24
-981.681
-940.384
-898.016
-855.603
-814.504
-776.344
-742.89
-715.915
-697.03
-687.486
-687.998
-698.522
-718.278
-745.966
-779.95
-818.45
-859.709
-902.128
-944.379
-985.476
-1024.8
-1062.07
-1097.35
-1130.89
-1163.13
-1194.57
-1225.54
-1256.12
-1286.11
-1315
-1342.01
-1366.16
-1386.37
-1401.57
-1410.87
-1413.62
-1409.6
-1399.15
-1382.96
-1361.97
-1337.27
-1309.93
-1280.9
-1250.91
-1220.41
-1189.56
-1158.21
-1126
-1092.4
-1057.02
-1019.59
-980.123
-938.912
-896.625
-854.29
-813.267
-775.178
-741.789
-714.869
-696.026
-686.51
-656.844
-668.558
-690.468
-721.084
-758.568
-800.938
-846.247
-892.733
-938.921
-983.693
-1026.31
-1066.41
-1103.93
-1139.09
-1172.34
-1204.24
-1235.2
-1265.39
-1294.73
-1322.84
-1349.08
-1372.61
-1392.46
-1407.64
-1417.25
-1420.56
-1417.24
-1407.62
-1392.43
-1372.55
-1348.99
-1322.71
-1294.53
-1265.09
-1234.76
-1203.61
-1171.46
-1137.91
-1102.38
-1064.45
-1023.95
-980.947
-935.85
-889.437
-842.867
-797.652
-755.584
-718.625
-688.754
-667.785
-657.158
-657.734
-669.456
-691.393
-722.054
-759.597
-802.037
-847.425
-893.995
-940.271
-985.134
-1027.85
-1068.05
-1105.69
-1140.96
-1174.34
-1206.38
-1237.46
-1267.74
-1297.1
-1325.16
-1351.26
-1374.54
-1394.04
-1408.76
-1417.81
-1420.52
-1416.6
-1406.44
-1390.79
-1370.57
-1346.77
-1320.35
-1292.13
-1262.72
-1232.47
-1201.44
-1169.42
-1135.99
-1100.57
-1062.75
-1022.34
-979.422
-934.41
-888.081
-841.595
-796.462
-754.473
-717.584
-687.774
-666.852
-656.256
-624.731
-637.58
-661.537
-694.933
-735.742
-781.807
-831.026
-881.493
-931.605
-980.123
-1026.2
-1069.34
-1109.42
-1146.51
-1181.13
-1213.83
-1245.08
-1275.09
-1303.87
-1331.14
-1356.4
-1378.92
-1397.87
-1412.36
-1421.54
-1424.7
-1421.51
-1412.31
-1397.8
-1378.81
-1356.24
-1330.93
-1303.56
-1274.66
-1244.47
-1213.01
-1180.02
-1145.05
-1107.54
-1067.02
-1023.43
-976.936
-928.066
-877.712
-827.156
-778.041
-732.304
-692.065
-659.482
-636.554
-624.902
-625.54
-638.397
-662.385
-695.829
-736.703
-782.846
-832.151
-882.708
-932.913
-981.525
-1027.69
-1070.94
-1111.11
-1148.3
-1183.03
-1215.84
-1247.19
-1277.27
-1306.07
-1333.29
-1358.41
-1380.7
-1399.33
-1413.39
-1422.06
-1424.67
-1420.92
-1411.22
-1396.29
-1376.98
-1354.19
-1328.75
-1301.34
-1272.45
-1242.33
-1210.96
-1178.07
-1143.21
-1105.79
-1065.36
-1021.85
-975.44
-926.658
-876.393
-825.927
-776.902
-731.251
-691.091
-658.575
-635.698
-624.08
-590.578
-604.426
-630.171
-665.981
-709.682
-758.985
-811.67
-865.729
-919.459
-971.519
-1020.95
-1067.15
-1109.86
-1149.05
-1185.23
-1218.97
-1250.72
-1280.76
-1309.14
-1335.68
-1360.01
-1381.54
-1399.56
-1413.29
-1421.98
-1424.98
-1421.94
-1413.22
-1399.44
-1381.37
-1359.78
-1335.37
-1308.7
-1280.17
-1249.94
-1217.93
-1183.86
-1147.29
-1107.64
-1064.45
-1017.77
-967.899
-915.472
-861.493
-807.347
-754.778
-705.829
-662.738
-627.799
-603.161
-590.606
-591.299
-605.157
-630.934
-666.798
-710.571
-759.959
-812.738
-866.895
-920.724
-972.88
-1022.4
-1068.7
-1111.49
-1150.76
-1187.03
-1220.87
-1252.69
-1282.78
-1311.16
-1337.65
-1361.85
-1383.17
-1400.89
-1414.23
-1422.46
-1424.94
-1421.39
-1412.21
-1398.06
-1379.7
-1357.9
-1333.36
-1306.65
-1278.12
-1247.93
-1215.99
-1182.01
-1145.52
-1105.94
-1062.82
-1016.22
-966.433
-914.096
-860.213
-806.166
-753.696
-704.841
-661.837
-626.97
-602.388
-589.87
-554.319
-568.95
-596.077
-633.742
-679.669
-731.491
-786.926
-843.911
-900.683
-955.828
-1008.29
-1057.37
-1102.67
-1144.02
-1181.94
-1216.93
-1249.44
-1279.75
-1307.97
-1334
-1357.58
-1378.24
-1395.4
-1408.42
-1416.63
-1419.46
-1416.58
-1408.31
-1395.23
-1378
-1357.25
-1333.56
-1307.38
-1278.98
-1248.44
-1215.64
-1180.29
-1141.95
-1100.1
-1054.3
-1004.73
-951.809
-896.293
-839.275
-782.212
-726.909
-675.464
-630.179
-593.429
-567.468
-554.205
-554.944
-569.586
-596.749
-634.472
-680.478
-732.393
-787.931
-845.022
-901.9
-957.145
-1009.7
-1058.87
-1104.24
-1145.66
-1183.65
-1218.71
-1251.28
-1281.62
-1309.83
-1335.8
-1359.25
-1379.71
-1396.6
-1409.27
-1417.07
-1419.43
-1416.08
-1407.4
-1393.98
-1376.47
-1355.53
-1331.73
-1305.49
-1277.08
-1246.56
-1213.81
-1178.52
-1140.24
-1098.44
-1052.71
-1003.21
-950.376
-894.957
-838.042
-781.087
-725.892
-674.551
-629.36
-592.688
-566.788
-553.564
-515.929
-531.043
-558.991
-597.739
-644.969
-698.299
-755.451
-814.363
-873.265
-930.71
-985.582
-1037.08
-1084.69
-1128.1
-1167.79
-1204.19
-1237.67
-1268.51
-1296.84
-1322.64
-1345.71
-1365.71
-1382.19
-1394.6
-1402.4
-1405.08
-1402.33
-1394.45
-1381.95
-1365.38
-1345.26
-1322.06
-1296.09
-1267.54
-1236.43
-1202.63
-1165.85
-1125.72
-1081.79
-1033.67
-981.676
-926.356
-868.549
-809.414
-750.44
-693.437
-640.502
-593.935
-556.126
-529.378
-515.681
-516.45
-531.575
-559.561
-598.373
-645.688
-699.119
-756.381
-815.409
-874.424
-931.976
-986.943
-1038.52
-1086.2
-1129.67
-1169.42
-1205.87
-1239.39
-1270.24
-1298.55
-1324.28
-1347.23
-1367.04
-1383.27
-1395.37
-1402.79
-1405.05
-1401.87
-1393.63
-1380.82
-1364
-1343.7
-1320.37
-1294.33
-1265.76
-1234.66
-1200.89
-1164.15
-1124.06
-1080.18
-1032.12
-980.195
-924.966
-867.264
-808.242
-749.385
-692.5
-639.676
-593.21
-555.485
-528.801
-515.144
-475.432
-490.636
-518.684
-557.524
-604.862
-658.374
-715.855
-775.315
-835.033
-893.582
-949.825
-1002.9
-1052.2
-1097.29
-1138.55
-1176.3
-1210.82
-1242.35
-1271.01
-1296.81
-1319.63
-1339.2
-1355.19
-1367.15
-1374.63
-1377.19
-1374.53
-1366.95
-1354.88
-1338.77
-1319.06
-1296.07
-1270.07
-1241.17
-1209.35
-1174.48
-1136.34
-1094.62
-1049.03
-999.224
-945.663
-888.992
-830.105
-770.178
-710.677
-653.36
-600.252
-553.581
-515.683
-488.837
-475.058
-475.838
-491.054
-519.143
-558.05
-605.477
-659.097
-716.696
-776.279
-836.119
-894.78
-951.122
-1004.28
-1053.63
-1098.79
-1140.1
-1177.89
-1212.44
-1243.96
-1272.59
-1298.32
-1321.01
-1340.41
-1356.16
-1367.84
-1374.98
-1377.16
-1374.12
-1366.2
-1353.85
-1337.52
-1317.63
-1294.52
-1268.44
-1239.5
-1207.67
-1172.82
-1134.7
-1093.02
-1047.46
-997.718
-944.238
-887.665
-828.892
-769.087
-709.712
-652.52
-599.53
-552.964
-515.153
-488.373
-474.636
-432.883
-447.701
-474.974
-512.697
-558.679
-610.726
-666.782
-724.994
-783.76
-841.73
-897.805
-951.114
-1000.99
-1046.94
-1089.17
-1127.87
-1163.2
-1195.32
-1224.32
-1250.22
-1272.91
-1292.22
-1307.86
-1319.49
-1326.73
-1329.2
-1326.6
-1319.24
-1307.47
-1291.68
-1272.21
-1249.32
-1223.2
-1193.93
-1161.5
-1125.82
-1086.73
-1044.06
-997.636
-947.278
-893.515
-837.047
-778.776
-719.833
-661.601
-605.721
-554.074
-508.743
-471.933
-445.827
-432.399
-433.163
-447.994
-475.309
-513.101
-559.174
-611.333
-667.512
-725.854
-784.748
-842.838
-899.018
-952.409
-1002.33
-1048.36
-1090.66
-1129.38
-1164.72
-1196.83
-1225.79
-1251.6
-1274.18
-1293.32
-1308.74
-1320.11
-1327.04
-1329.16
-1326.23
-1318.56
-1306.54
-1290.54
-1270.9
-1247.88
-1221.68
-1192.36
-1159.91
-1124.24
-1085.17
-1042.52
-996.142
-945.849
-892.175
-835.814
-777.664
-718.85
-660.752
-605.001
-553.475
-508.251
-471.529
-445.489
-432.103
-388.434
-402.31
-427.793
-462.998
-505.909
-554.542
-607.055
-661.805
-717.369
-772.544
-826.33
-877.913
-926.625
-972.02
-1014.05
-1052.74
-1088.13
-1120.29
-1149.25
-1174.99
-1197.42
-1216.39
-1231.67
-1242.97
-1249.98
-1252.36
-1249.83
-1242.66
-1231.2
-1215.76
-1196.6
-1173.95
-1147.97
-1118.74
-1086.27
-1050.53
-1011.47
-969.035
-923.244
-874.076
-822.087
-767.958
-712.527
-656.822
-602.074
-549.737
-501.484
-459.181
-424.826
-400.431
-387.856
-388.576
-402.466
-427.99
-463.263
-506.265
-555.009
-607.647
-662.529
-718.226
-773.527
-827.428
-879.107
-927.893
-973.359
-1015.44
-1054.16
-1089.55
-1121.69
-1150.6
-1176.26
-1198.58
-1217.39
-1232.46
-1243.53
-1250.26
-1252.32
-1249.49
-1242.05
-1230.35
-1214.71
-1195.39
-1172.62
-1146.56
-1117.27
-1084.78
-1049.04
-1010
-967.602
-921.862
-872.77
-820.878
-766.863
-711.559
-655.986
-601.373
-549.165
-501.032
-458.834
-424.565
-400.234
-387.698
-342.147
-354.472
-377.047
-408.188
-446.128
-489.16
-535.722
-584.437
-634.121
-683.778
-732.579
-779.841
-824.994
-867.65
-907.547
-944.537
-978.547
-1009.54
-1037.47
-1062.27
-1083.84
-1102.03
-1116.62
-1127.39
-1134.06
-1136.31
-1133.88
-1127.05
-1116.11
-1101.33
-1082.94
-1061.15
-1036.11
-1007.91
-976.622
-942.29
-904.958
-864.711
-821.723
-776.192
-728.597
-679.518
-629.659
-579.868
-531.169
-484.771
-442.077
-404.673
-374.28
-352.666
-341.496
-342.14
-354.477
-377.092
-408.296
-446.323
-489.461
-536.142
-584.985
-634.8
-684.587
-733.509
-780.879
-826.123
-868.854
-908.805
-945.827
-979.843
-1010.81
-1038.7
-1063.42
-1084.88
-1102.92
-1117.33
-1127.89
-1134.31
-1136.28
-1133.58
-1126.5
-1115.34
-1100.38
-1081.85
-1059.95
-1034.82
-1006.57
-975.264
-940.935
-903.63
-863.435
-820.521
-775.075
-727.582
-678.62
-628.885
-579.225
-530.655
-484.38
-441.799
-404.492
-374.179
-352.623
-341.49
-294.006
-304.14
-322.644
-348.107
-379.084
-414.204
-452.235
-492.112
-532.937
-573.969
-614.607
-654.37
-692.872
-729.855
-764.869
-797.636
-827.981
-855.779
-880.925
-903.305
-922.787
-939.21
-952.387
-962.102
-968.111
-970.137
-967.936
-961.755
-951.865
-938.507
-921.891
-902.203
-879.599
-854.21
-826.151
-795.529
-762.474
-727.172
-689.912
-651.148
-611.145
-570.303
-529.121
-488.219
-448.359
-410.462
-375.614
-345.07
-320.212
-302.492
-293.306
-293.839
-303.985
-322.523
-348.043
-379.096
-414.308
-452.446
-492.439
-533.386
-574.541
-615.299
-655.175
-693.782
-730.846
-765.92
-798.724
-829.081
-856.867
-881.974
-904.288
-923.674
-939.972
-952.995
-962.526
-968.324
-970.109
-967.671
-961.28
-951.209
-937.697
-920.956
-901.172
-878.5
-853.071
-824.997
-794.387
-761.37
-726.135
-688.987
-650.303
-610.399
-569.668
-528.602
-487.818
-448.074
-410.285
-375.536
-345.076
-320.287
-302.616
-293.461
-249.356
-256.574
-269.676
-287.606
-309.308
-333.808
-360.253
-387.931
-416.266
-444.81
-473.232
-501.309
-528.921
-556.023
-582.051
-606.672
-629.673
-650.899
-670.219
-687.501
-702.608
-715.386
-725.668
-733.267
-737.98
-739.57
-737.827
-732.966
-725.217
-714.782
-701.844
-686.568
-669.106
-649.597
-628.17
-604.96
-580.127
-553.891
-526.599
-498.831
-470.599
-442.04
-413.388
-384.991
-357.312
-330.945
-306.621
-285.208
-267.694
-255.141
-248.597
-248.981
-256.209
-269.338
-287.312
-309.073
-333.646
-360.176
-387.948
-416.383
-445.031
-473.561
-501.748
-529.47
-556.657
-582.75
-607.416
-630.441
-651.672
-670.973
-688.215
-703.258
-715.949
-726.119
-733.584
-738.14
-739.549
-737.628
-732.611
-724.73
-714.185
-701.159
-685.819
-668.316
-648.788
-627.364
-604.18
-579.395
-553.235
-526.057
-498.38
-470.244
-441.782
-413.228
-384.927
-357.34
-331.058
-306.81
-285.461
-268
-255.485
-248.964
-169.55
-173.887
-181.717
-192.379
-205.22
-219.651
-235.172
-251.377
-267.953
-284.682
-301.435
-318.187
-335.037
-352.156
-368.927
-385.023
-400.238
-414.424
-427.448
-439.185
-449.504
-458.273
-465.354
-470.601
-473.861
-474.962
-473.75
-470.381
-465.025
-457.836
-448.954
-438.519
-426.663
-413.514
-399.2
-383.854
-367.63
-350.737
-333.517
-316.606
-299.78
-282.951
-266.158
-249.54
-233.328
-217.844
-203.507
-190.83
-180.411
-172.904
-168.972
-169.205
-173.549
-181.397
-192.086
-204.965
-219.444
-235.02
-251.285
-267.928
-284.728
-301.559
-318.396
-335.343
-352.533
-369.358
-385.492
-400.733
-414.928
-427.946
-439.659
-449.938
-458.651
-465.658
-470.815
-473.97
-474.948
-473.614
-470.141
-464.697
-457.434
-448.497
-438.021
-426.142
-412.987
-398.682
-383.362
-367.18
-350.349
-333.217
-316.395
-299.646
-282.888
-266.161
-249.606
-233.453
-218.024
-203.735
-191.099
-180.712
-173.23
-169.312
-253.492
-251.426
-247.274
-240.992
-232.61
-222.237
-210.048
-196.276
-181.2
-165.134
-148.423
-131.467
-114.782
-99.0273
-83.975
-69.7091
-56.3762
-44.1249
-33.0884
-23.3784
-15.0837
-8.26927
-2.97723
0.773534
2.98813
3.70066
2.95998
0.715681
-3.06542
-8.38777
-15.2318
-23.5547
-33.2905
-44.3494
-56.6184
-69.9631
-84.2338
-99.2834
-115.032
-131.724
-148.639
-165.276
-181.24
-196.186
-209.803
-221.816
-231.997
-240.174
-246.247
-250.194
-252.065
-251.976
-249.913
-245.764
-239.487
-231.112
-220.748
-208.57
-194.814
-179.759
-163.72
-147.047
-130.144
-113.542
-97.8572
-82.8773
-68.6901
-55.4429
-43.2843
-32.3465
-22.7405
-14.5538
-7.85031
-2.67053
0.968086
3.07248
3.6793
2.83223
0.477257
-3.41635
-8.85123
-15.8063
-24.2374
-34.0772
-45.2348
-57.5963
-71.0268
-85.3768
-100.5
-116.321
-133.095
-150.06
-166.73
-182.718
-197.681
-211.31
-223.33
-233.514
-241.693
-247.768
-251.714
-253.583
)
;

boundaryField
{
    top
    {
        type            fixedValue;
        value           uniform 0;
    }
    bottom
    {
        type            fixedFluxPressure;
        gradient        nonuniform List<scalar> 
102
(
0
0
0
0
0
0
0
0
0
0
0
0
0
0
0
0
0
0
0
0
0
0
0
0
0
0
0
0
0
0
0
0
0
0
0
0
0
0
0
0
0
0
0
0
0
0
0
0
0
0
0
0
0
0
0
0
0
0
0
0
0
0
0
0
0
0
0
0
0
0
0
0
0
0
0
0
0
0
0
0
0
0
0
0
0
0
0
0
0
0
0
0
0
0
0
0
0
0
0
0
0
-2.07549e-14
)
;
        value           nonuniform List<scalar> 
102
(
-966.8
-970.666
-977.992
-988.378
-1001.26
-1016.01
-1032.2
-1050.07
-1070.82
-1096.04
-1126.51
-1161.45
-1199.19
-1238.02
-1276.19
-1312.03
-1344.24
-1371.99
-1394.41
-1410.61
-1420.98
-1426.54
-1428.69
-1428.98
-1428.64
-1428.42
-1428.58
-1428.85
-1428.48
-1426.23
-1420.56
-1410.06
-1393.73
-1371.18
-1343.3
-1310.98
-1275.05
-1236.85
-1198.06
-1160.45
-1125.71
-1095.5
-1070.51
-1049.92
-1032.18
-1016.14
-1001.6
-988.981
-978.916
-971.954
-968.474
-968.67
-972.528
-979.838
-990.199
-1003.04
-1017.76
-1033.94
-1051.9
-1072.86
-1098.39
-1129.14
-1164.26
-1202.1
-1240.93
-1278.98
-1314.6
-1346.49
-1373.87
-1395.8
-1411.48
-1421.42
-1426.65
-1428.63
-1428.86
-1428.56
-1428.42
-1428.65
-1428.95
-1428.52
-1426.06
-1420.05
-1409.11
-1392.25
-1369.22
-1340.97
-1308.35
-1272.2
-1233.9
-1195.12
-1157.61
-1123.07
-1093.14
-1068.46
-1048.08
-1030.42
-1014.37
-999.786
-987.138
-977.054
-970.082
-966.601
)
;
    }
    frontAndBack
    {
        type            empty;
    }
    left_cyc
    {
        type            cyclic;
    }
    right_cyc
    {
        type            cyclic;
    }
}


// ************************************************************************* //
