/*--------------------------------*- C++ -*----------------------------------*\
| =========                 |                                                 |
| \\      /  F ield         | OpenFOAM: The Open Source CFD Toolbox           |
|  \\    /   O peration     | Version:  2.3.0                                 |
|   \\  /    A nd           | Web:      www.OpenFOAM.org                      |
|    \\/     M anipulation  |                                                 |
\*---------------------------------------------------------------------------*/
FoamFile
{
    version     2.0;
    format      ascii;
    class       volScalarField;
    location    "21000";
    object      p_rgh;
}
// * * * * * * * * * * * * * * * * * * * * * * * * * * * * * * * * * * * * * //

dimensions      [0 2 -2 0 0 0 0];

internalField   nonuniform List<scalar> 
3060
(
-38.858
-42.1047
-48.1611
-56.9662
-68.4516
-82.5575
-99.2394
-118.455
-140.136
-164.144
-190.252
-218.118
-247.266
-277.049
-306.597
-334.86
-360.775
-383.449
-402.16
-416.565
-426.931
-433.815
-438.027
-440.391
-441.536
-441.824
-441.355
-439.972
-437.255
-432.519
-424.923
-413.693
-398.333
-378.684
-355.212
-328.678
-300.021
-270.326
-240.62
-211.72
-184.233
-158.604
-135.148
-114.071
-95.4899
-79.4667
-66.0412
-55.2615
-47.1901
-41.8944
-39.4303
-39.8288
-43.0842
-49.1578
-57.9887
-69.5094
-83.6611
-100.399
-119.682
-141.436
-165.521
-191.703
-219.634
-248.826
-278.621
-308.134
-336.305
-362.073
-384.553
-403.033
-417.209
-427.366
-434.083
-438.177
-440.466
-441.564
-441.817
-441.312
-439.876
-437.072
-432.204
-424.429
-412.983
-397.388
-377.516
-353.862
-327.196
-298.462
-268.747
-239.064
-210.215
-182.795
-157.242
-133.863
-112.858
-94.3418
-78.3727
-64.9907
-54.2444
-46.1971
-40.9169
-38.4602
-66.7732
-69.444
-74.4602
-81.8339
-91.5893
-103.755
-118.344
-135.328
-154.611
-176.011
-199.259
-223.969
-249.6
-275.442
-300.805
-325.412
-349.088
-370.91
-389.41
-403.742
-414.274
-421.634
-426.53
-429.575
-431.199
-431.636
-430.94
-429.022
-425.606
-420.218
-412.214
-400.883
-385.629
-366.271
-343.913
-319.98
-295.2
-269.685
-243.833
-218.369
-193.972
-171.146
-150.249
-131.528
-115.146
-101.18
-89.6463
-80.5252
-73.7872
-69.4101
-67.385
-67.712
-70.3907
-75.4224
-82.8201
-92.6088
-104.817
-119.459
-136.503
-155.848
-177.311
-200.614
-225.366
-251.013
-276.839
-302.16
-326.726
-350.334
-372.012
-390.291
-404.398
-414.738
-421.946
-426.727
-429.688
-431.248
-431.626
-430.871
-428.883
-425.376
-419.863
-411.695
-400.163
-384.676
-365.114
-342.636
-318.649
-293.828
-268.275
-242.416
-216.976
-192.626
-169.858
-149.024
-130.367
-114.042
-100.127
-88.6342
-79.5443
-72.8286
-68.4655
-66.4468
-81.4726
-84.3563
-89.7326
-97.5451
-107.706
-120.084
-134.491
-150.694
-168.438
-187.486
-207.634
-228.722
-250.638
-273.332
-296.714
-320.082
-341.964
-361.206
-377.935
-392.391
-403.748
-411.61
-416.837
-420.202
-422.081
-422.603
-421.779
-419.586
-415.85
-410.115
-401.541
-389.399
-374.406
-357.167
-337.314
-314.974
-291.516
-268.273
-245.767
-224.055
-203.195
-183.312
-164.58
-147.211
-131.453
-117.558
-105.752
-96.2072
-89.0452
-84.344
-82.1547
-82.5093
-85.4009
-90.7922
-98.6259
-108.813
-121.22
-135.657
-151.889
-169.661
-188.732
-208.901
-230.007
-251.942
-274.656
-298.047
-321.365
-343.111
-362.195
-378.797
-393.111
-404.262
-411.951
-417.06
-420.337
-422.141
-422.591
-421.695
-419.424
-415.594
-409.727
-400.964
-388.628
-373.505
-356.131
-336.117
-313.662
-290.176
-266.949
-244.463
-222.769
-201.928
-182.068
-163.361
-146.02
-130.291
-116.427
-104.649
-95.1306
-87.9888
-83.3013
-81.1187
-61.8649
-64.8955
-70.5226
-78.6564
-89.171
-101.897
-116.62
-133.087
-151.029
-170.199
-190.392
-211.467
-233.332
-255.91
-278.945
-301.615
-322.862
-342.429
-360.392
-375.563
-387.731
-397.288
-403.688
-407.776
-410.117
-410.788
-409.741
-407.031
-402.504
-395.452
-385.253
-372.505
-356.626
-338.251
-318.35
-296.732
-273.895
-250.932
-228.517
-206.844
-185.984
-166.039
-147.167
-129.584
-113.55
-99.3308
-87.1733
-77.2822
-69.8157
-64.8901
-62.5876
-62.9614
-65.9998
-71.6413
-79.7952
-90.3342
-103.087
-117.837
-134.329
-152.295
-171.484
-191.697
-212.79
-234.674
-257.268
-280.299
-302.906
-324.047
-343.52
-361.354
-376.332
-388.353
-397.731
-403.97
-407.95
-410.198
-410.772
-409.629
-406.825
-402.18
-394.949
-384.59
-371.678
-355.613
-337.131
-317.129
-295.409
-272.524
-249.57
-227.175
-205.521
-184.68
-164.753
-145.902
-128.344
-112.336
-98.1447
-86.0141
-76.147
-68.6999
-63.7877
-61.4917
-31.2962
-34.3448
-39.9933
-48.1416
-58.6601
-71.3884
-86.1382
-102.7
-120.856
-140.392
-161.109
-182.816
-205.314
-228.357
-251.583
-274.451
-296.488
-317.747
-337.996
-355.495
-369.437
-380.076
-387.759
-392.984
-396.063
-396.965
-395.567
-392.03
-386.294
-378.027
-366.671
-351.98
-333.734
-313.159
-291.748
-269.512
-246.516
-223.295
-200.359
-178.037
-156.56
-136.124
-116.922
-99.1578
-83.0485
-68.8122
-56.6547
-46.7583
-39.276
-34.3299
-32.0129
-32.3896
-35.4453
-41.107
-49.2741
-59.8158
-72.5708
-87.3494
-103.941
-122.126
-141.692
-162.436
-184.168
-206.686
-229.739
-252.956
-275.786
-297.773
-318.993
-339.134
-356.421
-370.158
-380.602
-388.129
-393.22
-396.176
-396.944
-395.415
-391.755
-385.879
-377.446
-365.891
-350.988
-332.547
-311.897
-290.445
-268.159
-245.133
-221.909
-198.986
-176.686
-155.236
-134.828
-115.655
-97.9206
-81.8413
-67.6337
-55.5027
-45.629
-38.1647
-33.231
-30.92
0.767557
-2.39489
-8.23896
-16.6454
-27.4655
-40.5238
-55.6234
-72.554
-91.1031
-111.066
-132.25
-154.473
-177.55
-201.26
-225.303
-249.299
-272.714
-295.097
-315.97
-334.858
-350.837
-362.648
-370.847
-376.378
-380.002
-381.152
-379.395
-375.344
-369.324
-360.433
-347.708
-330.937
-311.58
-290.318
-267.667
-244.079
-220.03
-196.034
-172.455
-149.568
-127.585
-106.691
-87.0695
-68.9177
-52.4442
-37.8628
-25.3821
-15.1946
-7.46984
-2.3492
0.0557492
-0.335928
-3.50538
-9.36255
-17.7875
-28.6308
-41.7159
-56.8449
-73.8067
-92.3879
-112.383
-133.599
-155.853
-178.957
-202.686
-226.735
-250.711
-274.081
-296.397
-317.169
-335.932
-351.679
-363.239
-371.247
-376.65
-380.148
-381.125
-379.204
-375.04
-368.871
-359.773
-346.789
-329.818
-310.346
-288.993
-266.283
-242.658
-218.603
-194.61
-171.051
-148.192
-126.24
-105.377
-85.7885
-67.669
-51.2266
-36.6746
-24.2203
-14.0554
-6.34852
-1.24014
1.15874
33.6932
30.377
24.2642
15.4965
4.24564
-9.29245
-24.9058
-42.3762
-61.49
-82.0457
-103.859
-126.758
-150.573
-175.115
-200.146
-225.402
-250.422
-274.707
-297.598
-318.218
-335.428
-347.917
-355.737
-360.561
-363.541
-364.591
-363.026
-359.708
-354.371
-345.661
-332.068
-313.977
-292.771
-269.492
-244.989
-219.867
-194.616
-169.683
-145.296
-121.685
-99.0351
-77.5173
-57.3072
-38.5947
-21.5858
-6.49746
6.45227
17.0541
25.1171
30.4768
33.0002
32.5886
29.2652
23.139
14.3523
3.07744
-10.4887
-26.1334
-43.6377
-62.7872
-83.3801
-105.231
-128.167
-152.018
-176.591
-201.642
-226.899
-251.896
-276.127
-298.918
-319.382
-336.349
-348.533
-356.114
-360.794
-363.673
-364.563
-362.861
-359.436
-353.935
-344.956
-331.067
-312.759
-291.414
-268.05
-243.504
-218.366
-193.122
-168.212
-143.855
-120.28
-97.6676
-76.1877
-56.0145
-37.3376
-20.3625
-5.30514
7.61696
18.1954
26.24
31.5872
34.1043
65.3429
61.812
55.3205
46.0401
34.1766
19.9602
3.63293
-14.5642
-34.4031
-55.678
-78.2103
-101.846
-126.446
-151.867
-177.942
-204.469
-231.015
-257.051
-281.883
-304.577
-323.893
-337.973
-345.665
-349.021
-350.544
-350.999
-350.321
-348.53
-344.502
-335.493
-320.081
-299.879
-276.614
-251.433
-225.22
-198.624
-172.151
-146.217
-120.973
-96.5869
-73.2015
-50.9606
-30.0256
-10.5834
7.1529
22.95
36.5646
47.7559
56.2987
61.995
64.6832
64.2442
60.7057
54.2001
44.8995
33.0107
18.7644
2.40349
-15.8304
-35.7087
-57.0254
-79.6013
-103.282
-127.926
-153.39
-179.5
-206.046
-232.585
-258.582
-283.325
-305.868
-324.939
-338.646
-345.991
-349.171
-350.609
-350.985
-350.231
-348.342
-344.091
-334.702
-318.951
-298.535
-275.138
-249.884
-223.642
-197.047
-170.596
-144.7
-119.499
-95.1575
-71.8165
-49.6189
-28.7253
-9.32216
8.37778
24.1417
37.7269
48.8935
57.4168
63.0998
65.7814
95.0035
91.1831
84.1774
74.1983
61.4995
46.3615
29.0738
9.91744
-10.851
-33.011
-56.3846
-80.8355
-106.261
-132.574
-159.683
-187.422
-215.391
-243.059
-269.705
-294.365
-315.789
-332.255
-341.827
-345.15
-345.686
-345.711
-345.675
-344.819
-340.406
-329.234
-311.496
-289.226
-264.022
-237.062
-209.259
-181.284
-153.639
-126.701
-100.579
-75.3669
-51.1553
-28.0569
-6.21985
14.1656
32.8677
49.6212
64.1405
76.1361
85.3322
91.4848
94.3949
93.9193
90.0907
83.0697
73.0688
60.3427
45.1725
27.8486
8.65233
-12.1592
-34.3653
-57.788
-82.2907
-107.769
-134.136
-161.295
-189.069
-217.047
-244.689
-271.259
-295.777
-316.968
-333.077
-342.213
-345.257
-345.705
-345.706
-345.64
-344.654
-339.901
-328.294
-310.237
-287.763
-262.437
-235.416
-207.597
-179.639
-152.032
-125.147
-99.079
-73.9196
-49.759
-26.7091
-4.91756
15.4253
34.0881
50.8059
65.2935
77.2624
86.4376
92.5757
95.4787
122.574
118.373
110.688
99.7834
85.9765
69.6178
51.0644
30.6564
8.69617
-14.5682
-38.951
-64.33
-90.6385
-117.848
-145.946
-174.785
-204.012
-233.122
-261.405
-287.896
-311.355
-330.237
-342.778
-348.491
-349.921
-350.067
-349.816
-347.77
-340.691
-326.633
-306.592
-282.336
-255.342
-226.786
-197.579
-168.381
-139.662
-111.751
-84.7308
-58.6188
-33.4531
-9.3149
13.6563
35.257
55.2228
73.2388
88.9571
102.019
112.08
118.835
122.036
121.513
117.303
109.601
98.6726
84.8359
68.4422
49.8495
29.3986
7.39177
-15.9227
-40.3595
-65.7965
-92.1665
-119.44
-147.6
-176.488
-205.739
-234.838
-263.058
-289.419
-312.662
-331.22
-343.341
-348.692
-349.961
-350.061
-349.746
-347.483
-340.004
-325.544
-305.212
-280.765
-253.66
-225.058
-195.85
-166.683
-138.016
-110.169
-83.2126
-57.1613
-32.0525
-7.96742
14.9544
36.5092
56.4325
74.4098
90.0937
103.127
113.165
119.903
123.097
148.398
143.713
135.159
123.066
107.834
89.9036
69.7229
47.7122
24.2379
-0.408491
-26.0224
-52.4882
-79.7714
-107.898
-136.928
-166.733
-197.019
-227.329
-256.984
-285.05
-310.332
-331.41
-346.785
-355.675
-359.326
-360.09
-358.869
-354.291
-344.014
-327.275
-305.139
-279.119
-250.595
-220.705
-190.329
-160.093
-130.417
-101.568
-73.6097
-46.4893
-20.1937
5.22193
29.6181
52.766
74.3518
93.9912
111.253
125.686
136.857
144.38
147.952
147.368
142.672
134.1
121.981
106.716
88.7474
68.5241
46.4671
22.943
-1.7571
-27.429
-53.9579
-81.3091
-109.508
-138.611
-168.475
-198.798
-229.11
-258.716
-286.667
-311.751
-332.536
-347.533
-356.046
-359.447
-360.071
-358.69
-353.822
-343.151
-326.053
-303.651
-277.458
-248.837
-218.915
-188.551
-158.358
-128.745
-99.9695
-72.0831
-45.0294
-18.7955
6.56315
30.9066
54.0053
75.5453
95.1428
112.366
126.768
137.913
145.419
148.982
173.043
167.761
158.132
144.565
127.562
107.675
85.4661
61.4576
36.1001
9.74506
-17.3704
-45.1267
-73.5132
-102.604
-132.513
-163.142
-194.273
-225.504
-256.206
-285.491
-312.219
-335.067
-352.7
-364.249
-370.094
-371.563
-369.255
-362.277
-349.381
-330.501
-306.676
-279.265
-249.562
-218.653
-187.372
-156.295
-125.78
-96.0201
-67.0595
-38.7831
-11.1362
15.8432
42.004
67.077
90.6816
112.344
131.525
147.661
160.207
168.681
172.708
172.05
166.757
157.108
143.511
126.471
106.543
84.2878
60.2297
34.8192
8.40757
-18.769
-46.592
-75.0513
-104.22
-134.208
-164.906
-196.083
-227.327
-257.993
-287.176
-313.723
-336.305
-353.592
-364.771
-370.303
-371.529
-368.965
-361.652
-348.383
-329.177
-305.108
-277.539
-247.754
-216.823
-185.565
-154.541
-124.097
-94.4172
-65.5334
-37.328
-9.74612
17.1734
43.2784
68.2992
91.8547
113.471
132.611
148.712
161.229
169.683
173.7
197.132
191.139
180.227
164.896
145.767
123.528
98.8757
72.4554
44.821
16.4008
-12.5205
-41.8057
-71.4567
-101.586
-132.327
-163.65
-195.41
-227.274
-258.665
-288.751
-316.453
-340.528
-359.728
-373.121
-380.551
-382.554
-379.427
-370.733
-356.025
-335.656
-310.665
-282.322
-251.843
-220.258
-188.343
-156.62
-125.375
-94.7194
-64.6646
-35.0521
-5.79771
23.0648
51.3581
78.7573
104.797
128.894
150.382
168.561
182.751
192.359
196.928
196.182
190.176
179.241
163.877
144.708
122.424
97.7212
71.2478
43.5576
15.0783
-13.906
-43.2597
-72.986
-103.198
-134.02
-165.415
-197.228
-229.113
-260.478
-290.473
-318.01
-341.838
-360.716
-373.745
-380.825
-382.509
-379.056
-370.004
-354.938
-334.265
-309.05
-280.562
-250.012
-218.413
-186.53
-154.866
-123.695
-93.1221
-63.147
-33.6078
-4.4203
24.3803
52.6154
79.9593
105.947
129.994
151.436
169.575
183.734
193.32
197.877
221.248
214.436
202.043
184.671
163.08
138.112
110.617
81.3828
51.0821
20.2351
-10.8103
-41.8812
-72.977
-104.232
-135.785
-167.69
-199.881
-232.101
-263.822
-294.27
-322.441
-347.166
-367.258
-381.736
-390.121
-392.456
-388.82
-379.098
-363.325
-342.117
-316.52
-287.734
-256.902
-224.98
-192.691
-160.499
-128.614
-97.0653
-65.7999
-34.649
-3.51287
27.5644
58.3607
88.4806
117.359
144.286
168.449
188.991
205.084
216.001
221.192
220.345
213.52
201.1
183.691
162.056
137.038
109.489
80.1977
49.8383
18.9303
-12.1787
-43.3182
-74.4888
-105.825
-137.459
-169.437
-201.685
-233.931
-265.63
-295.997
-324.014
-348.507
-368.296
-382.417
-390.433
-392.404
-388.403
-378.312
-362.193
-340.699
-314.892
-285.973
-255.076
-223.147
-190.892
-158.762
-126.952
-95.4815
-64.2979
-33.2205
-2.15143
28.8627
59.5987
89.6603
118.483
145.356
169.468
189.966
206.023
216.915
222.094
245.888
238.161
224.11
204.455
180.111
152.087
121.4
88.9955
55.6762
22.0649
-11.4146
-44.5285
-77.2565
-109.732
-142.103
-174.507
-206.962
-239.309
-271.016
-301.394
-329.533
-354.351
-374.729
-389.681
-398.551
-401.064
-397.153
-386.918
-370.701
-349.248
-323.588
-294.846
-264.075
-232.131
-199.683
-167.171
-134.71
-102.25
-69.6467
-36.7491
-3.45929
30.1534
63.7949
96.9898
129.062
159.164
186.321
209.507
227.727
240.108
245.996
245.037
237.294
223.213
203.518
179.124
151.045
120.3
87.8346
54.4536
20.7794
-12.7631
-45.9436
-78.7432
-111.295
-143.744
-176.219
-208.73
-241.106
-272.791
-303.091
-331.085
-355.686
-375.776
-390.384
-398.88
-401.008
-396.715
-386.111
-369.564
-347.841
-321.984
-293.116
-262.284
-230.33
-197.92
-165.469
-133.081
-100.697
-68.1685
-35.3407
-2.11595
31.4328
65.0121
98.1458
130.158
160.201
187.303
210.441
228.62
240.973
246.847
271.45
262.726
246.877
224.753
197.433
166.108
131.969
96.1212
59.5067
22.8516
-13.3443
-48.7357
-83.2778
-117.077
-150.297
-183.146
-215.708
-247.87
-279.243
-309.21
-336.94
-361.442
-381.67
-396.657
-405.661
-408.235
-404.227
-393.86
-377.642
-356.375
-331.054
-302.723
-272.345
-240.705
-208.373
-175.673
-142.67
-109.247
-75.1837
-40.344
-4.65687
31.7813
68.5443
105.09
140.627
174.16
204.551
230.595
251.117
265.087
271.735
270.652
261.911
246.029
223.86
196.486
165.1
130.898
94.9861
58.3069
21.5853
-14.6704
-50.125
-84.7334
-118.602
-151.891
-184.805
-217.418
-249.604
-280.957
-310.852
-338.445
-362.742
-382.698
-397.357
-405.992
-408.179
-403.787
-393.061
-376.528
-355.007
-329.5
-301.05
-270.615
-238.967
-206.666
-174.021
-141.085
-107.731
-73.7349
-38.9592
-3.33189
33.0403
69.7392
106.221
141.693
175.163
205.494
231.483
251.961
265.9
272.531
298.24
288.455
270.711
246.006
215.591
180.835
143.107
103.668
63.603
23.7625
-15.2488
-53.0621
-89.5528
-124.771
-158.901
-192.204
-224.823
-256.709
-287.574
-316.894
-343.937
-367.812
-387.559
-402.259
-411.148
-413.702
-409.721
-399.495
-383.601
-362.846
-338.168
-310.517
-280.755
-249.572
-217.437
-184.584
-151.015
-116.555
-80.9304
-44.0099
-5.7832
33.568
73.6043
113.655
152.801
189.902
223.653
252.672
275.606
291.256
298.715
297.5
287.695
269.915
245.161
214.686
179.865
142.068
102.562
62.4295
22.5244
-16.5479
-54.4211
-90.9717
-126.249
-160.439
-193.798
-226.46
-258.364
-289.208
-318.458
-345.372
-369.055
-388.547
-402.936
-411.471
-413.647
-409.293
-398.723
-382.532
-361.539
-336.685
-308.923
-279.105
-247.911
-215.801
-182.995
-149.483
-115.083
-79.5163
-42.654
-4.48602
34.8031
74.7748
114.759
153.836
190.868
224.553
253.513
276.398
292.013
299.455
326.522
315.655
296.009
268.74
235.267
197.131
155.859
112.858
69.3365
26.261
-15.6684
-56.0104
-94.5615
-131.299
-166.43
-200.254
-232.958
-264.553
-294.837
-323.386
-349.572
-372.618
-391.665
-405.864
-414.476
-416.957
-413.083
-403.175
-387.823
-367.798
-343.956
-317.145
-288.113
-257.443
-225.51
-192.466
-158.255
-122.66
-85.3724
-46.2622
-5.39457
36.967
80.3104
123.861
166.583
207.202
244.265
276.228
301.563
318.905
327.197
325.843
314.955
295.27
267.946
234.409
196.202
154.857
111.783
68.1925
25.0519
-16.9378
-57.3361
-95.94
-132.726
-167.907
-201.777
-234.514
-266.119
-296.379
-324.858
-350.923
-373.789
-392.597
-406.505
-414.783
-416.904
-412.676
-402.445
-386.815
-366.567
-342.561
-315.643
-286.554
-255.87
-223.953
-190.946
-156.781
-121.236
-83.9962
-44.9376
-4.12573
38.1751
81.4529
124.934
167.582
208.127
245.119
277.017
302.299
319.603
327.875
356.525
344.627
323.187
293.514
257.187
215.895
171.3
124.931
78.1043
31.8851
-12.9341
-55.8252
-96.4957
-134.836
-171.077
-205.531
-238.413
-269.783
-299.512
-327.272
-352.546
-374.673
-392.906
-406.487
-414.731
-417.109
-413.388
-403.898
-389.206
-370.017
-347.094
-321.169
-292.872
-262.68
-230.875
-197.541
-162.577
-125.742
-86.715
-45.3668
-1.85185
43.4766
90.0187
136.906
182.998
226.911
267.066
301.778
329.368
348.31
357.397
355.91
343.99
322.508
292.777
256.38
215.012
170.339
123.893
76.9941
30.7083
-14.1708
-57.115
-97.8315
-136.21
-172.49
-206.979
-239.883
-271.254
-300.955
-328.645
-353.803
-375.762
-393.774
-407.085
-415.019
-417.06
-413.008
-403.217
-388.267
-368.872
-345.795
-319.766
-291.412
-261.199
-229.401
-196.092
-161.164
-124.368
-85.3785
-44.0756
-0.613627
44.6544
91.1289
137.942
183.956
227.79
267.869
302.511
330.044
348.945
358.011
388.415
375.612
352.61
320.859
282.071
238.056
190.577
141.25
91.4743
42.3937
-5.11735
-50.4431
-93.1966
-133.171
-170.611
-205.819
-239.013
-270.287
-299.572
-326.625
-351.036
-372.261
-389.668
-402.599
-410.444
-412.707
-409.156
-400.115
-386.11
-367.765
-345.736
-320.639
-292.989
-263.159
-231.35
-197.592
-161.758
-123.605
-82.8242
-39.295
6.73029
54.8048
104.242
154.092
203.134
249.901
292.723
329.806
359.348
379.687
389.475
387.87
375.042
351.996
320.184
281.323
237.227
189.664
140.256
90.4037
41.2541
-6.31728
-51.6938
-94.4879
-134.491
-171.961
-207.192
-240.399
-271.665
-300.915
-327.897
-352.197
-373.264
-390.467
-403.15
-410.71
-412.661
-408.804
-399.487
-385.245
-366.708
-344.534
-319.337
-291.627
-261.769
-229.957
-196.213
-160.404
-122.281
-81.5289
-38.0401
7.93404
55.9472
105.314
155.085
204.045
250.728
293.468
330.477
359.958
380.253
390.02
422.309
408.801
384.605
351.283
310.647
264.581
214.909
163.296
111.186
59.7733
9.99556
-37.4545
-82.0987
-123.629
-162.289
-198.337
-231.976
-263.31
-292.311
-318.807
-342.485
-362.909
-379.558
-391.88
-399.342
-401.493
-398.105
-389.493
-376.128
-358.55
-337.307
-312.902
-285.745
-256.116
-224.152
-189.847
-153.071
-113.603
-71.1753
-25.6885
22.506
72.8726
124.651
176.83
228.142
277.072
321.899
360.766
391.788
413.199
423.536
421.838
408.305
384.062
350.677
309.963
263.813
214.053
162.354
110.163
58.6785
8.83903
-38.661
-83.3423
-124.896
-163.576
-199.639
-233.281
-264.598
-293.558
-319.983
-343.553
-363.829
-380.29
-392.384
-399.586
-401.45
-397.783
-388.918
-375.336
-357.58
-336.2
-311.697
-284.476
-254.812
-222.836
-188.536
-151.775
-112.329
-69.9238
-24.4744
23.6689
73.9719
125.676
177.773
228.997
277.837
322.579
361.369
392.327
413.693
424.007
458.275
444.347
419.466
385.275
343.634
296.455
245.571
192.645
139.125
86.2184
34.8954
-14.0964
-60.2029
-103.024
-142.77
-179.634
-213.774
-245.282
-274.149
-300.256
-323.364
-343.133
-359.144
-370.94
-378.067
-380.118
-376.874
-368.634
-355.817
-338.879
-318.271
-294.393
-267.564
-237.993
-205.773
-170.884
-133.217
-92.5984
-48.8316
-1.85601
47.8874
99.7917
153.047
206.615
259.215
309.334
355.249
395.09
426.939
448.971
459.639
457.883
443.929
419.002
384.744
343.024
295.758
244.782
191.766
138.162
85.1797
33.7928
-15.2495
-61.392
-104.234
-143.997
-180.869
-215.003
-246.487
-275.309
-301.342
-324.345
-343.975
-359.812
-371.4
-378.289
-380.079
-376.579
-368.109
-355.093
-337.99
-317.252
-293.277
-266.382
-236.77
-204.53
-169.638
-131.979
-91.3766
-47.6294
-0.691039
48.9994
100.837
154.013
207.494
260.002
310.029
355.855
395.616
427.4
449.386
460.03
496.34
482.36
457.452
423.288
381.726
334.65
283.842
230.912
177.262
124.066
72.2884
22.6954
-24.1126
-67.6675
-108.113
-145.547
-180.063
-211.716
-240.494
-266.305
-288.965
-308.205
-323.692
-335.05
-341.895
-343.862
-340.737
-332.808
-320.444
-304.03
-283.93
-260.463
-233.879
-204.337
-171.912
-136.594
-98.317
-56.9807
-12.4846
35.1715
85.4825
137.801
191.304
244.968
297.548
347.581
393.398
433.172
465.011
487.084
497.802
496.033
482.028
457.072
422.842
381.201
334.035
283.134
230.112
176.374
123.1
71.2555
21.611
-25.2329
-68.8127
-109.275
-146.714
-181.22
-212.844
-241.573
-267.31
-289.868
-308.977
-324.302
-335.47
-342.098
-343.826
-340.467
-332.328
-319.782
-303.214
-282.99
-259.429
-232.776
-203.19
-170.74
-135.413
-97.1405
-55.8184
-11.3429
36.2734
86.5276
138.775
192.195
245.768
298.254
348.192
393.919
433.614
465.387
487.414
498.108
536.496
522.911
498.769
465.717
425.552
380.065
330.934
279.658
227.538
175.668
124.957
76.1434
29.828
-13.5003
-53.8737
-91.2796
-125.728
-157.22
-185.72
-211.137
-233.317
-252.04
-267.035
-277.99
-284.579
-286.469
-283.452
-275.806
-263.862
-247.942
-228.348
-205.339
-179.118
-149.824
-117.533
-82.2691
-44.0266
-2.79655
41.4053
88.4991
137.958
189.141
241.26
293.354
344.266
392.636
436.905
475.353
506.17
527.579
538.003
536.28
522.67
498.482
465.366
425.123
379.548
330.324
278.955
226.745
174.795
124.015
75.1502
28.8071
-14.5659
-54.9616
-92.3726
-126.809
-158.271
-186.72
-212.064
-234.146
-252.747
-267.592
-278.373
-284.764
-286.436
-283.205
-275.369
-263.256
-247.194
-227.484
-204.383
-178.095
-148.754
-116.436
-81.1611
-42.9227
-1.70891
42.4673
89.5162
138.914
190.022
242.055
294.056
344.873
393.149
437.33
475.7
506.454
527.817
538.219
578.697
566.023
543.559
512.868
475.621
433.456
387.886
340.25
291.696
243.187
195.523
149.363
105.257
63.6179
24.5974
-11.6866
-45.1581
-75.7541
-103.399
-127.988
-149.372
-167.359
-181.717
-192.181
-198.466
-200.267
-197.38
-190.076
-178.653
-163.391
-144.544
-122.337
-96.9489
-68.5171
-37.1393
-2.8864
34.1764
73.9621
116.332
161.112
207.815
255.863
304.556
353.05
400.327
445.183
486.224
521.891
550.521
570.456
580.19
578.578
565.881
543.374
512.623
475.302
433.053
387.395
339.668
291.025
242.434
194.698
148.48
104.334
62.649
23.603
-12.6884
-46.1495
-76.7167
-104.314
-128.833
-150.126
-168
-182.222
-192.528
-198.634
-200.237
-197.157
-189.68
-178.104
-162.711
-143.757
-121.464
-96.0119
-67.5358
-36.1323
-1.87091
35.1845
74.9485
117.284
162.013
208.65
256.62
305.228
353.631
400.816
445.581
486.538
522.132
550.703
570.596
580.309
622.865
611.669
591.885
564.924
532.266
495.34
455.441
413.697
371.059
328.315
286.105
244.952
205.285
167.405
131.626
98.1651
67.1753
38.7784
13.0912
-9.75652
-29.6117
-46.2933
-59.5927
-69.2775
-75.0934
-76.7596
-74.0797
-67.3137
-56.7332
-42.5857
-25.097
-4.46812
19.1273
45.5424
74.6515
106.337
140.469
176.875
215.306
255.494
297.063
339.559
382.429
424.991
466.411
505.688
541.641
572.93
598.099
615.67
624.277
622.849
611.633
591.811
564.796
532.072
495.07
455.089
413.261
370.54
327.716
285.432
244.214
204.493
166.568
130.76
97.2878
66.3035
37.9299
12.2845
-10.5024
-30.2772
-46.8585
-60.038
-69.5837
-75.2422
-76.7328
-73.8824
-66.9638
-56.2492
-41.9867
-24.4026
-3.69798
19.9538
46.4068
75.536
107.224
141.343
177.72
216.106
256.237
297.738
340.158
382.945
425.422
466.758
505.953
541.831
573.054
598.17
615.704
624.293
668.891
659.767
643.708
621.904
595.582
565.903
533.9
500.45
466.274
431.946
397.911
364.506
331.981
300.482
270.441
242.143
215.787
191.532
169.52
149.895
132.812
118.443
106.977
98.6192
93.5933
92.1517
94.4761
100.326
109.46
121.659
136.724
154.47
174.731
197.354
222.195
249.109
277.926
308.424
340.276
373.141
406.825
441.057
475.471
509.586
542.787
574.31
603.231
628.474
648.851
663.13
670.152
668.984
659.844
643.754
621.905
595.528
565.786
533.713
500.191
465.942
431.541
397.436
363.965
331.377
299.831
269.758
241.442
215.085
190.844
168.862
149.283
132.265
117.977
106.609
98.3655
93.4694
92.1739
94.6398
100.616
109.859
122.152
137.294
155.1
175.404
198.054
222.906
249.815
278.612
309.073
340.871
373.676
407.294
441.456
475.797
509.839
542.968
574.423
603.281
628.47
648.803
663.052
670.058
716.66
710.199
698.897
683.657
665.389
644.933
623.019
600.243
577.07
553.844
530.797
508.058
485.659
463.553
442.222
421.96
402.962
385.376
369.334
354.967
342.409
331.807
323.318
317.107
313.357
312.278
314.021
318.386
325.171
334.201
345.311
358.348
373.17
389.642
407.633
427.008
447.606
469.208
491.471
514.033
536.932
560.11
583.412
606.574
629.22
650.848
670.822
688.378
702.65
712.718
717.701
716.87
710.396
699.071
683.799
665.49
644.988
623.022
600.191
576.961
553.677
530.571
507.772
485.31
463.156
441.791
421.506
402.497
384.912
368.885
354.545
342.028
331.48
323.057
316.925
313.268
312.294
314.139
318.591
325.453
334.546
345.707
358.781
373.627
390.111
408.101
427.462
448.033
469.594
491.799
514.303
537.146
560.268
583.513
606.619
629.212
650.789
670.717
688.234
702.474
712.52
717.492
765.999
762.75
757.167
749.793
741.158
731.73
721.893
711.937
702.059
692.371
682.899
673.58
664.245
654.634
645.186
636.109
627.52
619.497
612.109
605.424
599.519
594.476
590.39
587.363
585.51
584.969
585.844
587.998
591.301
595.64
600.916
607.039
613.927
621.505
629.705
638.456
647.671
657.211
666.814
676.176
685.573
695.145
704.931
714.881
724.861
734.648
743.925
752.284
759.234
764.236
766.754
766.33
763.073
757.478
750.086
741.428
731.974
722.107
712.12
702.208
692.484
682.971
673.608
664.219
654.568
645.086
635.984
627.375
619.339
611.945
605.262
599.365
594.339
590.277
587.281
585.468
584.975
585.897
588.088
591.421
595.782
601.073
607.203
614.09
621.661
629.846
638.576
647.761
657.263
666.812
676.129
685.487
695.023
704.775
714.693
724.642
734.4
743.652
751.989
758.921
763.911
766.423
816.934
817.371
818.328
819.921
822.232
825.301
829.125
833.659
838.819
844.491
850.526
856.734
862.847
868.483
873.841
878.924
883.681
888.053
891.985
895.43
898.35
900.721
902.53
903.777
904.475
904.659
904.363
903.543
902.171
900.236
897.741
894.702
891.148
887.117
882.659
877.83
872.689
867.273
861.54
855.392
849.227
843.289
837.756
832.767
828.429
824.816
821.963
819.861
818.457
817.66
817.347
817.392
817.828
818.784
820.375
822.683
825.749
829.569
834.097
839.251
844.913
850.935
857.125
863.207
868.819
874.154
879.211
883.941
888.285
892.188
895.602
898.492
900.832
902.61
903.826
904.496
904.655
904.332
903.483
902.08
900.114
897.588
894.518
890.933
886.873
882.387
877.532
872.365
866.923
861.157
854.988
848.809
842.86
837.32
832.325
827.983
824.367
821.511
819.407
818.001
817.202
816.889
)
;

boundaryField
{
    top
    {
        type            fixedFluxPressure;
        gradient        nonuniform List<scalar> 
102
(
1569.97
1691.67
1906.96
2200.95
2558.19
2963.95
3405.08
3870.38
4350.78
4839.38
5331.67
5826.3
6327.36
6846.43
7359.58
7855.8
8327.9
8770.05
9176.91
9543.38
9864.51
10135.5
10351.8
10509
10603
10629.7
10586.5
10477
10305.2
10075.2
9791.43
9458.52
9081.32
8664.82
8214.18
7734.88
7233.1
6716.88
6200.03
5700.36
5205.44
4712.92
4225.12
3747.24
3286.8
2853.48
2459.06
2117.23
1843.03
1651.95
1558.42
1573.94
1695.83
1911.48
2205.99
2563.85
2970.34
3412.25
3878.37
4359.61
4849.07
5342.27
5837.95
6340.51
6860.41
7374.03
7870.42
8342.41
8784.13
9190.23
9555.63
9875.36
10144.6
10358.9
10513.8
10605.3
10629.3
10583.4
10471.5
10297.4
10065.5
9780.07
9445.84
9067.65
8650.47
8199.48
7720.15
7218.66
6703.15
6187.8
5689.14
5195.07
4703.36
4216.38
3739.31
3279.68
2847.13
2453.43
2112.22
1838.53
1647.8
1554.46
)
;
        value           nonuniform List<scalar> 
102
(
843.1
845.565
850.111
856.604
864.868
874.7
885.877
898.165
911.332
925.147
939.387
953.839
968.303
982.59
996.501
1009.85
1022.48
1034.22
1044.93
1054.49
1062.76
1069.65
1075.06
1078.93
1081.19
1081.82
1080.81
1078.16
1073.92
1068.16
1060.93
1052.34
1042.5
1031.53
1019.56
1006.74
993.24
979.221
964.874
950.398
935.984
921.838
908.174
895.221
883.209
872.374
862.948
855.148
849.175
845.192
843.321
843.624
846.091
850.642
857.141
865.414
875.254
886.44
898.737
911.911
925.731
939.973
954.424
968.882
983.159
997.054
1010.38
1022.98
1034.69
1045.36
1054.86
1063.08
1069.91
1075.26
1079.06
1081.25
1081.81
1080.72
1078.01
1073.7
1067.87
1060.59
1051.95
1042.06
1031.05
1019.05
1006.2
992.676
978.643
964.287
949.807
935.393
921.25
907.592
894.647
882.644
871.819
862.401
854.61
848.643
844.665
842.797
)
;
    }
    bottom
    {
        type            fixedFluxPressure;
        gradient        nonuniform List<scalar> 
102
(
0
0
0
0
0
0
0
0
0
0
0
0
0
0
0
0
0
0
0
0
0
0
0
0
0
0
0
0
0
0
0
0
0
0
0
0
0
0
0
0
0
0
0
0
0
0
0
0
0
0
0
0
0
0
0
0
0
0
0
0
0
0
0
0
0
0
0
0
0
0
0
0
0
0
0
0
0
0
0
0
0
0
0
0
0
0
0
0
0
0
0
0
0
0
0
0
0
0
0
0
0
-1.65292e-14
)
;
        value           nonuniform List<scalar> 
102
(
-38.858
-42.1047
-48.1611
-56.9662
-68.4516
-82.5575
-99.2394
-118.455
-140.136
-164.144
-190.252
-218.118
-247.266
-277.049
-306.597
-334.86
-360.775
-383.449
-402.16
-416.565
-426.931
-433.815
-438.027
-440.391
-441.536
-441.824
-441.355
-439.972
-437.255
-432.519
-424.923
-413.693
-398.333
-378.684
-355.212
-328.678
-300.021
-270.326
-240.62
-211.72
-184.233
-158.604
-135.148
-114.071
-95.4899
-79.4667
-66.0412
-55.2615
-47.1901
-41.8944
-39.4303
-39.8288
-43.0842
-49.1578
-57.9887
-69.5094
-83.6611
-100.399
-119.682
-141.436
-165.521
-191.703
-219.634
-248.826
-278.621
-308.134
-336.305
-362.073
-384.553
-403.033
-417.209
-427.366
-434.083
-438.177
-440.466
-441.564
-441.817
-441.312
-439.876
-437.072
-432.204
-424.429
-412.983
-397.388
-377.516
-353.862
-327.196
-298.462
-268.747
-239.064
-210.215
-182.795
-157.242
-133.863
-112.858
-94.3418
-78.3727
-64.9907
-54.2444
-46.1971
-40.9169
-38.4602
)
;
    }
    frontAndBack
    {
        type            empty;
    }