/*--------------------------------*- C++ -*----------------------------------*\
| =========                 |                                                 |
| \\      /  F ield         | OpenFOAM: The Open Source CFD Toolbox           |
|  \\    /   O peration     | Version:  2.3.0                                 |
|   \\  /    A nd           | Web:      www.OpenFOAM.org                      |
|    \\/     M anipulation  |                                                 |
\*---------------------------------------------------------------------------*/
FoamFile
{
    version     2.0;
    format      ascii;
    class       surfaceScalarField;
    location    "21000";
    object      phi;
}
// * * * * * * * * * * * * * * * * * * * * * * * * * * * * * * * * * * * * * //

dimensions      [0 3 -1 0 0 0 0];

internalField   nonuniform List<scalar> 
5988
(
0.00362086
-0.00318034
0.00674632
-0.00312546
0.0097709
-0.00302457
0.0126518
-0.00288094
0.0153506
-0.00269879
0.0178337
-0.00248311
0.020073
-0.00223923
0.022045
-0.00197206
0.0237296
-0.00168456
0.0251053
-0.0013757
0.0261441
-0.00103878
0.0268055
-0.000661429
0.0270334
-0.000227914
0.0267587
0.000274728
0.0259129
0.000845812
0.0244553
0.00145757
0.0224008
0.00205448
0.0198312
0.00256962
0.0169038
0.00292744
0.0138222
0.00308156
0.0107804
0.00304183
0.00793121
0.00284916
0.0053467
0.00258451
0.00300997
0.00233672
0.000838946
0.00217103
-0.00128232
0.00212127
-0.00347851
0.00219619
-0.00586089
0.00238238
-0.00850063
0.00263974
-0.0113973
0.00289667
-0.0144602
0.00306288
-0.0175235
0.00306331
-0.0203888
0.00286534
-0.0228567
0.00246791
-0.024785
0.00192822
-0.0261064
0.00132145
-0.0268191
0.000712706
-0.0269722
0.000153061
-0.0266364
-0.000335821
-0.0258789
-0.000757465
-0.0247527
-0.00112619
-0.0232954
-0.00145731
-0.0215334
-0.00176199
-0.0194878
-0.00204555
-0.0171799
-0.00230793
-0.0146344
-0.00254554
-0.0118811
-0.00275331
-0.00895513
-0.00292594
-0.00589647
-0.00305866
-0.00274901
-0.00314746
0.00044035
-0.00318936
0.00362296
-0.00318261
0.0067505
-0.00312754
0.00977678
-0.00302628
0.0126589
-0.00288213
0.0153582
-0.00269929
0.017841
-0.00248276
0.0200788
-0.00223784
0.0220482
-0.00196938
0.0237284
-0.00168018
0.0250973
-0.00136899
0.0261262
-0.00102883
0.0267733
-0.000647103
0.0269814
-0.000208077
0.0266806
0.000300737
0.0258033
0.000877289
0.0243116
0.00149172
0.0222247
0.00208692
0.0196296
0.00259506
0.0166887
0.00294096
0.0136065
0.00308218
0.0105757
0.00303082
0.00774474
0.00283094
0.00517954
0.00256519
0.00285787
0.00232167
0.000694376
0.00216349
-0.00142815
0.00212252
-0.00363419
0.00220604
-0.00603324
0.00239905
-0.00869261
0.00265937
-0.0116061
0.00291346
-0.0146771
0.00307099
-0.0177364
0.0030593
-0.0205846
0.00284821
-0.0230245
0.00243996
-0.0249193
0.0018948
-0.0262069
0.00128755
-0.0268894
0.000682485
-0.0270181
0.000128691
-0.0266639
-0.000354114
-0.0258934
-0.000770544
-0.0247582
-0.00113523
-0.0232948
-0.00146339
-0.0215288
-0.00176594
-0.0194809
-0.00204793
-0.0171718
-0.00230909
-0.0146261
-0.00254571
-0.0118734
-0.00275267
-0.00894877
-0.00292466
-0.0058919
-0.00305687
-0.00274656
-0.00314534
-0.00318708
0.00547263
-0.00798845
0.0102423
-0.00789516
0.0149413
-0.00772357
0.01954
-0.0074796
0.0240111
-0.00716987
0.0283274
-0.00679949
0.0324578
-0.00636956
0.036361
-0.00587524
0.0399814
-0.00530498
0.0432463
-0.00464058
0.0460649
-0.00385741
0.0483279
-0.00292448
0.0499055
-0.00180553
0.0506446
-0.000464323
0.0503752
0.00111517
0.0489404
0.00289242
0.0462386
0.00475629
0.0422723
0.0065359
0.037214
0.00798578
0.031405
0.00889053
0.0252372
0.00920966
0.0190702
0.00901615
0.0131394
0.00851523
0.00751172
0.00796445
0.00211213
0.00757061
-0.00321561
0.00744901
-0.00865009
0.00763067
-0.0143359
0.00806817
-0.0203229
0.00862675
-0.0265095
0.00908328
-0.0326284
0.00918176
-0.0383042
0.00873915
-0.0431483
0.0077094
-0.0468456
0.00616521
-0.049264
0.00434669
-0.0504283
0.00248576
-0.0504554
0.000739789
-0.0495091
-0.000793277
-0.0477575
-0.00208738
-0.0453493
-0.0031657
-0.0424101
-0.00406538
-0.0390456
-0.00482181
-0.035343
-0.00546463
-0.0313714
-0.00601712
-0.0271833
-0.00649607
-0.0228172
-0.00691156
-0.0183036
-0.00726698
-0.0136693
-0.00756016
-0.00894253
-0.00778548
-0.00415362
-0.00793637
0.000664513
-0.00800749
0.00547797
-0.00799606
0.010253
-0.00790255
0.0149572
-0.00773051
0.0195609
-0.00748583
0.0240366
-0.00717503
0.0283569
-0.00680303
0.0324897
-0.00637064
0.036393
-0.00587269
0.0400101
-0.00529722
0.0432667
-0.00462561
0.0460707
-0.00383285
0.0483112
-0.00288757
0.0498564
-0.00175332
0.0505515
-0.000394317
0.0502257
0.00120305
0.048724
0.00299342
0.0459498
0.00486115
0.0419145
0.00663031
0.0368037
0.0080518
0.030966
0.00891982
0.0247944
0.0092025
0.0186427
0.00898256
0.0127359
0.00847201
0.0071296
0.007928
0.00174138
0.00755171
-0.00358829
0.0074522
-0.00903747
0.00765522
-0.0147463
0.00810791
-0.0207561
0.00866914
-0.0269536
0.00911098
-0.033062
0.00917941
-0.0387025
0.00869973
-0.0434882
0.00763394
-0.0471143
0.00606606
-0.0494611
0.00424158
-0.0505609
0.00238739
-0.0505348
0.000656345
-0.0495476
-0.000858462
-0.0477664
-0.0021353
-0.0453379
-0.00319911
-0.0423859
-0.00408723
-0.0390145
-0.00483476
-0.0353095
-0.00547096
-0.0313387
-0.00601869
-0.0271535
-0.00649436
-0.0227915
-0.00690765
-0.0182826
-0.00726161
-0.0136535
-0.0075538
-0.00893187
-0.00777846
-0.00414827
-0.00792894
-0.00799987
0.00613212
-0.0133758
0.0114692
-0.0132322
0.016712
-0.0129664
0.0218167
-0.0125843
0.026739
-0.0120922
0.0314332
-0.0114937
0.0358513
-0.0107877
0.0399427
-0.00996662
0.0436543
-0.00901659
0.0469323
-0.00791851
0.0497243
-0.00664948
0.0519838
-0.00518396
0.0536735
-0.00349517
0.054765
-0.00155591
0.0552143
0.000665937
0.0548912
0.00321551
0.0535307
0.00611673
0.0508116
0.00925506
0.0465076
0.0122898
0.0406468
0.0147513
0.0336141
0.0162423
0.0259791
0.0166511
0.0182027
0.0162917
0.0105237
0.0156435
0.00297786
0.0151164
-0.00451946
0.0149463
-0.0120863
0.0151975
-0.0197899
0.0157718
-0.0275579
0.0163948
-0.0351036
0.016629
-0.0419288
0.0160069
-0.0474731
0.0142835
-0.051425
0.0116613
-0.0538222
0.00856239
-0.0549245
0.00544902
-0.0550536
0.00261488
-0.054448
0.000134128
-0.0532124
-0.00202889
-0.0513833
-0.00391642
-0.0489904
-0.00555866
-0.0460733
-0.00698247
-0.0426806
-0.00821443
-0.0388657
-0.00927957
-0.0346827
-0.0102001
-0.0301846
-0.0109941
-0.0254219
-0.0116743
-0.0204424
-0.0122465
-0.0152916
-0.0127109
-0.0100141
-0.013063
-0.0046539
-0.0132965
0.00074459
-0.013406
0.00613695
-0.0133884
0.0114787
-0.0132443
0.0167257
-0.0129775
0.0218338
-0.0125939
0.0267582
-0.0120994
0.0314528
-0.0114976
0.0358691
-0.010787
0.039956
-0.00995953
0.0436598
-0.00900107
0.0469264
-0.0078922
0.0497034
-0.00660984
0.0519442
-0.00512836
0.053612
-0.00342106
0.0546785
-0.00146084
0.0550967
0.000784837
0.0547286
0.00336151
0.0533015
0.00628826
0.0504949
0.00943695
0.0460942
0.0124525
0.0401495
0.0148644
0.033068
0.0162841
0.0254189
0.0166316
0.01765
0.0162409
0.00998455
0.0155935
0.00244725
0.015089
-0.00505157
0.014951
-0.0126291
0.0152327
-0.020346
0.0158248
-0.0281172
0.0164403
-0.0356401
0.0166339
-0.0424056
0.015945
-0.0478599
0.0141539
-0.0517157
0.0114897
-0.0540302
0.00838063
-0.0550721
0.00528343
-0.055161
0.00247627
-0.0545265
2.18558e-05
-0.0532667
-0.00211821
-0.0514166
-0.00398547
-0.0490058
-0.00560989
-0.0460745
-0.00701847
-0.0426715
-0.0082378
-0.0388496
-0.00929282
-0.0346628
-0.0102055
-0.0301635
-0.0109937
-0.0254017
-0.0116695
-0.0204245
-0.0122387
-0.0152773
-0.012701
-0.0100041
-0.0130517
-0.00464874
-0.0132843
-0.0133934
0.00641313
-0.0190098
0.0119825
-0.0188016
0.0174308
-0.0184147
0.022702
-0.0178555
0.0277404
-0.0171306
0.0324911
-0.0162443
0.0369001
-0.0151968
0.040916
-0.0139825
0.0444904
-0.012591
0.0475793
-0.0110074
0.050144
-0.00921419
0.0521523
-0.0071923
0.0535782
-0.00492108
0.0543986
-0.00237628
0.0545879
0.000476679
0.0541175
0.0036859
0.0529561
0.00727808
0.0510145
0.0111967
0.0480073
0.015297
0.043482
0.0192766
0.0372232
0.0225012
0.0295366
0.0243377
0.0210672
0.0247611
0.0123148
0.0243959
0.00350565
0.0239255
-0.00530496
0.0237569
-0.0141075
0.0240001
-0.0228226
0.0244868
-0.0311721
0.0247443
-0.0386029
0.0240597
-0.044497
0.021901
-0.0486631
0.0184496
-0.0514006
0.0143988
-0.0531528
0.0103145
-0.0541533
0.00644949
-0.0544693
0.00293095
-0.0541303
-0.000204881
-0.0531646
-0.00299457
-0.051597
-0.00548403
-0.0494509
-0.00770476
-0.0467538
-0.00967961
-0.0435395
-0.0114287
-0.0398484
-0.0129707
-0.0357259
-0.0143227
-0.0312215
-0.0154985
-0.0263879
-0.0165078
-0.0212797
-0.0173547
-0.0159526
-0.0180381
-0.0104627
-0.0185529
-0.00486666
-0.0188926
0.00077873
-0.0190514
0.00641622
-0.0190259
0.0119887
-0.0188168
0.0174393
-0.0184281
0.0227117
-0.0178662
0.0277496
-0.0171374
0.0324978
-0.0162458
0.036902
-0.0151912
0.0409104
-0.0139679
0.0444743
-0.012565
0.0475496
-0.0109675
0.0500977
-0.00915801
0.0520867
-0.00711728
0.0534904
-0.00482479
0.0542857
-0.00225618
0.0544468
0.000623794
0.053945
0.00386333
0.0527479
0.00748529
0.050758
0.0114268
0.0476737
0.0155369
0.0430436
0.0194945
0.036682
0.0226457
0.0289301
0.0243834
0.0204359
0.0247351
0.01168
0.0243494
0.00287236
0.0238966
-0.00593865
0.023762
-0.0147424
0.0240365
-0.02345
0.0245324
-0.0317652
0.0247555
-0.039118
0.0239867
-0.0449048
0.0217317
-0.0489715
0.0182207
-0.0516411
0.0141593
-0.0533499
0.0100894
-0.0543161
0.00624969
-0.0546016
0.00276173
-0.0542352
-0.000344516
-0.0532453
-0.00310816
-0.0516562
-0.00557457
-0.0494913
-0.00777473
-0.0467784
-0.00973144
-0.0435513
-0.0114648
-0.0398504
-0.0129937
-0.035721
-0.014335
-0.0312124
-0.0155023
-0.0263768
-0.016505
-0.0212686
-0.017347
-0.0159429
-0.0180267
-0.0104556
-0.018539
-0.00486271
-0.0188772
-0.0190352
0.00646789
-0.0246917
0.0120746
-0.0244083
0.0175407
-0.0238808
0.022802
-0.0231169
0.0277964
-0.0221249
0.032464
-0.0209119
0.0367486
-0.0194814
0.0405989
-0.0178328
0.0439687
-0.0159607
0.0468175
-0.0138562
0.0491108
-0.0115075
0.050819
-0.00890056
0.0519174
-0.00601944
0.0523857
-0.00284455
0.0522129
0.000649456
0.051408
0.0044908
0.0499976
0.00868851
0.0479878
0.0132065
0.0453173
0.0179675
0.0417802
0.0228137
0.036904
0.0273773
0.0302722
0.0309696
0.0221171
0.0329161
0.0131119
0.0334012
0.00375874
0.0332787
-0.00567218
0.0331879
-0.0149777
0.0333056
-0.0238522
0.0333613
-0.0317363
0.0326284
-0.0379895
0.030313
-0.0425302
0.0264417
-0.0458488
0.0217682
-0.0483615
0.0169115
-0.0502329
0.0121859
-0.0515063
0.00772292
-0.052167
0.00359161
-0.0521901
-0.000181812
-0.0515717
-0.00361294
-0.0503257
-0.00673006
-0.0484735
-0.00955695
-0.0460411
-0.0121119
-0.0430594
-0.0144104
-0.0395646
-0.0164655
-0.0355987
-0.0182886
-0.0312095
-0.0198877
-0.0264502
-0.0212671
-0.0213783
-0.0224266
-0.0160548
-0.0233616
-0.0105428
-0.0240648
-0.00490746
-0.024528
0.000785309
-0.0247441
0.00646888
-0.0247095
0.0120768
-0.0244247
0.0175432
-0.0238945
0.0228036
-0.0231266
0.0277952
-0.022129
0.032458
-0.0209086
0.0367356
-0.0194687
0.0405761
-0.0178084
0.0439333
-0.0159222
0.0467668
-0.0138011
0.049042
-0.0114331
0.0507293
-0.00880462
0.0518041
-0.00589956
0.0522463
-0.0026984
0.0520458
0.000824259
0.0512131
0.00469607
0.0497748
0.00892355
0.0477343
0.0134674
0.0450239
0.0182473
0.041423
0.0230954
0.0364433
0.0276254
0.0296995
0.0311273
0.0214714
0.0329632
0.0124347
0.0333862
0.00307168
0.0332596
-0.00635783
0.0331915
-0.0156491
0.0333278
-0.0244827
0.033366
-0.0322801
0.0325529
-0.0384185
0.0301252
-0.0428658
0.026179
-0.0461292
0.0214841
-0.0486054
0.0166355
-0.0504473
0.0119313
-0.051693
0.00749541
-0.0523257
0.00339442
-0.0523213
-0.000348869
-0.0516775
-0.00375202
-0.0504085
-0.00684356
-0.048536
-0.00964717
-0.0460862
-0.0121812
-0.0430899
-0.0144612
-0.0395832
-0.0165004
-0.0356081
-0.01831
-0.0312124
-0.0198981
-0.0264488
-0.0212686
-0.0213746
-0.0224211
-0.0160504
-0.0233509
-0.0105391
-0.0240504
-0.00490505
-0.0245112
-0.0247262
0.00634522
-0.0302657
0.0118367
-0.0298997
0.0171743
-0.0292184
0.022289
-0.0282315
0.0271144
-0.0269504
0.0315888
-0.0253863
0.0356552
-0.0235479
0.0392631
-0.0214406
0.0423683
-0.019066
0.0449337
-0.0164216
0.046928
-0.0135018
0.048326
-0.0102985
0.0491075
-0.00680094
0.049259
-0.00299614
0.0487781
0.00113037
0.0476795
0.00558947
0.0459942
0.0103738
0.0437567
0.015444
0.0409929
0.0207313
0.0376762
0.0261304
0.0336012
0.0314523
0.028289
0.0362818
0.0213061
0.039899
0.0128991
0.0418082
0.0037353
0.0424425
-0.0056203
0.0425435
-0.0146767
0.0423619
-0.022836
0.0415206
-0.0294617
0.0392541
-0.0344611
0.0353123
-0.038341
0.0303216
-0.0415256
0.0249528
-0.0441713
0.0195571
-0.0462853
0.0143
-0.0478387
0.00927628
-0.0487965
0.00454944
-0.0491303
0.000151987
-0.0488295
-0.00391375
-0.0478996
-0.00765996
-0.0463558
-0.0111007
-0.0442196
-0.0142481
-0.0415178
-0.0171122
-0.0382832
-0.0197002
-0.0345549
-0.0220169
-0.0303789
-0.0240637
-0.0258079
-0.0258381
-0.0209005
-0.0273341
-0.0157202
-0.0285419
-0.0103344
-0.0294506
-0.00481354
-0.0300489
0.000770299
-0.030328
0.00634405
-0.0302832
0.0118348
-0.0299154
0.0171708
-0.0292306
0.0222825
-0.0282383
0.0271033
-0.0269499
0.031571
-0.0253763
0.0356285
-0.0235262
0.0392249
-0.0214048
0.0423162
-0.0190135
0.044865
-0.0163498
0.0468402
-0.0134084
0.0482166
-0.010181
0.0489741
-0.00665712
0.0490998
-0.00282411
0.0485919
0.00133217
0.0474663
0.00582167
0.0457549
0.010635
0.0434918
0.0157305
0.0407018
0.0210373
0.037351
0.0264462
0.0332168
0.0317595
0.0278046
0.0365395
0.0207131
0.0400546
0.0122367
0.0418626
0.0030457
0.0424506
-0.00630571
0.0425429
-0.0153245
0.0423466
-0.0234011
0.0414426
-0.0299149
0.0390667
-0.0348252
0.0350354
-0.0386548
0.0300087
-0.0418087
0.024638
-0.0444287
0.0192554
-0.046517
0.0140196
-0.0480439
0.00902234
-0.0489746
0.00432514
-0.0492816
-4.19443e-05
-0.0489552
-0.00407833
-0.0480019
-0.00779689
-0.0464371
-0.011212
-0.0442824
-0.014336
-0.0415647
-0.0171789
-0.0383166
-0.0197484
-0.0345775
-0.0220491
-0.0303932
-0.0240824
-0.025816
-0.0258458
-0.0209043
-0.0273328
-0.0157213
-0.0285338
-0.0103342
-0.0294375
-0.00481276
-0.0300326
-0.0303103
0.00607726
-0.0356041
0.0113289
-0.0351514
0.0164193
-0.0343087
0.0212765
-0.0330887
0.0258329
-0.0315069
0.0300263
-0.0295797
0.0338007
-0.0273222
0.0371071
-0.0247471
0.0399043
-0.0218631
0.042158
-0.0186753
0.0438412
-0.015185
0.0449331
-0.0113904
0.0454193
-0.00728712
0.0452932
-0.00287001
0.0445588
0.00186474
0.0432344
0.00691391
0.0413509
0.0122573
0.0389454
0.0178496
0.0360556
0.023621
0.0327106
0.0294754
0.0288854
0.0352775
0.0243676
0.0407996
0.0186951
0.0455714
0.0115791
0.0489242
0.00339803
0.0506236
-0.00509529
0.0510368
-0.0131114
0.050378
-0.0199344
0.0483437
-0.0253214
0.0446411
-0.0296586
0.0396495
-0.033369
0.0340321
-0.0366123
0.0281961
-0.0393951
0.0223399
-0.0416843
0.0165892
-0.043442
0.011034
-0.0446319
0.00573933
-0.0452252
0.000745248
-0.0452069
-0.00393207
-0.0445756
-0.00829126
-0.0433399
-0.0123364
-0.0415158
-0.0160722
-0.0391257
-0.0195023
-0.0361986
-0.0226273
-0.0327706
-0.0254449
-0.0288852
-0.0279491
-0.0245934
-0.0301299
-0.0199534
-0.0319741
-0.0150292
-0.0334661
-0.00989023
-0.0345896
-0.0046094
-0.0353297
0.000737624
-0.035675
0.00607404
-0.0356197
0.0113232
-0.0351646
0.0164101
-0.0343175
0.0212627
-0.0330908
0.0258128
-0.0315
0.0299981
-0.0295615
0.0337621
-0.0272903
0.037056
-0.0246988
0.0398383
-0.0217958
0.0420749
-0.0185865
0.0437387
-0.0150721
0.044809
-0.0112512
0.0452717
-0.00711984
0.0451207
-0.00267305
0.0443606
0.0020922
0.0430107
0.0071716
0.0411026
0.0125431
0.0386734
0.0181597
0.0357609
0.0239497
0.0323927
0.0298145
0.0285363
0.0356158
0.0239613
0.0411146
0.0181962
0.0458198
0.0109906
0.0490682
0.00276432
0.0506769
-0.00572171
0.051029
-0.0136783
0.0503032
-0.0204055
0.0481698
-0.0257079
0.0443691
-0.029997
0.0393245
-0.0336799
0.0336916
-0.0369004
0.0278585
-0.0396603
0.0220153
-0.0419255
0.0162848
-0.0436583
0.0107551
-0.0448225
0.00548935
-0.0453901
0.00052568
-0.0453471
-0.00412133
-0.0446927
-0.00845126
-0.0434359
-0.0124688
-0.0415929
-0.016179
-0.0391862
-0.0195857
-0.0362447
-0.0226898
-0.0328047
-0.0254892
-0.0289095
-0.0279776
-0.02461
-0.0301453
-0.0199641
-0.0319788
-0.0150356
-0.0334623
-0.00989338
-0.0345797
-0.00461019
-0.0353158
-0.0356593
0.00569172
-0.0406038
0.010603
-0.0400627
0.0153503
-0.039056
0.0198614
-0.0375998
0.024069
-0.0357144
0.0279119
-0.0334226
0.0313364
-0.0307467
0.0342962
-0.0277069
0.0367535
-0.0243204
0.038678
-0.0205998
0.0400471
-0.0165542
0.0408454
-0.0121886
0.0410644
-0.00750611
0.0407037
-0.00250928
0.0397725
0.00279596
0.0382913
0.0083951
0.036291
0.0142576
0.0338089
0.0203317
0.030886
0.0265439
0.0275628
0.0327986
0.0238664
0.038974
0.0197629
0.044903
0.0150445
0.0502898
0.00937655
0.0545921
0.00277759
0.0572225
-0.00414907
0.0579634
-0.0105872
0.0568161
-0.0160374
0.0537939
-0.0205967
0.0492005
-0.0246014
0.0436542
-0.0282149
0.0376456
-0.0314504
0.0314317
-0.0342763
0.0251658
-0.0366512
0.0189641
-0.0385347
0.0129175
-0.0398905
0.00709509
-0.0406896
0.00154435
-0.040914
-0.00370766
-0.0405568
-0.00864848
-0.0396203
-0.0132729
-0.0381147
-0.0175778
-0.0360574
-0.0215596
-0.0334729
-0.0252118
-0.0303934
-0.0285244
-0.0268592
-0.0314832
-0.0229188
-0.0340703
-0.0186283
-0.0362646
-0.0140509
-0.0380435
-0.00925559
-0.0393848
-0.00431616
-0.0402691
0.000690673
-0.0406818
0.0056867
-0.0406157
0.0105939
-0.0400719
0.0153363
-0.0390599
0.0198413
-0.0375958
0.0240413
-0.0357001
0.027875
-0.0333952
0.0312883
-0.0307035
0.0342349
-0.0276454
0.036677
-0.0242378
0.0385843
-0.0204938
0.0399343
-0.0164222
0.0407118
-0.0120287
0.0409085
-0.00731653
0.0405244
-0.002289
0.0395695
0.00304717
0.0380648
0.00867625
0.0360419
0.0145661
0.0335384
0.0206632
0.0305954
0.0268926
0.0272532
0.0331568
0.0235371
0.039332
0.0194053
0.0452463
0.0146349
0.0505901
0.00889721
0.0548059
0.00225205
0.057322
-0.00466652
0.0579475
-0.0110475
0.0566841
-0.0164296
0.0535519
-0.0209445
0.0488841
-0.0249246
0.0433045
-0.028519
0.037286
-0.0317353
0.0310748
-0.0345407
0.0248207
-0.0368938
0.0186379
-0.0387544
0.0126156
-0.0400865
0.00682143
-0.0408618
0.00130099
-0.041063
-0.00392011
-0.0406837
-0.00883052
-0.0397267
-0.0134257
-0.0382025
-0.0177033
-0.0361284
-0.0216598
-0.0335291
-0.0252891
-0.0304369
-0.0285814
-0.026892
-0.0315225
-0.0229426
-0.0340946
-0.0186449
-0.0362765
-0.0140617
-0.0380456
-0.00926174
-0.0393796
-0.00431837
-0.0402592
-0.0406697
0.00521112
-0.0451812
0.00970093
-0.0445525
0.0140284
-0.0433835
0.0181227
-0.041694
0.0219184
-0.0395102
0.0253571
-0.0368613
0.0283881
-0.0337776
0.0309688
-0.0302877
0.0330656
-0.0264172
0.0346529
-0.0221871
0.0357132
-0.0176144
0.0362364
-0.0127119
0.0362202
-0.00748991
0.03567
-0.00195903
0.0345997
0.00386621
0.0330329
0.00996194
0.0310013
0.0162891
0.0285434
0.0227896
0.0257021
0.0293851
0.0225245
0.0359762
0.019058
0.0424405
0.0153385
0.0486225
0.0113426
0.0542858
0.00693466
0.059
0.00204347
0.0621137
-0.00304214
0.063049
-0.00784252
0.0616165
-0.0121495
0.0581009
-0.0160775
0.0531284
-0.0197414
0.0473182
-0.0231462
0.0410504
-0.0262511
0.0345365
-0.0290084
0.0279231
-0.0313716
0.0213274
-0.0332986
0.0148445
-0.0347522
0.00854873
-0.0357023
0.00249438
-0.0361273
-0.00328265
-0.0360152
-0.00876057
-0.0353625
-0.0139256
-0.0341734
-0.0187669
-0.0324597
-0.0232732
-0.0302412
-0.0274304
-0.0275454
-0.0312202
-0.0244086
-0.03462
-0.0208756
-0.0376033
-0.0169994
-0.0401407
-0.0128409
-0.042202
-0.0084673
-0.0437585
-0.00395096
-0.0447854
0.000632192
-0.045265
0.00520463
-0.0451881
0.00968908
-0.0445563
0.0140104
-0.0433812
0.0180975
-0.0416829
0.0218848
-0.0394873
0.0253136
-0.0368239
0.0283329
-0.0337228
0.0309003
-0.0302129
0.0329821
-0.0263196
0.0345527
-0.0220644
0.0355947
-0.0174643
0.0360984
-0.0125324
0.0360617
-0.00727981
0.0354903
-0.00171763
0.0343989
0.00413863
0.0328113
0.0102638
0.03076
0.0166174
0.0282837
0.0231396
0.0254258
0.0297505
0.0222334
0.0363492
0.0187539
0.0428115
0.0150213
0.0489789
0.0110053
0.0546062
0.00656508
0.0592461
0.00164742
0.0622397
-0.00343321
0.0630282
-0.00820236
0.0614533
-0.0124798
0.0578293
-0.0163905
0.0527948
-0.0200418
0.0469559
-0.0234333
0.0406774
-0.0265228
0.0341644
-0.0292629
0.0275608
-0.0316073
0.0209823
-0.0335141
0.0145225
-0.0349468
0.00825408
-0.0358755
0.00222969
-0.0362794
-0.0035162
-0.036147
-0.00896298
-0.0354749
-0.0140977
-0.0342679
-0.0189103
-0.032538
-0.0233898
-0.0303047
-0.0275224
-0.0275959
-0.0312902
-0.0244479
-0.0346706
-0.0209052
-0.0376373
-0.0170209
-0.0401608
-0.0128555
-0.042211
-0.00847594
-0.0437592
-0.00395436
-0.0447807
-0.0452578
0.00465392
-0.0492691
0.00865707
-0.0485557
0.0125034
-0.0472298
0.0161251
-0.0453157
0.0194601
-0.0428453
0.0224538
-0.039855
0.0250596
-0.0363834
0.0272396
-0.0324677
0.0289649
-0.0281424
0.0302149
-0.0234372
0.0309778
-0.0183772
0.0312491
-0.0129832
0.0310323
-0.00727314
0.0303385
-0.00126524
0.0291867
0.00501806
0.0276038
0.0115448
0.0256245
0.0182684
0.0232896
0.0251246
0.020646
0.0320288
0.017747
0.0388752
0.0146536
0.045534
0.0114338
0.0518423
0.00814873
0.0575708
0.00481169
0.0623371
0.00139291
0.0655325
-0.00206665
0.0665086
-0.00546715
0.065017
-0.00878945
0.0614232
-0.0120617
0.0564006
-0.0152574
0.0505139
-0.018311
0.0441041
-0.0211556
0.0373811
-0.023732
0.0304994
-0.0259882
0.0235835
-0.0278784
0.0167347
-0.0293631
0.0100334
-0.0304093
0.00354053
-0.0309915
-0.00270044
-0.0310926
-0.00865951
-0.0307032
-0.014315
-0.0298218
-0.0196483
-0.0284545
-0.0246405
-0.0266155
-0.0292693
-0.0243275
-0.0335082
-0.0216219
-0.0373257
-0.018539
-0.0406862
-0.0151278
-0.0435519
-0.0114453
-0.0458845
-0.0075555
-0.0476483
-0.00352785
-0.0488131
0.000564432
-0.0493573
0.00464634
-0.04927
0.00864317
-0.0485531
0.0124825
-0.0472206
0.0160963
-0.0452967
0.0194224
-0.0428134
0.0224058
-0.0398073
0.0249999
-0.036317
0.0271669
-0.0323798
0.0288777
-0.0280304
0.0301121
-0.0232987
0.0308581
-0.0182103
0.0311117
-0.0127861
0.0308768
-0.00704483
0.0301646
-0.00100546
0.0289947
0.00530856
0.0273945
0.011864
0.0253991
0.0186127
0.0230498
0.0254889
0.020394
0.0324063
0.0174855
0.0392577
0.0143857
0.0459113
0.0111632
0.0522014
0.00787729
0.057892
0.00453689
0.0625865
0.00111321
0.0656634
-0.0023453
0.0664867
-0.00574053
0.0648485
-0.00906049
0.0611493
-0.0123317
0.056066
-0.0155237
0.0501479
-0.0185701
0.0437238
-0.0214043
0.0369986
-0.0239678
0.0301243
-0.026209
0.0232236
-0.0280828
0.0163962
-0.0295498
0.00972115
-0.0305777
0.00325754
-0.0311414
-0.00295246
-0.0312243
-0.00888012
-0.0308174
-0.0145047
-0.0299193
-0.0198083
-0.0285366
-0.0247725
-0.0266835
-0.0293755
-0.0243827
-0.033591
-0.0216657
-0.0373876
-0.0185727
-0.0407302
-0.0151528
-0.0435807
-0.0114626
-0.0459011
-0.00756604
-0.0476558
-0.00353217
-0.0488146
-0.049356
0.00403501
-0.0528132
0.00749923
-0.0520199
0.0108157
-0.0505463
0.0139211
-0.0484211
0.016758
-0.0456822
0.0192767
-0.0423737
0.0214356
-0.0385423
0.0232021
-0.0342342
0.0245525
-0.0294927
0.0254718
-0.0243565
0.0259535
-0.018859
0.0259992
-0.0130289
0.0256178
-0.00689177
0.0248259
-0.000473369
0.0236475
0.00619651
0.0221136
0.0130786
0.0202623
0.0201197
0.0181381
0.0272488
0.0157921
0.0343748
0.0132835
0.0413838
0.0106818
0.0481357
0.00806901
0.054455
0.00553504
0.0601048
0.00314562
0.0647265
0.000891499
0.0677866
-0.00131605
0.0687162
-0.00359228
0.0672932
-0.00601264
0.0638435
-0.00856778
0.0589558
-0.0111826
0.0531287
-0.0137672
0.0466887
-0.0162422
0.0398561
-0.0185404
0.0327977
-0.0206044
0.0256476
-0.0223846
0.0185149
-0.0238377
0.0114865
-0.0249271
0.00462999
-0.0256233
-0.00200434
-0.0259037
-0.00837904
-0.0257537
-0.014465
-0.0251659
-0.0202361
-0.0241408
-0.0256656
-0.022687
-0.0307232
-0.0208216
-0.0353735
-0.0185709
-0.0395764
-0.0159699
-0.0432873
-0.0130625
-0.0464593
-0.00990092
-0.0490461
-0.00654446
-0.0510047
-0.00305811
-0.0522994
0.000489203
-0.0529046
0.00402674
-0.0528076
0.00748403
-0.0520104
0.010793
-0.0505296
0.0138902
-0.0483938
0.016718
-0.0456412
0.0192264
-0.0423158
0.0213741
-0.0384646
0.0231282
-0.0341339
0.0244651
-0.0293673
0.0253702
-0.0242038
0.025837
-0.0186771
0.0258672
-0.0128164
0.0254704
-0.00664798
0.0246633
-0.000198388
0.0234703
0.00650152
0.0219231
0.0134111
0.0200602
0.0204757
0.0179263
0.0276228
0.0155732
0.0347594
0.0130608
0.0417701
0.0104594
0.0485127
0.00785207
0.0548087
0.00532843
0.0604157
0.00295079
0.0649641
0.00070382
0.0679104
-0.00150494
0.0686955
-0.00379012
0.0671337
-0.00622241
0.0635816
-0.00878667
0.0586303
-0.0114054
0.0527666
-0.0139891
0.0463075
-0.0164593
0.0394688
-0.0187496
0.0324146
-0.0208034
0.0252773
-0.0225712
0.0181641
-0.0240106
0.0111605
-0.0250852
0.00433219
-0.0257659
-0.00227175
-0.0260308
-0.00861522
-0.0258655
-0.01467
-0.0252628
-0.020411
-0.0242235
-0.0258118
-0.0227565
-0.0308426
-0.0208789
-0.0354685
-0.0186171
-0.0396495
-0.0160061
-0.0433412
-0.0130897
-0.0464971
-0.00992009
-0.0490708
-0.00655629
-0.0510196
-0.00306309
-0.0523078
-0.0529099
0.0033663
-0.05577
0.00624967
-0.0549033
0.00899766
-0.0532943
0.0115527
-0.0509761
0.0138634
-0.0479929
0.0158857
-0.044396
0.017584
-0.0402406
0.0189313
-0.0355815
0.0199096
-0.030471
0.0205095
-0.0249564
0.0207301
-0.0190795
0.0205781
-0.0128769
0.0200681
-0.00638175
0.0192216
0.000373145
0.0180671
0.00735101
0.0166398
0.0145059
0.014981
0.0217784
0.0131385
0.0290914
0.0111663
0.0363469
0.00912662
0.0434234
0.00709119
0.0501712
0.00514224
0.056404
0.00336703
0.06188
0.00182864
0.0662649
0.000506075
0.0691092
-0.000739888
0.0699621
-0.00209891
0.0686523
-0.00368743
0.065432
-0.00550372
0.0607721
-0.00747538
0.0551003
-0.00951477
0.0487281
-0.0115417
0.041883
-0.0134866
0.0347425
-0.015289
0.02745
-0.0168961
0.020122
-0.0182617
0.0128521
-0.0193455
0.00571379
-0.0201137
-0.00123607
-0.0205394
-0.00795333
-0.0206026
-0.0144018
-0.0202905
-0.0205482
-0.0195982
-0.0263579
-0.0185287
-0.0317927
-0.0170936
-0.0368086
-0.0153132
-0.0413567
-0.013217
-0.0453835
-0.010843
-0.0488333
-0.00823739
-0.0516517
-0.00545361
-0.0537885
-0.00255081
-0.0552022
0.000407954
-0.0558634
0.00335773
-0.0557573
0.0062339
-0.0548866
0.00897425
-0.05327
0.0115211
-0.0509407
0.0138228
-0.0479429
0.0158354
-0.0443284
0.0175231
-0.0401523
0.0188591
-0.0354699
0.0198254
-0.0303336
0.0204128
-0.0247912
0.0206206
-0.0188849
0.0204559
-0.0126517
0.0199335
-0.00612555
0.0190753
0.000659827
0.0179102
0.0076666
0.0164738
0.0148475
0.014808
0.0221416
0.0129608
0.02947
0.0109869
0.0367332
0.0089492
0.0438078
0.00692008
0.0505418
0.00498256
0.0567463
0.00322365
0.0621746
0.00170292
0.0664849
0.000391616
0.0692217
-0.000856323
0.0699434
-0.00222925
0.0685066
-0.00383567
0.065188
-0.00566706
0.0604617
-0.00764866
0.0547482
-0.00969307
0.0483519
-0.0117208
0.0414966
-0.0136631
0.0343569
-0.0154602
0.0270743
-0.0170596
0.0197635
-0.0184156
0.0125165
-0.0194884
0.00540499
-0.0202446
-0.00151549
-0.0206577
-0.00820213
-0.020708
-0.0146197
-0.0203831
-0.0207359
-0.0196783
-0.0265166
-0.0185969
-0.031924
-0.0171506
-0.0369148
-0.0153598
-0.0414402
-0.013254
-0.045447
-0.0108711
-0.0488799
-0.00825741
-0.0516845
-0.0054661
-0.0538109
-0.00255615
-0.0552178
-0.0558756
0.00265736
-0.058104
0.00492623
-0.0571721
0.00707515
-0.0554432
0.00905367
-0.0529547
0.0108173
-0.0497565
0.0123289
-0.0459076
0.013559
-0.0414708
0.014487
-0.0365096
0.0151007
-0.0310847
0.0153961
-0.0252518
0.0153775
-0.0190609
0.0150567
-0.0125561
0.0144529
-0.00577794
0.013592
0.00123407
0.0125063
0.00843667
0.0112342
0.015778
0.00981954
0.0231931
0.00831154
0.0305994
0.00676513
0.0378933
0.00524137
0.0449472
0.00380778
0.0516048
0.00253679
0.057675
0.0014976
0.0629192
0.000729253
0.0670332
0.000190406
0.069648
-0.000269246
0.0704218
-0.000846379
0.0692294
-0.00167028
0.0662559
-0.0027612
0.061863
-0.00407013
0.0564092
-0.00552576
0.0501837
-0.00705628
0.0434135
-0.00859545
0.0362817
-0.0100835
0.0289381
-0.0114666
0.0215051
-0.0126967
0.0140822
-0.013731
0.00674811
-0.0145325
-0.000434662
-0.0150699
-0.00741586
-0.015319
-0.0141527
-0.0152623
-0.0206049
-0.0148896
-0.0267306
-0.0141988
-0.0324835
-0.0131957
-0.0378117
-0.0118949
-0.0426575
-0.0103195
-0.046959
-0.00850082
-0.050652
-0.00647838
-0.0536741
-0.00429851
-0.0559684
-0.00201317
-0.0574876
0.000321844
-0.0581984
0.00264888
-0.0580844
0.0049106
-0.0571483
0.00705205
-0.0554114
0.00902267
-0.0529113
0.0107779
-0.0496981
0.0122804
-0.0458309
0.0135011
-0.041373
0.0144192
-0.036388
0.0150225
-0.030937
0.0153075
-0.0250762
0.0152786
-0.018856
0.014948
-0.012321
0.0143351
-0.00551263
0.0134662
0.00152876
0.012374
0.00875878
0.0110972
0.0161242
0.0096802
0.0235586
0.00817251
0.0309777
0.00662955
0.0382762
0.00511286
0.0453245
0.00369042
0.0519642
0.0024349
0.0580018
0.00141468
0.0631948
0.000665202
0.0672343
0.000137923
0.0697489
-0.000323746
0.0704051
-0.000915272
0.0690981
-0.00175865
0.0660314
-0.00286778
0.0615708
-0.00419099
0.0560714
-0.00565659
0.0498175
-0.00719311
0.0430331
-0.00873479
0.0358986
-0.0102223
0.0285618
-0.0116024
0.0211436
-0.0128273
0.0137413
-0.0138545
0.00643229
-0.0146475
-0.000722503
-0.0151756
-0.00767408
-0.0154146
-0.0143807
-0.0153475
-0.020803
-0.0149643
-0.0268997
-0.0142632
-0.0326251
-0.0132502
-0.0379278
-0.01194
-0.0427505
-0.0103556
-0.0470314
-0.0085286
-0.0507069
-0.00649833
-0.0537148
-0.00431106
-0.0559982
-0.00201861
-0.0575102
-0.0582176
0.001916
-0.0597868
0.00354347
-0.0587996
0.00506931
-0.0569691
0.00645137
-0.0543367
0.00765313
-0.0509583
0.00864484
-0.0468993
0.00940426
-0.0422302
0.00991702
-0.0370223
0.0101767
-0.0313444
0.0101847
-0.0252598
0.00994996
-0.0188262
0.00948872
-0.0120949
0.00882392
-0.00511314
0.00798486
0.00207313
0.00700663
0.0094149
0.00592943
0.0168552
0.00479801
0.0243245
0.0036613
0.0317361
0.00257212
0.0389825
0.00158672
0.0459326
0.000763543
0.0524279
0.000159609
0.0582789
-0.000179287
0.0632581
-0.000241576
0.0670955
-8.61282e-05
0.0694926
0.000141807
0.0701938
0.000261582
0.0691096
0.000144251
0.0663733
-0.000251494
0.0622587
-0.000904134
0.0570619
-0.00176412
0.0510437
-0.00277357
0.044423
-0.00387427
0.0373824
-0.00501058
0.0300744
-0.00613039
0.022625
-0.0071856
0.0151374
-0.00813232
0.00769483
-0.00893136
0.000364374
-0.00954879
-0.00679843
-0.00995668
-0.0137448
-0.0101336
-0.020428
-0.0100649