/*--------------------------------*- C++ -*----------------------------------*\
| =========                 |                                                 |
| \\      /  F ield         | OpenFOAM: The Open Source CFD Toolbox           |
|  \\    /   O peration     | Version:  2.3.0                                 |
|   \\  /    A nd           | Web:      www.OpenFOAM.org                      |
|    \\/     M anipulation  |                                                 |
\*---------------------------------------------------------------------------*/
FoamFile
{
    version     2.0;
    format      ascii;
    class       volScalarField;
    location    "21000";
    object      T;
}
// * * * * * * * * * * * * * * * * * * * * * * * * * * * * * * * * * * * * * //

dimensions      [0 0 0 1 0 0 0];

internalField   nonuniform List<scalar> 
3060
(
34.1828
34.1941
34.2148
34.2444
34.2825
34.3286
34.3823
34.4434
34.5116
34.587
34.6696
34.7595
34.8565
34.9582
35.0625
35.1695
35.2791
35.3902
35.5009
35.6087
35.7104
35.8023
35.8802
35.9399
35.9769
35.9878
35.971
35.9287
35.8646
35.7832
35.6888
35.5855
35.4767
35.3656
35.2547
35.1455
35.039
34.935
34.8338
34.7383
34.6499
34.5689
34.4952
34.4286
34.3693
34.3175
34.2734
34.2375
34.2102
34.192
34.1834
34.1848
34.1961
34.2169
34.2466
34.2848
34.3311
34.3851
34.4464
34.5149
34.5907
34.6737
34.7641
34.8615
34.9636
35.0682
35.1755
35.2853
35.3965
35.5072
35.6149
35.7161
35.8073
35.8843
35.9428
35.9783
35.9875
35.9691
35.9254
35.8602
35.778
35.683
35.5793
35.4703
35.3593
35.2485
35.1397
35.0334
34.9297
34.8289
34.7338
34.6459
34.5653
34.4919
34.4256
34.3666
34.3149
34.271
34.2353
34.2081
34.19
34.1814
29.6838
29.7153
29.773
29.8557
29.9621
30.0912
30.2421
30.4144
30.6078
30.8225
31.0588
31.3172
31.5977
31.8995
32.213
32.534
32.8626
33.1958
33.5278
33.8506
34.1551
34.4306
34.6651
34.8454
34.9579
34.9912
34.9398
34.8114
34.6181
34.3734
34.0905
33.781
33.4552
33.1222
32.7894
32.462
32.1425
31.8296
31.5321
31.2563
31.0027
30.7712
30.5614
30.373
30.2059
30.0604
29.9371
29.8368
29.7606
29.7099
29.6858
29.6897
29.7214
29.7793
29.8623
29.9691
30.0987
30.2503
30.4233
30.6176
30.8334
31.0709
31.3306
31.6125
31.9157
32.2299
32.5518
32.8812
33.2148
33.5467
33.8689
34.1722
34.4458
34.6775
34.8541
34.9623
34.9905
34.9342
34.8015
34.6048
34.3576
34.0729
33.7623
33.4361
33.1032
32.7709
32.4443
32.1257
31.8137
31.5176
31.2431
30.9909
30.7606
30.5518
30.3643
30.198
30.053
29.9302
29.8302
29.7544
29.7038
29.6798
25.4948
25.5441
25.6344
25.7639
25.9306
26.1332
26.3705
26.6417
26.9465
27.2852
27.6581
28.0657
28.5079
28.9839
29.4906
30.0142
30.5528
31.1001
31.6456
32.1759
32.6764
33.1301
33.5175
33.8168
34.0049
34.0609
33.9746
33.7603
33.4397
33.0359
32.5702
32.0615
31.5264
30.9791
30.4326
29.8966
29.3767
28.8743
28.4049
27.9699
27.5699
27.2048
26.8739
26.577
26.314
26.0854
25.8918
25.7347
25.6154
25.536
25.4983
25.5045
25.554
25.6447
25.7746
25.9421
26.1455
26.3837
26.6562
26.9625
27.3028
27.6776
28.0872
28.5316
29.0097
29.5182
30.0434
30.5834
31.1314
31.6768
32.2061
32.7046
33.1551
33.5381
33.8314
34.0122
34.0597
33.9652
33.7439
33.4178
33.0098
32.5413
32.0309
31.4949
30.9478
30.4021
29.8675
29.3493
28.8489
28.3816
27.9488
27.5509
27.1876
26.8583
26.5628
26.301
26.0733
25.8805
25.724
25.6052
25.5261
25.4886
21.765
21.8297
21.9482
22.118
22.3368
22.6025
22.9138
23.2695
23.6692
24.1128
24.6008
25.1336
25.7116
26.3341
26.9991
27.6965
28.4212
29.1627
29.9049
30.6281
31.3111
31.9306
32.4609
32.8722
33.132
33.2098
33.09
32.7944
32.3543
31.802
31.1662
30.4721
29.7426
28.9984
28.2588
27.5388
26.8474
26.1907
25.5772
25.0089
24.4859
24.008
23.5745
23.1852
22.8403
22.5403
22.2864
22.0802
21.9239
21.8197
21.7703
21.7784
21.8433
21.9623
22.1327
22.3523
22.6192
22.9318
23.2891
23.6906
24.1364
24.6268
25.1623
25.7431
26.3685
27.0361
27.736
28.4627
29.2054
29.9476
30.6695
31.3497
31.965
32.4892
32.8924
33.1421
33.2081
33.0769
32.7717
32.3242
31.7662
31.1266
30.4302
29.6997
28.9558
28.2175
27.4995
26.8102
26.1568
25.5464
24.9809
24.4605
23.9849
23.5535
23.166
22.8226
22.5239
22.271
22.0657
21.91
21.8062
21.7569
18.5868
18.6646
18.807
19.0108
19.2732
19.5917
19.9641
20.389
20.8655
21.3936
21.9735
22.606
23.2918
24.0308
24.8212
25.6589
26.5359
27.4389
28.3485
29.24
30.0845
30.8512
31.5079
32.0181
32.3414
32.4386
32.2892
31.9215
31.3759
30.6921
29.9053
29.0475
28.1491
27.2385
26.3391
25.4691
24.6408
23.8606
23.1327
22.4585
21.8376
21.2695
20.7534
20.289
19.8768
19.5177
19.2134
18.966
18.7782
18.653
18.5936
18.6034
18.6814
18.8243
19.029
19.2924
19.6122
19.9862
20.413
20.8918
21.4223
22.005
22.6407
23.3298
24.0723
24.8662
25.7071
26.5867
27.4914
28.4012
29.2912
30.1324
30.8938
31.543
32.0432
32.354
32.4364
32.2728
31.8933
31.3384
30.6477
29.8562
28.9955
28.0963
27.1863
26.2888
25.4217
24.5967
23.82
23.0955
22.4246
21.8068
21.2414
20.7277
20.2655
19.8551
19.4975
19.1944
18.948
18.761
18.6363
18.5771
15.9865
16.0755
16.2384
16.4712
16.7703
17.1324
17.5547
18.0349
18.5718
19.1649
19.8147
20.5223
21.2889
22.1154
23.0009
23.9456
24.9398
25.9684
27.0098
28.0359
29.0128
29.9023
30.6641
31.2556
31.6304
31.7431
31.5698
31.1437
30.5111
29.7177
28.8053
27.814
26.7812
25.7397
24.7164
23.7313
22.7985
21.9252
21.1116
20.3579
19.6632
19.0262
18.4461
17.9225
17.4563
17.0488
16.7025
16.4204
16.2058
16.0626
15.9945
16.0057
16.0951
16.2586
16.4923
16.7926
17.1562
17.5802
18.0625
18.6018
19.1978
19.8507
20.5617
21.3321
22.1626
23.0522
24.0006
24.998
26.0286
27.0706
28.0953
29.0685
29.9519
30.7049
31.2848
31.645
31.7406
31.5508
31.1109
30.4676
29.6661
28.7482
27.7539
26.7203
25.6799
24.659
23.6775
22.7491
21.8793
21.0694
20.3193
19.628
18.9941
18.4166
17.8954
17.4312
17.0254
16.6805
16.3995
16.1858
16.0431
15.9753
13.9334
14.0326
14.214
14.4727
14.8041
15.2036
15.6675
16.1926
16.7768
17.4194
18.1207
18.8822
19.7059
20.594
21.5473
22.5682
23.6462
24.7653
25.9027
27.0278
28.1034
29.086
29.9282
30.5807
30.9929
31.1164
30.9264
30.4575
29.7593
28.882
27.8748
26.7843
25.6528
24.5164
23.4037
22.3362
21.3285
20.3897
19.5158
18.7058
17.9577
17.2697
16.6405
16.0701
15.5597
15.1115
14.729
14.4162
14.1776
14.018
13.9422
13.9547
14.0543
14.2363
14.496
14.8286
15.2298
15.6956
16.2229
16.8098
17.4553
18.1599
18.9251
19.7529
20.6454
21.6032
22.6283
23.7099
24.8314
25.9695
27.0934
28.1651
29.141
29.9734
30.613
31.009
31.1137
30.9055
30.4213
29.711
28.8248
27.8116
26.7181
25.586
24.4509
23.341
22.2773
21.274
20.3396
19.4699
18.6638
17.9193
17.2345
16.6082
16.0403
15.532
15.0857
14.7047
14.3931
14.1555
13.9965
13.921
12.3578
12.4671
12.6666
12.9505
13.3127
13.7472
14.2486
14.8125
15.4357
16.1169
16.8562
17.6553
18.5174
19.4457
20.4434
21.5133
22.6451
23.8226
25.0223
26.2124
27.3531
28.3973
29.293
29.9853
30.4204
30.55
30.3504
29.8549
29.1134
28.1805
27.1106
25.9548
24.7587
23.5607
22.3905
21.2702
20.2144
19.2324
18.3188
17.4707
16.6848
15.9585
15.2905
14.681
14.1319
13.6468
13.2302
12.8879
12.6259
12.4503
12.3667
12.3805
12.4902
12.6904
12.9754
13.3389
13.7751
14.2785
14.8447
15.4706
16.1549
16.8976
17.7006
18.5668
19.4998
20.5024
21.5768
22.7124
23.8926
25.0933
26.2822
27.4188
28.456
29.3411
30.0195
30.4374
30.5472
30.3283
29.8164
29.062
28.1196
27.0434
25.8844
24.6878
23.4913
22.3242
21.2079
20.1568
19.1795
18.2704
17.4264
16.6442
15.9213
15.2562
14.6493
14.1025
13.6192
13.2043
12.8633
12.6023
12.4273
12.3441
11.1712
11.2913
11.5103
11.8209
12.2154
12.6857
13.2244
13.8254
14.4841
15.1981
15.9671
16.793
17.6796
18.6319
19.6549
20.751
21.9107
23.1184
24.3505
25.5745
26.7492
27.8253
28.7476
29.4588
29.9033
30.0347
29.832
29.3251
28.5629
27.6019
26.4994
25.3095
24.0798
22.8498
21.65
20.5022
19.4206
18.4134
17.4757
16.6024
15.7889
15.0321
14.3304
13.6849
13.0984
12.576
12.1244
11.7512
11.4642
11.2714
11.1796
11.1947
11.3152
11.535
11.8467
12.2426
12.7146
13.2554
13.8588
14.5202
15.2372
16.0097
16.8395
17.7305
18.6874
19.7155
20.8163
21.98
23.1905
24.4236
25.6464
26.8171
27.8858
28.7972
29.4938
29.9205
30.0318
29.8095
29.2856
28.5099
27.539
26.43
25.2369
24.0067
22.7783
21.5817
20.4381
19.3612
18.359
17.4259
16.5568
15.7471
14.9936
14.295
13.652
13.0678
12.5475
12.0975
11.7256
11.4397
11.2476
11.1561
10.2831
10.4154
10.6562
10.9969
11.4272
11.9369
12.516
13.1561
13.8507
14.596
15.3911
16.2377
17.1403
18.1049
19.1385
20.2426
21.4089
22.6228
23.8613
25.0922
26.2734
27.3547
28.28
28.991
29.433
29.5628
29.3623
28.8575
28.0949
27.1304
26.0223
24.8257
23.5893
22.3529
21.1469
19.9923
18.9023
17.8839
16.9328
16.0423
15.2067
14.4223
13.688
13.0055
12.3793
11.8166
11.3263
10.9185
10.6036
10.3914
10.2904
10.307
10.4397
10.6813
11.0231
11.4549
11.9664
12.5476
13.19
13.8874
14.6357
15.4342
16.2847
17.1915
18.1608
19.1995
20.3082
21.4786
22.6953
23.935
25.1646
26.3417
27.4155
28.3297
29.0259
29.4501
29.5599
29.3399
28.8181
28.0417
27.0671
25.9524
24.7526
23.5156
22.2809
21.0781
19.9278
18.8425
17.829
16.8826
15.9963
15.1644
14.3833
13.6519
12.972
12.3482
11.7875
11.2989
10.8925
10.5787
10.3672
10.2665
9.61199
9.75807
10.0239
10.3986
10.8698
11.424
12.0486
12.7322
13.4661
14.2446
15.0658
15.931
16.8448
17.8143
18.8478
19.9458
21.1018
22.3026
23.5263
24.7411
25.9056
26.9698
27.878
28.5731
29.003
29.1285
28.9345
28.4429
27.6965
26.7492
25.6581
24.4781
23.2576
22.0358
20.8424
19.6973
18.6121
17.5923
16.6347
15.731
14.8749
14.0624
13.2931
12.57
11.8995
11.2913
10.7571
10.31
9.96329
9.72908
9.61751
9.63581
9.78234
10.049
10.4249
10.8976
11.4537
12.0803
12.7663
13.5028
14.2843
15.1088
15.9777
16.8957
17.8698
18.9082
20.0107
21.1707
22.3743
23.599
24.8125
25.9729
27.0296
27.9266
28.6072
29.0196
29.1257
28.9128
28.4044
27.6444
26.687
25.5893
24.406
23.1848
21.9646
20.7744
19.6334
18.5529
17.5379
16.5847
15.6851
14.8326
14.0233
13.2569
12.5364
11.8682
11.262
10.7296
10.284
9.93836
9.70492
9.59372
9.09033
9.25192
9.54576
9.95902
10.4763
11.0809
11.7568
12.4895
13.2676
14.0832
14.9329
15.8173
16.7409
17.7113
18.7372
19.819
20.952
22.1247
23.3165
24.497
25.6262
26.6553
27.5307
28.1979
28.6085
28.7276
28.5431
28.073
27.3559
26.4421
25.3863
24.2416
23.0548
21.8642
20.6978
19.5743
18.5035
17.489
16.5282
15.6123
14.7345
13.8911
13.0827
12.3138
11.5934
10.9338
10.35
9.8586
9.47596
9.21698
9.09362
9.11383
9.27588
9.57059
9.98508
10.5039
11.1104
11.7884
12.5234
13.304
14.1225
14.9754
15.8634
16.791
17.7657
18.7962
19.8823
21.019
22.1943
23.387
24.5662
25.6912
26.7129
27.5774
28.2304
28.6242
28.725
28.5224
28.0362
27.3058
26.3821
25.3198
24.1717
22.9842
21.795
20.6316
19.5119
18.4455
17.4356
16.479
15.567
14.6926
13.8524
13.0467
12.2804
11.5622
10.9046
10.3227
9.83276
9.45129
9.19312
9.07016
8.66566
8.84424
9.16892
9.62458
10.1927
10.8531
11.586
12.3734
13.2009
14.0583
14.9403
15.8463
16.7805
17.7503
18.7638
19.8225
20.9236
22.0573
23.2046
24.3369
25.4164
26.3968
27.2276
27.8582
28.2445
28.3561
28.183
27.7403
27.0619
26.1938
25.1871
24.0919
22.9527
21.8054
20.6766
19.583
18.5327
17.5274
16.5647
15.6355
14.7332
13.855
13.0025
12.1825
11.4064
10.6898
10.0513
9.51095
9.0888
8.80263
8.66636
8.68864
8.8677
9.19328
9.65022
10.2199
10.8822
11.6171
12.4069
13.2369
14.0971
14.982
15.8914
16.8292
17.8032
18.8208
19.8835
20.988
22.124
23.272
24.4029
25.4781
26.4514
27.2717
27.8887
28.2592
28.3536
28.1637
27.7057
27.0145
26.1368
25.1238
24.0252
22.8851
21.7391
20.6129
19.5229
18.4767
17.4756
16.5167
15.5911
14.6921
13.8168
12.967
12.1494
11.3756
10.661
10.0243
9.48553
9.0646
8.77927
8.64341
8.29912
8.49581
8.85342
9.35442
9.97701
10.6973
11.4916
12.3385
13.2202
14.124
15.0422
15.9731
16.9196
17.8889
18.8877
19.9195
20.9831
22.0706
23.1646
24.2388
25.2581
26.1802
26.9584
27.5466
27.9055
28.0089
27.8483
27.4367
26.8031
25.9892
25.0416
24.0063
22.9243
21.8289
20.7443
19.6858
18.6597
17.6656
16.7001
15.7554
14.8252
13.9079
13.0068
12.131
11.2946
10.5166
9.81921
9.22655
8.76217
8.44697
8.29695
8.32144
8.51863
8.87717
9.37949
10.0037
10.7259
11.5223
12.3715
13.2556
14.1619
15.083
16.0168
16.9667
17.9396
18.9422
19.9775
21.0442
22.1337
23.2281
24.3007
25.3159
26.231
26.9994
27.5749
27.919
28.0066
27.8305
27.4046
26.759
25.936
24.9822
23.9435
22.8606
21.7661
20.6838
19.6285
18.6059
17.6155
16.6537
15.7122
14.785
13.8704
12.9719
12.0984
11.2642
10.4882
9.79276
9.20169
8.73857
8.42425
8.27467
7.96287
8.17832
8.57003
9.11798
9.79701
10.5795
11.4379
12.3471
13.2862
14.2398
15.1981
16.157
17.1182
18.0879
19.0719
20.0752
21.0985
22.1365
23.1717
24.1809
25.133
25.9901
26.7106
27.2537
27.5846
27.6798
27.5318
27.152
26.5667
25.8125
24.9306
23.9623
22.9442
21.9055
20.8685
19.8477
18.8468
17.8642
16.8945
15.9315
14.9701
14.0099
13.0568
12.1219
11.2224
10.3805
9.62216
8.97529
8.46717
8.1219
7.95765
7.98442
8.20039
8.59307
9.14238
9.82308
10.6075
11.4679
12.3794
13.3208
14.2769
15.2377
16.1993
17.1635
18.1363
19.1236
20.1299
21.1559
22.1956
23.2308
24.2383
25.1864
26.0369
26.7481
27.2795
27.597
27.6778
27.5154
27.1226
26.5263
25.7635
24.8758
23.9041
22.8848
21.8466
20.8116
19.7935
18.7958
17.8164
16.8498
15.8897
14.9309
13.9733
13.0225
12.09
11.1926
10.3528
9.59632
8.95108
8.44428
8.09992
7.93613
7.63734
7.87173
8.2977
8.89261
9.62798
10.4725
11.3951
12.3671
13.3648
14.37
15.3712
16.3607
17.3391
18.3107
19.281
20.2561
21.2379
22.222
23.1952
24.1373
25.0205
25.8114
26.4737
26.9715
27.2746
27.3619
27.2261
26.8781
26.3411
25.6472
24.8325
23.933
22.981
22.0027
21.0168
20.0345
19.0585
18.086
17.1103
16.1266
15.1314
14.1255
13.1188
12.1241
11.1611
10.2552
9.43603
8.73503
8.18313
7.8076
7.62896
7.65805
7.89298
8.31995
8.91626
9.65333
10.4998
11.4244
12.3987
13.3985
14.4062
15.4096
16.4015
17.3824
18.3567
19.3297
20.3074
21.2912
22.2765
23.2497
24.1898
25.0692
25.8539
26.5077
26.995
27.2858
27.36
27.2113
26.8514
26.3044
25.6026
24.7823
23.8795
22.9263
21.9482
20.9638
19.9837
19.0104
18.0405
17.0674
16.0861
15.0933
14.0898
13.0854
12.0928
11.132
10.2282
9.41089
8.71156
8.16102
7.78644
7.60828
7.30886
7.56201
8.02131
8.66142
9.45064
10.3544
11.3382
12.3706
13.4248
14.4801
15.522
16.5424
17.5392
18.5146
19.4736
20.423
21.3657
22.2987
23.2119
24.0881
24.9037
25.63
26.2355
26.6895
26.9655
27.0451
26.9212
26.604
26.114
25.4788
24.7297
23.8976
23.0104
22.0902
21.1528
20.2065
19.2528
18.2879
17.3047
16.2993
15.2704
14.2215
13.1628
12.1103
11.0864
10.1196
9.24229
8.48946
7.89531
7.49021
7.29721
7.32866
7.58237
8.04271
8.68425
9.47521
10.3809
11.3668
12.4013
13.4577
14.515
15.5591
16.5816
17.5805
18.558
19.5192
20.4706
21.4149
22.3487
23.2615
24.1358
24.9478
25.6683
26.2661
26.7105
26.9756
27.0434
26.9078
26.58
26.0809
25.4386
24.6843
23.8491
22.9603
22.0402
21.1038
20.1592
19.2076
18.2449
17.2638
16.2604
15.2336
14.1868
13.1302
12.0798
11.0581
10.0932
9.2179
8.4668
7.87405
7.46994
7.27744
6.96702
7.2377
7.72747
8.40822
9.24543
10.2017
11.2401
12.3267
13.4324
14.5342
15.6158
16.6668
17.683
18.6641
19.6151
20.5429
21.451
22.3378
23.1955
24.0102
24.7624
25.4276
25.9796
26.3922
26.6428
26.715
26.6024
26.3142
25.8685
25.2887
24.6014
23.8326
23.0056
22.139
21.2451
20.3304
19.395
18.4348
17.4423
16.4145
15.3526
14.2623
13.1555
12.0506
10.9723
9.95113
9.02229
8.2232
7.59091
7.15865
6.95212
6.98584
7.25709
7.74791
8.43013
9.2691
10.2274
11.2678
12.3565
13.4642
14.568
15.6515
16.7043
17.7223
18.705
19.6577
20.5871
21.4962
22.3834
23.2405
24.0533
24.8019
25.462
26.007
26.4111
26.6519
26.7135
26.5905
26.2928
25.8389
25.2527
24.5606
23.7887
22.9602
22.0932
21.2
20.2864
19.3526
18.394
17.4032
16.3772
15.317
14.2286
13.1239
12.021
10.9447
9.92567
8.99879
8.20145
7.57059
7.13934
6.93333
6.60362
6.88914
7.40427
8.11847
8.99491
9.99416
11.0775
12.2092
13.3587
14.5012
15.6185
16.6983
17.7338
18.7225
19.6691
20.5803
21.4597
22.3066
23.1155
23.8753
24.57
25.18
25.6832
26.058
26.2853
26.3507
26.2484
25.9868
25.5814
25.0521
24.4207
23.7089
22.9357
22.1159
21.2593
20.3704
19.4487
18.4898
17.4868
16.4372
15.3446
14.2171
13.0688
11.9196
10.7961
9.7304
8.75943
7.92247
7.25872
6.80375
6.58572
6.62138
6.90748
7.42367
8.13935
9.01757
10.0188
11.1041
12.2379
13.3894
14.5338
15.6528
16.7342
17.7712
18.761
19.7089
20.6211
21.5011
22.3481
23.1561
23.9139
24.6054
25.2105
25.7075
26.0747
26.2933
26.3494
26.2378
25.9678
25.5551
25.0199
24.3842
23.6694
22.8945
22.0741
21.2178
20.3296
19.409
18.4513
17.4495
16.4013
15.3103
14.1846
13.0382
11.891
10.7695
9.70592
8.73692
7.90173
7.23943
6.78549
6.56798
6.21283
6.50925
7.0426
7.78043
8.68434
9.71371
10.8288
11.9933
13.1755
14.3497
15.4959
16.6
17.6532
18.6501
19.5955
20.4949
21.3518
22.1663
22.9341
23.6469
24.292
24.8536
25.314
25.6555
25.8621
25.9215
25.8283
25.5902
25.2204
24.7352
24.1527
23.4901
22.7626
21.9819
21.1555
20.2864
19.3738
18.4136
17.4
16.3311
15.2129
14.0558
12.8755
11.6935
10.5374
9.44028
8.43982
7.57631
6.89025
6.41887
6.19232
6.22945
6.52645
7.06086
7.80017
8.70586
9.7372
10.8544
12.0209
13.205
14.381
15.5288
16.6343
17.6886
18.6864
19.6326
20.5327
21.3899
22.204
22.9708
23.6816
24.3235
24.8807
25.3355
25.6702
25.8691
25.9203
25.8189
25.5734
25.1971
24.7067
24.1201
23.4546
22.7253
21.9438
21.1172
20.2485
19.3366
18.3773
17.3646
16.2968
15.1799
14.0245
12.846
11.666
10.5119
9.41691
8.41842
7.55669
6.87208
6.40174
6.17572
5.79051
6.09276
6.63525
7.38434
8.30095
9.34422
10.4745
11.6555
12.8555
14.0481
15.2127
16.3335
17.3995
18.4032
19.3487
20.2402
21.0804
21.8695
22.6044
23.2786
23.8825
24.4035
24.8277
25.1408
25.3298
25.384
25.2986
25.0805
24.7408
24.293
23.7513
23.1294
22.4392
21.6897
20.8867
20.0321
19.1254
18.1633
17.1413
16.0585
14.9232
13.7477
12.5491
11.3497
10.1775
9.06559
8.05156
7.17573
6.4789
5.99915
5.76796
5.80592
6.10874
6.65229
7.40284
8.32121
9.36644
10.4988
11.6817
12.8836
14.078
15.2441
16.3661
17.4331
18.4374
19.3834
20.2753
21.1154
21.9039
22.6375
23.3097
23.9106
24.4276
24.8467
25.1538
25.336
25.3829
25.2903
25.0656
24.7202
24.2676
23.7221
23.0975
22.4055
21.6549
20.8514
19.9969
19.0905
18.1289
17.1076
16.0257
14.8917
13.7178
12.5209
11.3235
10.1533
9.04347
8.03141
7.15733
6.46195
5.98323
5.75257
5.3338
5.63576
6.17654
6.92212
7.83373
8.87131
9.99629
11.1734
12.3717
13.5653
14.7329
15.8581
16.9282
17.9337
18.8777
19.7625
20.5896
21.3588
22.0677
22.7112
23.2819
23.77
24.1646
24.4543
24.6287
24.6787
24.5997
24.3981
24.0831
23.6657
23.157
22.5678
21.9073
21.1824
20.3976
19.5546
18.6532
17.6916
16.6672
15.5802
14.4409
13.2629
12.0641
10.8671
9.69925
8.5929
7.58449
6.71333
6.01953
5.54104
5.3099
5.34792
5.65044
6.19224
6.93925
7.85258
8.89209
10.0191
11.1982
12.3984
13.5936
14.7627
15.889
16.9599
17.9659
18.9102
19.7951
20.6219
21.3903
22.0978
22.7392
23.307
23.7914
24.1814
24.4659
24.6343
24.6778
24.5924
24.3849
24.0648
23.643
23.1309
22.539
21.8766
21.1505
20.3649
19.5217
18.6204
17.6591
16.6352
15.5491
14.411
13.2345
12.0375
10.8423
9.67652
8.57221
7.56573
6.69629
6.00391
5.52642
5.2958
4.84085
5.13549
5.66212
6.3873
7.27357
8.28273
9.37828
10.527
11.6996
12.8712
14.0213
15.133
16.193
17.1904
18.1264
19.0013
19.815
20.5665
21.2536
21.8719
22.4155
22.877
23.2476
23.5185
23.6811
23.7276
23.6537
23.4654
23.1705
22.7776
22.2957
21.7331
21.0971
20.393
19.6248
18.7943
17.9023
16.9485
15.9329
14.8569
13.7321
12.5729
11.3972
10.2267
9.08782
8.01086
7.03026
6.18328
5.5083
5.04211
4.81641
4.8536
5.14877
5.67638
6.40293
7.29086
8.30188
9.39939
10.55
11.7244
12.8977
14.0492
15.162
16.2227
17.2205
18.1568
19.0316
19.8448
20.5954
21.281
21.8973
22.4382
22.8961
23.2626
23.5288
23.686
23.7267
23.6472
23.4537
23.1541
22.7573
22.2721
21.707
21.069
20.3636
19.5945
18.7636
17.8715
16.918
15.9027
14.8275
13.7039
12.5462
11.3722
10.2037
9.06676
7.99178
7.01305
6.16774
5.49411
5.02888
4.80368
4.31066
4.59024
5.08907
5.77527
6.61372
7.56906
8.60781
9.69961
10.8178
11.9395
13.0454
14.1196
15.1486
16.1213
17.0365
17.892
18.6861
19.4168
20.0813
20.6757
21.1951
21.6332
21.9833
22.2382
22.3908
22.4343
22.3649
22.1878
21.9098
21.5381
21.0797
20.5414
19.9289
19.247
18.4993
17.6883
16.816
15.8841
14.8948
13.8515
12.7661
11.6526
10.5282
9.41318
8.33143
7.31083
6.38276
5.58149
4.94266
4.50089
4.28659
4.32195
4.60202
5.10177
5.78925
6.62927
7.58638
8.62699
9.72065
10.8406
11.9639
13.0712
14.1463
15.1759
16.1493
17.0648
17.9201
18.7137
19.4433
20.1063
20.6987
21.2155
21.6504
21.9968
22.2474
22.3952
22.4335
22.359
22.1773
21.8951
21.5198
21.0584
20.5176
19.9032
19.2199
18.4713
17.6598
16.7874
15.8557
14.8668
13.8243
12.74
11.6281
10.5054
9.39213
8.3123
7.29358
6.36728
5.56758
4.93002
4.48915
4.27531
3.74302
3.99936
4.456
5.08361
5.85038
6.72468
7.67687
8.68023
9.71141
10.7503
11.78
12.7859
13.7558
14.6799
15.5533
16.372
17.1325
17.8316
18.4659
19.0315
19.5238
19.9374
20.2668
20.506
20.6489
20.6896
20.6244
20.4583
20.1972
19.847
19.4137
18.9028
18.3195
17.6681
16.9525
16.176
15.3418
14.4536
13.5158
12.5339
11.5189
10.4837
9.44348
8.41616
7.42277
6.48769
5.63858
4.90584
4.32145
3.91689
3.72029
3.75277
4.00955
4.46703
5.09581
5.86401
6.73993
7.69383
8.69894
9.73181
10.7723
11.8033
12.8102
13.7808
14.7055
15.5792
16.3977
17.1577
17.8558
18.4886
19.0523
19.5422
19.9529
20.2789
20.5142
20.6528
20.6889
20.6191
20.4489
20.184
19.8306
19.3944
18.8813
18.2961
17.6434
16.9268
16.1498
15.3155
14.4275
13.4903
12.5092
11.4954
10.4616
9.42304
8.39746
7.40585
6.47251
5.62502
4.89371
4.31047
3.90672
3.71054
3.13845
3.36328
3.76324
4.31247
4.98337
5.7488
6.5836
7.46533
8.37451
9.2945
10.2112
11.1128
11.989
12.8321
13.6343
14.3897
15.0934
15.7413
16.3294
16.8533
17.3086
17.6906
17.9942
18.2143
18.3457
18.3831
18.323
18.1701
17.9296
17.6066
17.2062
16.7334
16.1929
15.589
14.926
14.2079
13.4391
12.6248
11.7714
10.8861
9.97798
9.05764
8.13761
7.23268
6.36031
5.54086
4.79765
4.15654
3.64504
3.29057
3.11804
3.14658
3.3718
3.77248
4.32273
4.99487
5.76173
6.59806
7.48135
8.39207
9.31351
10.2315
11.1342
12.0113
12.855
13.6574
14.4127
15.1159
15.7629
16.3496
16.8718
17.3249
17.7043
18.0049
18.2215
18.3491
18.3824
18.3183
18.1617
17.9179
17.592
17.1891
16.7142
16.172
15.5669
14.9031
14.1846
13.4157
12.6016
11.7489
10.8645
9.95757
9.03859
8.12005
7.21669
6.3459
5.528
4.78621
4.14634
3.63584
3.28208
3.10992
2.49815
2.68356
3.01295
3.46486
4.01666
4.64636
5.33377
6.06111
6.81313
7.57703
8.34217
9.09985
9.84297
10.5663
11.2601
11.9173
12.5324
13.1004
13.617
14.0779
14.4786
14.8148
15.0819
15.2754
15.391
15.4239
15.3709
15.2364
15.0247
14.7405
14.388
13.9719
13.4966
12.9663
12.3854
11.7585
11.0906
10.3877
9.65765
8.90869
8.14692
7.37986
6.61674
5.86882
5.14958
4.47502
3.86367
3.33634
2.91539
2.62337
2.48103
2.50459
2.69032
3.02029
3.47303
4.02586
4.65673
5.34541
6.07406
6.8274
7.59257
8.3589
9.11765
9.86171
10.5856
11.2798
11.9369
12.5516
13.1188
13.6343
14.0937
14.4925
14.8264
15.091
15.2816
15.3939
15.4233
15.367
15.2293
15.0148
14.728
14.3734
13.9555
13.4787
12.9474
12.3658
11.7386
11.0708
10.3682
9.63893
8.8909
8.13021
7.36434
6.60252
5.85591
5.138
4.46471
3.85453
3.32822
2.90808
2.61663
2.47459
1.82391
1.96276
2.20911
2.54674
2.95868
3.42858
3.94163
4.48493
5.04759
5.62073
6.19729
6.77199
7.34123
7.90287
8.44647
8.96484
9.45247
9.90472
10.3174
10.6864
11.0079
11.278
11.4927
11.6484
11.7414
11.7678
11.7252
11.6169
11.4466
11.2181
10.935
10.6013
10.2208
9.79755
9.33554
8.83913
8.31319
7.76366
7.19858
6.62651
6.0498
5.47251
4.90043
4.34111
3.80401
3.3006
2.84435
2.45061
2.13603
1.91755
1.81091
1.82858
1.96766
2.21445
2.5527
2.96539
3.43617
3.95017
4.49446
5.05813
5.63227
6.2098
6.78544
7.35559
7.91781
8.46173
8.98012
9.46748
9.91918
10.331
10.6989
11.0189
11.2872
11.4999
11.6533
11.7437
11.7674
11.722
11.6113
11.4388
11.2083
10.9235
10.5884
10.2069
9.78278
9.32028
8.82368
8.29785
7.74874
7.18444
6.6132
6.03739
5.46105
4.88995
4.33164
3.79553
3.29306
2.83768
2.44469
2.13071
1.91266
1.80624
1.11783
1.20421
1.35728
1.56676
1.822
2.11279
2.42995
2.7656
3.11322
3.46766
3.82515
4.18343
4.54203
4.902
5.25381
5.59157
5.91103
6.20868
6.48133
6.72594
6.93957
7.11937
7.26257
7.3665
7.42861
7.44628
7.41776
7.3454
7.23175
7.0794
6.89101
6.66937
6.41737
6.13796
5.83422
5.50943
5.1673
4.81247
4.45167
4.09245
3.73354
3.3759
3.02224
2.67671
2.34485
2.03357
1.75114
1.50709
1.31183
1.17604
1.10968
1.12068
1.2072
1.36053
1.57039
1.82609
2.11742
2.43516
2.77142
3.11966
3.47474
3.83288
4.19183
4.55117
4.9116
5.26366
5.60148
5.92081
6.21813
6.49024
6.7341
6.94678
7.12543
7.26729
7.36971
7.43015
7.446
7.4157
7.3417
7.22659
7.07294
6.88345
6.66091
6.40821
6.12831
5.82429
5.49943
5.15742
4.80296
4.44285
4.08425
3.72593
3.36889
3.01584
2.67093
2.33967
2.02897
1.74707
1.50348
1.30859
1.17306
1.10683
0.382027
0.41164
0.464027
0.535565
0.622493
0.721229
0.82857
0.941793
1.05869
1.17758
1.29737
1.41773
1.53966
1.66596
1.79083
1.91158
2.02646
2.13405
2.23305
2.32222
2.40036
2.46631
2.51893
2.55718
2.58006
2.58657
2.57606
2.54941
2.5076
2.45163
2.38258
2.30157
2.20979
2.10844
1.99878
1.88216
1.76005
1.63444
1.50867
1.38709
1.26666
1.14681
1.02811
0.911829
0.799788
0.694347
0.598372
0.515193
0.448472
0.401974
0.379216
0.382992
0.412652
0.465127
0.53679
0.623871
0.722782
0.830314
0.943736
1.06084
1.17994
1.29995
1.42057
1.54286
1.66937
1.79435
1.91514
2.02999
2.13747
2.23629
2.3252
2.403
2.46853
2.52067
2.55836
2.58062
2.58646
2.5753
2.54805
2.5057
2.44927
2.37982
2.29849
2.20646
2.10495
1.99521
1.87857
1.75654
1.6311
1.5057
1.38436
1.26413
1.14448
1.02598
0.9099
0.798055
0.692802
0.597001
0.513974
0.447375
0.400964
0.378251
)
;

boundaryField
{
    top
    {
        type            fixedValue;
        value           uniform 0;
    }
    bottom
    {
        type            fixedValue;
        value           uniform 36.5;
    }
    frontAndBack
    {
        type            empty;
    }
    left_cyc
    {
        type            cyclic;
    }
    right_cyc
    {
        type            cyclic;
    }
}


// ************************************************************************* //
