/*--------------------------------*- C++ -*----------------------------------*\
| =========                 |                                                 |
| \\      /  F ield         | OpenFOAM: The Open Source CFD Toolbox           |
|  \\    /   O peration     | Version:  2.3.0                                 |
|   \\  /    A nd           | Web:      www.OpenFOAM.org                      |
|    \\/     M anipulation  |                                                 |
\*---------------------------------------------------------------------------*/
FoamFile
{
    version     2.0;
    format      ascii;
    class       volScalarField;
    location    "21000";
    object      T;
}
// * * * * * * * * * * * * * * * * * * * * * * * * * * * * * * * * * * * * * //

dimensions      [0 0 0 1 0 0 0];

internalField   nonuniform List<scalar> 
3060
(
34.1972
34.2084
34.2288
34.258
34.2956
34.341
34.3941
34.4544
34.5219
34.5967
34.6788
34.7684
34.865
34.9665
35.0706
35.1773
35.2864
35.3969
35.507
35.6141
35.7152
35.8066
35.8842
35.9437
35.9806
35.9916
35.975
35.9331
35.8695
35.7886
35.6949
35.5922
35.4841
35.3736
35.2632
35.1545
35.0482
34.9444
34.8434
34.7481
34.66
34.5795
34.5063
34.4404
34.3818
34.3306
34.2871
34.2516
34.2247
34.2067
34.1982
34.1996
34.2108
34.2313
34.2606
34.2983
34.344
34.3973
34.4579
34.5258
34.601
34.6836
34.7737
34.8708
34.9727
35.0771
35.1841
35.2935
35.4041
35.5142
35.6212
35.7218
35.8124
35.8889
35.947
35.9823
35.9913
35.9729
35.9293
35.8644
35.7826
35.6881
35.585
35.4768
35.3663
35.2561
35.1477
35.0417
34.9383
34.8377
34.7429
34.6554
34.5753
34.5025
34.437
34.3787
34.3277
34.2844
34.2491
34.2222
34.2043
34.1959
29.7243
29.7554
29.8125
29.8943
29.9995
30.1272
30.2765
30.4471
30.6388
30.8519
31.0869
31.344
31.6235
31.9243
32.237
32.557
32.8843
33.2158
33.5457
33.8666
34.1694
34.4435
34.677
34.8566
34.9691
35.0026
34.9519
34.8245
34.6326
34.3895
34.1083
33.8008
33.4771
33.1461
32.8148
32.4886
32.1699
31.8577
31.5609
31.2859
31.0334
30.8032
30.5948
30.4079
30.2423
30.0982
29.9761
29.8768
29.8014
29.7512
29.7273
29.7312
29.7625
29.8198
29.9019
30.0076
30.1358
30.2859
30.4574
30.6502
30.8645
31.1009
31.3596
31.6406
31.943
32.2566
32.5776
32.9057
33.2376
33.5675
33.8876
34.189
34.4609
34.6912
34.8667
34.974
35.0018
34.9455
34.8132
34.6173
34.3713
34.0882
33.7794
33.4552
33.1242
32.7935
32.4682
32.1506
31.8393
31.5441
31.2708
31.0197
30.7909
30.5837
30.3978
30.2331
30.0897
29.9681
29.8692
29.7942
29.7441
29.7204
25.557
25.6058
25.6954
25.8237
25.9891
26.19
26.4253
26.6945
26.9973
27.3339
27.7048
28.1105
28.551
29.0254
29.5307
30.0525
30.5889
31.1334
31.6756
32.2027
32.7002
33.1514
33.5369
33.8351
34.0228
34.0793
33.9942
33.7817
33.4635
33.0624
32.5999
32.0946
31.5629
31.0189
30.4749
29.9407
29.4222
28.9211
28.4528
28.0192
27.6208
27.2573
26.9282
26.6331
26.3719
26.1449
25.9528
25.7968
25.6785
25.5997
25.5623
25.5684
25.6174
25.7074
25.8362
26.0023
26.2042
26.4407
26.7113
27.0157
27.3542
27.7273
28.1354
28.5784
29.0552
29.5625
30.0862
30.6241
31.1693
31.7114
32.2374
32.7326
33.1801
33.5605
33.8518
34.0311
34.0779
33.9833
33.7629
33.4383
33.0325
32.5667
32.0595
31.5269
30.9829
30.4399
29.9072
29.3906
28.8917
28.426
27.9949
27.5988
27.2374
26.9102
26.6167
26.3568
26.1309
25.9397
25.7844
25.6666
25.5881
25.5509
21.8436
21.9079
22.0256
22.1943
22.4118
22.676
22.9854
23.3392
23.7368
24.1783
24.6642
25.195
25.7709
26.3914
27.0542
27.7491
28.4709
29.2087
29.9467
30.6656
31.3443
31.9601
32.4874
32.8968
33.1559
33.2342
33.1163
32.8234
32.3869
31.8387
31.2076
30.5183
29.7932
29.0531
28.3169
27.5993
26.9097
26.2548
25.643
25.0762
24.5548
24.0785
23.6468
23.2592
22.9159
22.6173
22.3647
22.1596
22.0041
21.9004
21.8512
21.8592
21.9237
22.042
22.2114
22.4299
22.6953
23.0063
23.3619
23.7617
24.2057
24.6943
25.2282
25.8073
26.431
27.0969
27.7947
28.5186
29.2577
29.9957
30.713
31.3886
31.9994
32.5198
32.9199
33.1674
33.2323
33.1013
32.7975
32.3523
31.7977
31.1622
30.4702
29.744
29.0042
28.2694
27.554
26.8668
26.2157
25.6073
25.0438
24.5254
24.0518
23.6224
23.2369
22.8954
22.5983
22.3469
22.1427
21.9878
21.8846
21.8356
18.6762
18.7536
18.8954
19.0984
19.3599
19.6771
20.0482
20.4715
20.9464
21.4727
22.0507
22.6813
23.365
24.1018
24.8896
25.7243
26.5977
27.4964
28.401
29.2871
30.1262
30.8881
31.5408
32.0483
32.3705
32.4683
32.3212
31.9573
31.4163
30.738
29.9572
29.1053
28.2125
27.3066
26.4111
25.5442
24.7182
23.9399
23.2137
22.5409
21.9214
21.3545
20.8397
20.3766
19.9655
19.6074
19.3039
19.0573
18.87
18.7451
18.6858
18.6955
18.7733
18.9157
19.1196
19.3822
19.701
20.0739
20.4994
20.9768
21.506
22.0873
22.7214
23.409
24.1497
24.9415
25.7798
26.6562
27.5567
28.4615
29.3459
30.1811
30.9369
31.581
32.0771
32.3849
32.4658
32.3025
31.925
31.3734
30.6872
29.9009
29.0458
28.1518
27.2466
26.3533
25.4895
24.6673
23.893
23.1707
22.5017
21.8857
21.322
20.8099
20.3492
19.9402
19.5839
19.2818
19.0363
18.8499
18.7256
18.6665
16.0817
16.1705
16.333
16.5654
16.8639
17.2254
17.6468
18.1262
18.6621
19.2541
19.9026
20.6087
21.3735
22.1978
23.0806
24.0219
25.0121
26.0358
27.0715
28.0914
29.0619
29.9455
30.7024
31.2905
31.6638
31.7772
31.6068
31.1851
30.5583
29.7715
28.8662
27.8819
26.8555
25.8194
24.8004
23.8187
22.8885
22.017
21.2047
20.4521
19.7582
19.1219
18.5424
18.0194
17.5535
17.1465
16.8005
16.5186
16.3042
16.1611
16.093
16.1041
16.1933
16.3565
16.5899
16.8898
17.253
17.6765
18.1582
18.6969
19.2921
19.9443
20.6543
21.4234
22.2523
23.1397
24.0854
25.0791
26.105
27.1413
28.1595
29.1258
30.0023
30.7492
31.324
31.6806
31.7743
31.585
31.1476
30.5084
29.7124
28.8008
27.813
26.7856
25.7507
24.7344
23.7567
22.8314
21.9639
21.156
20.4075
19.7175
19.0847
18.5082
17.9879
17.5244
17.1193
16.7749
16.4943
16.2809
16.1384
16.0706
14.0304
14.1296
14.3108
14.5695
14.9008
15.3003
15.7641
16.2891
16.8731
17.5154
18.2161
18.9767
19.7992
20.6854
21.6361
22.6536
23.7273
24.8411
25.9721
27.0904
28.1588
29.1346
29.9711
30.6196
31.03
31.1543
30.9674
30.5037
29.812
28.9424
27.9433
26.8606
25.7361
24.6056
23.4976
22.4336
21.4284
20.4912
19.6182
18.8086
18.0607
17.3726
16.7432
16.1725
15.6617
15.2132
14.8304
14.5173
14.2785
14.1188
14.0428
14.0553
14.1548
14.3368
14.5966
14.9294
15.3308
15.7968
16.3243
16.9113
17.557
18.2615
19.0264
19.8535
20.7447
21.7006
22.7228
23.8005
24.917
26.0489
27.1656
28.2295
29.1976
30.0229
30.6566
31.0485
31.1512
30.9435
30.4623
29.7568
28.8769
27.871
26.7847
25.6593
24.5303
23.4254
22.3658
21.3657
20.4333
19.5651
18.7601
18.0162
17.3318
16.7057
16.1379
15.6296
15.1832
14.8021
14.4904
14.2527
14.0937
14.0181
12.4538
12.5632
12.7629
13.0471
13.4097
13.8448
14.3468
14.9113
15.5352
16.2169
16.9564
17.7555
18.6169
19.5439
20.5393
21.6059
22.7332
23.9052
25.0982
26.2809
27.4138
28.4506
29.3399
30.0278
30.4608
30.5912
30.395
29.9051
29.171
28.2465
27.1852
26.0378
24.8493
23.6574
22.4921
21.3753
20.3218
19.341
18.4277
17.5794
16.7928
16.0656
15.3965
14.7859
14.2357
13.7495
13.3321
12.989
12.7264
12.5504
12.4666
12.4803
12.5901
12.7906
13.0761
13.4403
13.8773
14.3816
14.9488
15.5757
16.2609
17.0044
17.8079
18.6741
19.6063
20.6073
21.679
22.8107
23.9856
25.1797
26.3608
27.4891
28.5177
29.395
30.0669
30.4803
30.5879
30.3698
29.8611
29.1121
28.1767
27.1083
25.9572
24.7679
23.5777
22.4158
21.3036
20.2554
19.2799
18.3718
17.5281
16.7458
16.0225
15.3567
14.7491
14.2015
13.7175
13.3019
12.9603
12.6989
12.5236
12.4402
11.2645
11.3848
11.6042
11.9154
12.3108
12.7822
13.3222
13.9246
14.5847
15.3
16.07
16.8967
17.7834
18.7349
19.7561
20.8491
22.0045
23.2065
24.4317
25.6479
26.8144
27.8826
28.7983
29.5046
29.9469
30.079
29.8799
29.3789
28.6245
27.6724
26.5791
25.3979
24.176
22.9525
21.7576
20.6131
19.5334
18.5269
17.5889
16.7146
15.8997
15.1411
14.4376
13.7901
13.2018
12.6778
12.2248
11.8503
11.5625
11.3691
11.2769
11.292
11.4127
11.633
11.9455
12.3425
12.8159
13.3583
13.9634
14.6266
15.3454
16.1195
16.9505
17.8422
18.7991
19.8259
20.9243
22.0842
23.2893
24.5156
25.7304
26.8921
27.9519
28.855
29.5447
29.9667
30.0757
29.8541
29.3337
28.5639
27.6004
26.4997
25.3147
24.0922
22.8704
21.679
20.5393
19.465
18.4642
17.5314
16.6619
15.8513
15.0965
14.3964
13.7519
13.1663
12.6445
12.1934
11.8205
11.5339
11.3413
11.2495
10.3728
10.5054
10.7468
11.0883
11.5199
12.0311
12.612
13.2541
13.9509
14.6983
15.4952
16.3433
17.2466
18.2111
19.2434
20.3448
21.5069
22.7152
23.9468
25.1697
26.3425
27.4157
28.334
29.04
29.4797
29.6101
29.4132
28.9146
28.16
27.2046
26.106
24.9184
23.69
22.46
21.2588
20.1073
19.0189
18.0006
17.0486
16.1564
15.3186
14.5317
13.7947
13.1096
12.481
11.9161
11.424
11.0147
10.6986
10.4856
10.3842
10.4007
10.5337
10.7761
11.1189
11.5522
12.0654
12.6488
13.2936
13.9935
14.7444
15.5452
16.3977
17.306
18.2758
19.3138
20.4204
21.5871
22.7986
24.0313
25.2527
26.4207
27.4853
28.3909
29.08
29.4992
29.6068
29.3877
28.8695
28.0992
27.1322
26.026
24.8347
23.6055
22.3774
21.1797
20.033
18.9499
17.9373
16.9905
16.1031
15.2695
14.4864
13.7528
13.0707
12.4448
11.8822
11.392
10.9843
10.6695
10.4574
10.3564
9.69784
9.84422
10.1107
10.4865
10.9592
11.5153
12.1421
12.8283
13.5648
14.3461
15.1698
16.0372
16.9525
17.9225
18.9552
20.0509
21.203
22.3984
23.6151
24.822
25.978
27.034
27.9352
28.6252
29.0526
29.1786
28.9882
28.5028
27.7645
26.8265
25.745
24.5741
23.3614
22.146
20.9572
19.8149
18.7309
17.7108
16.7516
15.8456
14.9865
14.1709
13.3983
12.6721
11.9987
11.3879
10.8515
10.4027
10.0546
9.81947
9.70743
9.72566
9.87255
10.14
10.5172
10.9916
11.5499
12.1791
12.8679
13.6076
14.3923
15.2198
16.0914
17.0114
17.9866
19.0248
20.1257
21.2823
22.4807
23.6985
24.9038
26.055
27.1024
27.9908
28.6641
29.0715
29.1755
28.9634
28.4588
27.7049
26.7553
25.6662
24.4914
23.278
22.0643
20.879
19.7413
18.6625
17.6479
16.6938
15.7924
14.9375
14.1255
13.3563
12.633
11.9623
11.3538
10.8195
10.3723
10.0255
9.79127
9.67965
9.1723
9.33421
9.62879
10.0432
10.5621
11.1689
11.8474
12.583
13.3642
14.1831
15.0359
15.923
16.8488
17.8202
18.8458
19.9257
21.0553
22.2227
23.4078
24.5805
25.7012
26.7222
27.5905
28.2525
28.6605
28.7802
28.5991
28.1352
27.4262
26.5216
25.4754
24.3396
23.1607
21.9763
20.8143
19.6932
18.6231
17.6078
16.645
15.7262
14.8449
13.9979
13.1857
12.4133
11.6896
11.0271
10.4409
9.94756
9.56346
9.3035
9.17963
9.19976
9.3622
9.65779
10.0737
10.5944
11.2033
11.8841
12.6225
13.4066
14.2288
15.0853
15.9765
16.9067
17.8831
18.9138
19.9987
21.1323
22.3027
23.4887
24.6598
25.7756
26.788
27.6438
28.2897
28.6785
28.7772
28.5755
28.0932
27.369
26.453
25.3992
24.2596
23.0798
21.8969
20.7381
19.6214
18.5563
17.5461
16.5881
15.6737
14.7964
13.9529
13.1439
12.3744
11.6533
10.9932
10.4091
9.91742
9.53468
9.27564
9.15222
8.74394
8.92283
9.24826
9.70516
10.275
10.9377
11.6733
12.4639
13.2949
14.156
15.0415
15.9507
16.8874
17.8588
18.8724
19.9298
21.0278
22.1566
23.2974
24.4221
25.4933
26.4657
27.2896
27.9149
28.2986
28.4106
28.2409
27.8042
27.1337
26.2747
25.2774
24.191
23.0594
21.9182
20.7934
19.7019
18.652
17.6455
16.6802
15.7477
14.8417
13.9594
13.1028
12.279
11.4994
10.7797
10.1386
9.59627
9.17259
8.8854
8.74859
8.77079
8.95024
9.27672
9.73509
10.3068
10.9716
11.7096
12.5029
13.3368
14.201
15.0899
16.0029
16.9438
17.9198
18.9382
20
21.1018
22.2331
23.3746
24.4976
25.5639
26.528
27.3399
27.9498
28.3154
28.4078
28.2188
27.7647
27.0797
26.2096
25.205
24.1146
22.982
21.842
20.7202
19.6327
18.5873
17.5855
16.6248
15.6963
14.794
13.915
13.0615
12.2405
11.4635
10.7462
10.1072
9.56661
9.14435
8.85812
8.72179
8.37392
8.57089
8.92921
9.43142
10.0557
10.7783
11.5754
12.4256
13.311
14.2187
15.1407
16.0751
17.0245
17.9957
18.9952
20.026
21.087
22.17
23.2577
24.3245
25.3359
26.2502
27.0218
27.6048
27.9611
28.0648
27.9074
27.5015
26.8758
26.0705
25.132
24.1052
23.0307
21.9411
20.8601
19.8034
18.7772
17.7816
16.8134
15.865
14.9308
14.0092
13.1039
12.224
11.384
10.6029
9.90299
9.30829
8.84239
8.52617
8.37562
8.4
8.59755
8.95696
9.4607
10.0869
10.8116
11.6112
12.464
13.3522
14.2628
15.188
16.1258
17.079
18.0544
19.0581
20.0929
21.1572
22.2424
23.3305
24.3954
25.402
26.3083
27.0685
27.637
27.9766
28.0622
27.8871
27.4649
26.8255
26.0098
25.0641
24.0334
22.9576
21.8689
20.7906
19.7374
18.7152
17.7237
16.7596
15.815
14.8842
13.9657
13.0633
12.1861
11.3487
10.5699
9.87216
9.27929
8.81485
8.49964
8.34958
8.03436
8.25004
8.64239
9.19144
9.87209
10.6567
11.5178
12.4303
13.3732
14.3309
15.293
16.2555
17.2199
18.1917
19.1767
20.1795
21.2008
22.2348
23.2638
24.2659
25.2105
26.0602
26.7743
27.3125
27.641
27.7365
27.5914
27.217
26.639
25.893
25.0198
24.0596
23.0487
22.016
20.9819
19.9623
18.9612
17.9768
17.0042
16.0375
15.072
14.1076
13.1501
12.2111
11.3081
10.4631
9.70233
9.05351
8.54394
8.19769
8.0329
8.05956
8.27584
8.66931
9.21994
9.90252
10.6893
11.5529
12.4679
13.4135
14.374
15.339
16.3046
17.2723
18.2478
19.2364
20.2426
21.2669
22.3025
23.3315
24.3316
25.2715
26.1136
26.8171
27.342
27.6551
27.7342
27.5728
27.1835
26.5929
25.8372
24.9571
23.993
22.9807
21.9484
20.9164
19.9
18.9023
17.9215
16.9524
15.989
15.0266
14.065
13.1102
12.174
11.2734
10.4308
9.67221
9.02527
8.51722
8.17201
8.00775
7.70563
7.94019
8.36667
8.96252
9.69927
10.5457
11.4708
12.4459
13.4472
14.4569
15.4614
16.4544
17.436
18.41
19.3816
20.3565
21.3364
22.3169
23.2847
24.2203
25.0965
25.8806
26.5368
27.0302
27.331
27.4185
27.2854
26.9424
26.4121
25.7259
24.9192
24.0273
23.0819
22.1087
21.1257
20.1445
19.168
18.1936
17.2149
16.2275
15.2284
14.2189
13.2075
12.2089
11.2426
10.3339
9.51248
8.80971
8.25649
7.88006
7.70089
7.72985
7.96503
8.39268
8.99014
9.72888
10.5776
11.505
12.4826
13.4865
14.4989
15.506
16.5017
17.4862
18.4632
19.4378
20.4155
21.3977
22.3794
23.347
24.2804
25.1521
25.9291
26.5757
27.057
27.3438
27.4164
27.2685
26.912
26.3703
25.675
24.8619
23.9662
23.0192
22.0461
21.0648
20.0861
19.1125
18.141
17.1653
16.1807
15.1843
14.1773
13.1686
12.1725
11.2087
10.3024
9.48317
8.78234
8.23068
7.85534
7.67672
7.37397
7.62721
8.08688
8.72768
9.51798
10.4232
11.4091
12.4442
13.5015
14.5604
15.6058
16.6298
17.6297
18.6075
19.568
20.5175
21.4587
22.3885
23.2971
24.1676
24.9769
25.6969
26.2969
26.7469
27.0209
27.1006
26.9792
26.6665
26.1826
25.5544
24.8126
23.9874
23.106
22.1902
21.2554
20.31
19.3556
18.3888
17.4027
16.3937
15.361
14.3084
13.2459
12.19
11.1632
10.194
9.31482
8.56051
7.96524
7.55933
7.36584
7.39713
7.65102
8.11189
8.75435
9.54666
10.4542
11.4425
12.4799
13.5397
14.601
15.6489
16.6752
17.6776
18.6578
19.6206
20.5723
21.5152
22.4459
23.3539
24.2222
25.0272
25.7407
26.3319
26.771
27.0324
27.0987
26.964
26.6391
26.1449
25.5085
24.7607
23.9318
23.0487
22.1328
21.1991
20.2555
19.3035
18.339
17.3553
16.3486
15.3183
14.268
13.208
12.1545
11.1302
10.1634
9.28642
8.53409
7.94042
7.53565
7.34272
7.02881
7.29945
7.78933
8.47042
9.30825
10.2656
11.3055
12.394
13.5023
14.6071
15.6918
16.7461
17.7653
18.7488
19.7014
20.6295
21.5365
22.4207
23.2745
24.0843
24.8309
25.4908
26.0379
26.4469
26.6957
26.7681
26.6576
26.3735
25.9331
25.3596
24.6787
23.9159
23.0941
22.2312
21.3395
20.4254
19.4892
18.527
17.5318
16.5007
15.4353
14.3417
13.2318
12.1242
11.0436
10.0206
9.09038
8.29022
7.65711
7.22424
7.0173
7.05082
7.32213
7.81323
8.49601
9.33588
10.2954
11.3377
12.4287
13.5393
14.6464
15.7332
16.7896
17.8108
18.7961
19.7505
20.6803
21.5885
22.4731
23.3261
24.1336
24.8761
25.5299
26.0691
26.4684
26.706
26.7663
26.644
26.3491
25.8994
25.3185
24.6321
23.8658
23.042
22.1786
21.2876
20.3748
19.4403
18.48
17.4866
16.4575
15.3941
14.3026
13.195
12.0897
11.0116
9.991
9.06301
8.26486
7.63339
7.20169
6.99533
6.66192
6.9472
7.46211
8.17618
9.05268
10.0523
11.1364
12.2693
13.4206
14.5654
15.6852
16.7678
17.806
18.7969
19.7451
20.6568
21.5355
22.3804
23.1861
23.9418
24.6319
25.2372
25.7363
26.108
26.3337
26.3993
26.2989
26.0408
25.6401
25.1162
24.4904
23.7838
23.0148
22.1981
21.3433
20.4547
19.5321
18.5714
17.5659
16.5135
15.418
14.2879
13.1372
11.9861
10.861
9.79427
8.82253
7.98503
7.32088
6.86558
6.64726
6.6827
6.96865
7.48479
8.20057
9.07912
10.081
11.1674
12.3028
13.4563
14.6032
15.725
16.8094
17.8492
18.8415
19.791
20.7038
21.5831
22.4281
23.2327
23.986
24.6723
25.2721
25.764
26.1271
26.3428
26.3978
26.2868
26.0191
25.6102
25.0795
24.4487
23.7386
22.9677
22.1502
21.2955
20.4078
19.4864
18.527
17.5229
16.472
15.3784
14.2502
13.1017
11.9528
10.8302
9.76581
8.79633
7.96086
7.29837
6.84424
6.62652
6.26741
6.56336
7.09608
7.83323
8.73653
9.76548
10.8805
12.0453
13.2284
14.4039
15.5518
16.658
17.7132
18.7121
19.6589
20.5589
21.4155
22.2285
22.9939
23.7033
24.3447
24.9024
25.3594
25.6983
25.9036
25.9632
25.8717
25.6365
25.2707
24.7901
24.2122
23.5539
22.8299
22.0517
21.2266
20.3577
19.4443
18.4826
17.467
16.3958
15.2756
14.1167
12.9349
11.7519
10.5952
9.49788
8.49739
7.63399
6.94802
6.47667
6.25
6.28687
6.58349
7.11744
7.8563
8.76164
9.79286
10.9103
12.0774
13.2627
14.4402
15.59
16.6977
17.7543
18.754
19.7017
20.6024
21.4592
22.2718
23.0359
23.743
24.3807
24.9334
25.3839
25.7151
25.9117
25.9618
25.861
25.6174
25.2442
24.7575
24.175
23.5133
22.7873
22.008
21.1827
20.3142
19.4014
18.4406
17.426
16.3562
15.2375
14.0804
12.9008
11.72
10.5657
9.47072
8.4725
7.61113
6.92683
6.45665
6.23058
5.84113
6.14265
6.68406
7.43185
8.34708
9.38905
10.5183
11.6985
12.8983
14.0912
15.2564
16.3783
17.4456
18.4507
19.3973
20.2893
21.1293
21.9173
22.6503
23.322
23.9229
24.4409
24.8623
25.1734
25.3613
25.4158
25.3318
25.1162
24.7798
24.3357
23.7978
23.1794
22.492
21.7446
20.9425
20.0881
19.1808
18.2175
17.1942
16.1101
14.9738
13.7975
12.5986
11.3993
10.2275
9.1163
8.1031
7.22809
6.53194
6.05262
5.8215
5.85917
6.16134
6.70398
7.45345
8.37071
9.41493
10.5465
11.7291
12.931
14.1258
15.2928
16.416
17.4844
18.4902
19.4373
20.3297
21.1696
21.9568
22.6884
23.3576
23.955
24.4684
24.884
25.1883
25.3685
25.4146
25.3223
25.0992
24.7563
24.3067
23.7645
23.1429
22.4534
21.7046
20.902
20.0476
19.1406
18.1779
17.1553
16.0723
14.9373
13.7629
12.566
11.3689
10.1995
9.09062
8.07967
7.20667
6.51218
6.03402
5.8035
5.38018
5.68113
6.22034
6.96397
7.87339
8.90874
10.0316
11.2069
12.4037
13.5962
14.7633
15.8884
16.9588
17.9649
18.9095
19.7945
20.6213
21.3896
22.097
22.7386
23.3069
23.7926
24.185
24.4732
24.6469
24.6971
24.6193
24.4197
24.1074
23.693
23.1874
22.6011
21.9429
21.2197
20.4357
19.5931
18.6915
17.7294
16.7046
15.6174
14.4782
13.3007
12.1029
10.9071
9.74084
8.63622
7.62955
6.75999
6.0675
5.58987
5.35903
5.39671
5.6983
6.2387
6.98397
7.89538
8.93293
10.0581
11.2356
12.4346
13.629
14.7978
15.9241
16.9954
18.0021
18.9469
19.832
20.6584
21.4258
22.1315
22.7706
23.3356
23.8171
24.2043
24.4864
24.6532
24.696
24.6109
24.4046
24.0865
23.6671
23.1575
22.5681
21.9077
21.183
20.3983
19.5553
18.6538
17.692
16.6677
15.5815
14.4436
13.2679
12.072
10.8785
9.71451
8.61221
7.60775
6.74016
6.04928
5.57279
5.34253
4.8827
5.17606
5.70065
6.42322
7.30651
8.31251
9.40489
10.5505
11.7204
12.8897
14.0378
15.1481
16.2072
17.2041
18.1399
19.0144
19.8275
20.578
21.2637
21.8803
22.4221
22.8816
23.2506
23.5203
23.6822
23.729
23.6562
23.4696
23.1768
22.7865
22.3072
21.747
21.113
20.4105
19.6434
18.8137
17.9221
16.9688
15.9538
14.8788
13.7555
12.5982
11.4247
10.2568
9.12064
8.04646
7.06852
6.22392
5.55087
5.08599
4.86081
4.89763
5.1916
5.71732
6.44146
7.32666
8.33478
9.42939
10.5772
11.7492
12.9203
14.0701
15.1816
16.2415
17.2389
18.1749
19.0492
19.8617
20.6112
21.2952
21.9094
22.448
22.9035
23.2678
23.532
23.6879
23.728
23.6487
23.4562
23.1582
22.7633
22.2802
21.7171
21.0808
20.3768
19.6087
18.7784
17.8868
16.9337
15.9191
14.8451
13.7231
12.5674
11.3959
10.2302
9.09628
8.02435
7.04854
6.20584
5.53433
5.07053
4.84591
4.34769
4.62574
5.12211
5.80512
6.63988
7.59122
8.62583
9.7135
10.8277
11.9458
13.0484
14.1198
15.1466
16.1176
17.0314
17.8857
18.6785
19.4078
20.0707
20.6635
21.1811
21.6176
21.9662
22.2201
22.3722
22.416
22.3474
22.1718
21.8958
21.5263
21.0702
20.5341
19.9237
19.2437
18.4976
17.6881
16.8172
15.8869
14.8994
13.8585
12.7759
11.6657
10.5448
9.43346
8.35551
7.33862
6.41405
5.61588
4.97955
4.5395
4.32594
4.36091
4.63953
5.13695
5.82144
6.65799
7.61134
8.64806
9.73786
10.8541
11.9739
13.0782
14.1506
15.178
16.1498
17.0639
17.918
18.7102
19.4383
20.0995
20.6898
21.2044
21.6373
21.9816
22.2306
22.3772
22.4151
22.3407
22.1598
21.8791
21.5054
21.0459
20.5069
19.8943
19.2127
18.4655
17.6554
16.7844
15.8542
14.8672
13.8272
12.7459
11.6374
10.5184
9.40919
8.33341
7.31866
6.3961
5.59971
4.96482
4.52579
4.31275
3.77492
4.02955
4.48342
5.10741
5.86996
6.73962
7.68692
8.68531
9.71156
10.7457
11.7709
12.7728
13.7392
14.6603
15.5311
16.3475
17.1058
17.8028
18.4351
18.9987
19.4891
19.9011
20.2291
20.4673
20.6097
20.6506
20.5862
20.4215
20.1622
19.8142
19.3832
18.8747
18.2938
17.6448
16.9315
16.1574
15.3257
14.4402
13.5056
12.5273
11.5164
10.4856
9.44995
8.42731
7.43857
6.50796
5.66299
4.9339
4.35246
3.94994
3.75427
3.78635
4.04149
4.49631
5.12163
5.88581
6.75731
7.70657
8.70693
9.73509
10.771
11.7977
12.8008
13.7678
14.6897
15.5609
16.3771
17.1347
17.8306
18.4612
19.0226
19.5102
19.9188
20.2429
20.4766
20.6142
20.6498
20.5803
20.4108
20.1472
19.7954
19.3612
18.8501
18.2671
17.6165
16.9022
16.1275
15.2956
14.4103
13.4763
12.499
11.4894
10.4602
9.42644
8.40578
7.41905
6.49041
5.64728
4.9198
4.33967
3.93807
3.74286
3.16494
3.38799
3.78502
4.33044
4.99686
5.75735
6.58689
7.46319
8.36687
9.28143
10.1929
11.0895
11.9611
12.8001
13.5987
14.3507
15.0514
15.6964
16.2818
16.8032
17.2563
17.6363
17.9384
18.1574
18.2882
18.3258
18.2665
18.115
17.8763
17.5556
17.1577
16.6877
16.15
15.5492
14.8894
14.1746
13.4093
12.5988
11.7496
10.8689
9.96571
9.05053
8.13576
7.23607
6.36882
5.55425
4.81551
4.17834
3.67004
3.31782
3.14633
3.17447
3.39796
3.79582
4.34239
5.01023
5.77233
6.60361
7.48167
8.38709
9.30328
10.2162
11.114
11.9866
12.8263
13.6252
14.3771
15.0772
15.7211
16.3049
16.8244
17.2749
17.652
17.9505
18.1656
18.2922
18.3251
18.2612
18.1055
17.863
17.5389
17.1382
16.6658
16.1262
15.524
14.8632
14.1479
13.3825
12.5723
11.7239
10.8442
9.94234
9.02869
8.1156
7.21769
6.35223
5.5394
4.80227
4.1665
3.65933
3.3079
3.13681
2.51897
2.70265
3.0292
3.47743
4.0249
4.6498
5.33208
6.05408
6.80064
7.55904
8.31875
9.07114
9.80923
10.5278
11.2173
11.8705
12.4817
13.0462
13.5596
14.0175
14.4156
14.7496
15.0149
15.2073
15.3222
15.3551
15.3029
15.1698
14.96
14.6781
14.3285
13.9154
13.4434
12.9167
12.3396
11.7167
11.053
10.3546
9.62926
8.88533
8.12878
7.36703
6.60923
5.86653
5.15235
4.48259
3.87564
3.35217
2.93438
2.64459
2.5033
2.52651
2.71055
3.03778
3.48694
4.03558
4.6618
5.34552
6.069
6.81705
7.57688
8.33792
9.09152
9.83066
10.55
11.2397
11.8928
12.5036
13.0672
13.5793
14.0355
14.4315
14.7629
15.0253
15.2143
15.3255
15.3545
15.2984
15.1617
14.9487
14.664
14.3119
13.8968
13.4231
12.8952
12.3173
11.6941
11.0304
10.3324
9.60791
8.86502
8.10968
7.34928
6.59293
5.85173
5.13904
4.4707
3.86507
3.34275
2.92587
2.63673
2.49577
1.83881
1.97617
2.22008
2.55455
2.96278
3.42858
3.93726
4.47598
5.03394
5.60231
6.17409
6.74403
7.30858
7.86565
8.40489
8.91912
9.40284
9.85145
10.2608
10.6268
10.9455
11.2133
11.4262
11.5806
11.6729
11.6994
11.6574
11.5504
11.382
11.1558
10.8755
10.5448
10.1677
9.74808
9.28994
8.79759
8.2759
7.73078
7.17021
6.60276
6.03072
5.4581
4.89063
4.33583
3.80308
3.30379
2.85134
2.46095
2.14912
1.9326
1.82691
1.84429
1.98191
2.22632
2.56148
2.97056
3.43735
3.9471
4.48694
5.04604
5.61553
6.1884
6.75939
7.32496
7.88269
8.42227
8.93652
9.41993
9.8679
10.2762
10.6409
10.958
11.2237
11.4344
11.5862
11.6756
11.6989
11.6539
11.5441
11.3731
11.1447
10.8624
10.5302
10.1519
9.73131
9.2726
8.78003
8.25845
7.71379
7.15412
6.58761
6.01657
5.44501
4.87865
4.32497
3.79334
3.29511
2.84363
2.45409
2.14294
1.92689
1.82144
1.12667
1.21201
1.36337
1.57065
1.82332
2.11129
2.42545
2.75799
3.10242
3.45362
3.80783
4.16278
4.51799
4.87451
5.22293
5.55742
5.87377
6.16848
6.43839
6.68051
6.89194
7.06986
7.21156
7.31443
7.37595
7.39357
7.36557
7.29423
7.18204
7.03154
6.84533
6.62617
6.37687
6.10037
5.79971
5.47814
5.13932
4.78788
4.43045
4.07452
3.71884
3.36439
3.01387
2.67142
2.34254
2.0341
1.75431
1.5126
1.31928
1.18488
1.1192
1.13001
1.2155
1.36716
1.57486
1.82806
2.11663
2.43145
2.76467
3.10981
3.46172
3.81665
4.17235
4.52839
4.88543
5.23413
5.56869
5.88488
6.1792
6.4485
6.68977
6.90011
7.07673
7.21691
7.31807
7.37769
7.39325
7.36324
7.29006
7.17621
7.02424
6.83678
6.61659
6.36651
6.08945
5.78846
5.46679
5.12812
4.77708
4.42043
4.06519
3.71018
3.35641
3.00657
2.66481
2.33661
2.02881
1.74961
1.50842
1.31551
1.1814
1.11587
0.384832
0.414049
0.46579
0.536501
0.622479
0.720184
0.826447
0.938568
1.05435
1.17212
1.29078
1.40998
1.53065
1.65558
1.77907
1.89846
2.01202
2.11836
2.21618
2.30427
2.38145
2.44656
2.49852
2.5363
2.5589
2.56538
2.55509
2.52887
2.48769
2.43252
2.36441
2.28447
2.19385
2.09374
1.98539
1.8701
1.74937
1.62513
1.50067
1.38026
1.26095
1.1422
1.0246
0.909395
0.798419
0.694007
0.599004
0.516702
0.450716
0.404752
0.38226
0.385962
0.415231
0.467072
0.537924
0.624073
0.721976
0.828453
0.940796
1.05681
1.17482
1.29372
1.41321
1.53429
1.65945
1.78306
1.90249
2.01602
2.12223
2.21985
2.30764
2.38443
2.44908
2.50048
2.53763
2.55954
2.56526
2.55423
2.52734
2.48555
2.42985
2.3613
2.28099
2.19009
2.0898
1.98134
1.86604
1.74539
1.62134
1.4973
1.37716
1.25808
1.13955
1.02217
0.907191
0.796434
0.692234
0.597425
0.515292
0.449442
0.403575
0.381132
)
;

boundaryField
{
    top
    {
        type            fixedValue;
        value           uniform 0;
    }
    bottom
    {
        type            fixedValue;
        value           uniform 36.5;
    }
    frontAndBack
    {
        type            empty;
    }
    left_cyc
    {
        type            cyclic;
    }
    right_cyc
    {
        type            cyclic;
    }
}


// ************************************************************************* //
