/*--------------------------------*- C++ -*----------------------------------*\
| =========                 |                                                 |
| \\      /  F ield         | OpenFOAM: The Open Source CFD Toolbox           |
|  \\    /   O peration     | Version:  2.3.0                                 |
|   \\  /    A nd           | Web:      www.OpenFOAM.org                      |
|    \\/     M anipulation  |                                                 |
\*---------------------------------------------------------------------------*/
FoamFile
{
    version     2.0;
    format      ascii;
    class       volScalarField;
    location    "21000";
    object      T;
}
// * * * * * * * * * * * * * * * * * * * * * * * * * * * * * * * * * * * * * //

dimensions      [0 0 0 1 0 0 0];

internalField   nonuniform List<scalar> 
765
(
40.0069
40.0649
40.0156
39.9126
39.8353
39.8877
40.1524
40.4368
40.8214
41.3342
41.6171
41.1423
40.6583
40.3074
40.0218
39.8361
39.8423
39.9407
40.0337
40.0517
39.9478
39.7583
39.5119
39.2088
38.8379
38.3802
37.8091
37.0929
36.2001
35.1067
33.7926
32.1737
30.6956
29.5962
28.8291
28.4973
28.589
29.0791
29.9837
31.2106
32.8475
34.3327
35.559
36.5722
37.3926
38.048
38.5712
38.9924
39.3353
39.6159
39.8419
33.0396
33.2244
33.2965
33.3032
33.3328
33.5106
33.9282
34.7528
36.1117
37.9052
38.8615
37.266
35.577
34.418
33.7659
33.4011
33.289
33.2803
33.2589
33.1508
32.9223
32.5252
32.006
31.3894
30.6793
29.8664
28.9271
27.8147
26.449
24.7125
22.6254
20.6689
19.0678
17.7451
16.7256
16.1817
16.333
17.0836
18.2368
19.6577
21.3752
23.4848
25.4462
27.0205
28.2748
29.3123
30.1988
30.9705
31.6448
32.2264
32.7057
28.1408
28.4613
28.7091
28.9129
29.1255
29.4381
30.0054
31.1932
33.1852
35.7989
37.1674
34.8687
32.3831
30.6701
29.7169
29.282
29.0197
28.8169
28.6004
28.3271
27.9753
27.5417
26.9855
26.3208
25.5653
24.7204
23.7896
22.7639
21.6202
20.349
18.8866
17.2556
15.5711
13.9878
12.7158
12.0219
12.2119
13.1677
14.595
16.2437
17.9264
19.5033
20.8801
22.0964
23.187
24.1715
25.0684
25.8779
26.5996
27.2281
27.7385
26.0245
26.3995
26.7422
27.0545
27.3469
27.6728
28.2543
29.4764
31.644
34.5822
36.1127
33.5358
30.7557
28.9293
27.9664
27.5289
27.2277
26.93
26.6062
26.2509
25.8631
25.443
24.9913
24.5058
23.9906
23.4526
22.8703
22.1988
21.3693
20.2887
18.858
17.0722
15.0771
13.1039
11.4918
10.6191
10.8518
12.0606
13.863
15.8874
17.8275
19.4815
20.7629
21.7301
22.4854
23.1133
23.6724
24.201
24.7057
25.1768
25.6168
26.0037
26.34
26.6701
26.9697
27.2177
27.4522
27.8978
28.9386
31.0109
33.9521
35.4692
32.9083
30.1448
28.4603
27.685
27.352
27.1285
26.8619
26.5481
26.213
25.8783
25.5561
25.2504
24.9587
24.671
24.3637
23.9909
23.4789
22.7243
21.6009
19.9895
17.8797
15.4641
13.04
11.0494
9.98368
10.2608
11.7447
13.9664
16.4378
18.7648
20.6911
22.0984
23.06
23.7042
24.1498
24.4888
24.7834
25.07
25.3654
25.6766
26.9206
27.1971
27.465
27.6834
27.8213
27.9352
28.1884
29.0274
30.9324
33.7001
35.0907
32.7311
30.1264
28.6219
28.0516
27.8879
27.7806
27.6136
27.3734
27.0987
26.8273
26.5826
26.3732
26.1939
26.0253
25.8291
25.5415
25.0683
24.2865
23.0562
21.249
18.8249
15.9937
13.1278
10.7663
9.51088
9.83182
11.5849
14.2166
17.1278
19.8291
22.021
23.5913
24.6305
25.2762
25.6638
25.9061
26.0849
26.2535
26.4421
26.6644
28.0586
28.2734
28.4565
28.568
28.5924
28.5988
28.7746
29.5316
31.2178
33.6085
34.8155
32.7858
30.5194
29.1703
28.6648
28.6021
28.5933
28.5404
28.4006
28.2027
27.9868
27.7851
27.6144
27.4747
27.3467
27.1862
26.9173
26.4303
25.5897
24.2509
22.2793
19.6054
16.4228
13.1682
10.4716
9.0368
9.4007
11.4026
14.4004
17.6973
20.71
23.1115
24.8237
25.9531
26.6406
27.0291
27.2453
27.3861
27.5146
27.6648
27.8483
29.1
29.2447
29.3416
29.3808
29.3931
29.4063
29.6133
30.2814
31.6508
33.5605
34.5772
32.9129
31.0996
29.9798
29.5029
29.3911
29.3886
29.3751
29.3174
29.2026
29.0477
28.8781
28.7145
28.5646
28.4168
28.23
27.9245
27.383
26.4671
25.0357
22.9474
20.1103
16.6648
13.1009
10.1218
8.51726
8.92572
11.1503
14.4481
18.0497
21.2906
23.8292
25.6414
26.8548
27.6102
28.0467
28.296
28.4616
28.6077
28.7633
28.9317
29.9125
30.0245
30.1062
30.1625
30.201
30.2796
30.5166
31.0776
32.1183
33.5443
34.3672
33.0732
31.7162
30.8427
30.4114
30.2449
30.191
30.1488
30.0853
29.9946
29.8732
29.7258
29.5597
29.3767
29.1657
28.891
28.4821
27.8343
26.8254
25.3281
23.1873
20.2492
16.6153
12.8509
9.67603
7.92594
8.37741
10.7751
14.2711
18.078
21.4753
24.084
25.9483
27.2387
28.0953
28.6399
28.989
29.2348
29.4339
29.6114
29.7725
30.4689
30.6182
30.7426
30.8484
30.9534
31.0957
31.343
31.7942
32.5441
33.544
34.1758
33.2309
32.2729
31.6238
31.2514
31.0487
30.9249
30.8226
30.7123
30.5797
30.4217
30.2376
30.0246
29.7743
29.4689
29.0708
28.5164
27.719
26.5846
25.01
22.8294
19.8359
16.1243
12.3117
9.06484
7.22731
7.70929
10.1941
13.7433
17.5902
21.0619
23.7243
25.6418
27.0311
28.0274
28.7239
29.2125
29.5717
29.8547
30.0909
30.2936
30.5057
30.761
30.9947
31.2121
31.4232
31.6477
31.9221
32.3001
32.8352
33.5048
33.96
33.3159
32.6635
32.1783
31.8389
31.5851
31.3675
31.1553
30.9328
30.6918
30.428
30.1375
29.8161
29.4418
28.9959
28.4395
27.7153
26.7544
25.4926
23.8521
21.6474
18.6678
15.0722
11.405
8.24054
6.39766
6.88914
9.34612
12.7697
16.4472
19.8548
22.5393
24.4915
25.9708
27.1124
27.9779
28.6337
29.1447
29.5615
29.9151
30.2251
29.4234
29.8632
30.2782
30.6741
31.056
31.4305
31.8095
32.2129
32.6608
33.137
33.4534
33.0237
32.54
32.1028
31.707
31.3291
30.9515
30.5642
30.1614
29.7378
29.2872
28.804
28.2856
27.7363
27.1171
26.395
25.5248
24.4513
23.1243
21.4774
19.3286
16.5449
13.3284
10.0355
7.14129
5.4073
5.87672
8.15777
11.2614
14.5597
17.649
20.1882
22.1049
23.6123
24.8383
25.83
26.6406
27.3217
27.914
28.448
28.9528
26.1012
26.7537
27.3772
27.9807
28.5703
29.1481
29.7119
30.256
30.7681
31.2121
31.4525
31.1181
30.6405
30.1116
29.5568
28.9851
28.401
27.8053
27.1943
26.5606
25.8949
25.1909
24.454
23.7024
22.9517
22.1314
21.2262
20.1986
18.9868
17.5068
15.6552
13.374
10.7691
8.08454
5.68905
4.21834
4.62195
6.53563
9.08844
11.7686
14.2664
16.3718
18.0613
19.4256
20.5578
21.5326
22.401
23.1922
23.9386
24.6866
25.4119
19.2084
19.9173
20.6038
21.2738
21.9305
22.5727
23.1936
23.779
24.3027
24.7136
24.8908
24.627
24.1708
23.6204
23.0184
22.3868
21.7372
21.0741
20.3974
19.7025
18.9831
18.2358
17.4696
16.7015
15.9422
15.227
14.5041
13.7268
12.8518
11.8112
10.5316
8.98941
7.24742
5.44715
3.81813
2.79488
3.07885
4.39689
6.12129
7.91289
9.58454
11.0199
12.1974
13.1651
13.9961
14.7506
15.4612
16.1869
16.946
17.7125
18.4721
7.71594
8.10813
8.49647
8.88236
9.26516
9.64076
10.0006
10.3307
10.6109
10.8121
10.8866
10.7697
10.5406
10.2412
9.89832
9.53075
9.15079
8.76551
8.37776
7.9873
7.59248
7.19383
6.79851
6.41414
6.04014
5.67894
5.34046
5.02055
4.69091
4.32331
3.89051
3.37543
2.77999
2.13465
1.51908
1.11438
1.22842
1.74094
2.3794
3.0087
3.57265
4.05276
4.45656
4.80531
5.12637
5.44715
5.79575
6.16012
6.53594
6.92288
7.31923
)
;

boundaryField
{
    top
    {
        type            fixedValue;
        value           uniform 0;
    }
    bottom
    {
        type            fixedValue;
        value           uniform 43.8;
    }
    frontAndBack
    {
        type            empty;
    }
    left_cyc
    {
        type            cyclic;
    }
    right_cyc
    {
        type            cyclic;
    }
}


// ************************************************************************* //
