/*--------------------------------*- C++ -*----------------------------------*\
| =========                 |                                                 |
| \\      /  F ield         | OpenFOAM: The Open Source CFD Toolbox           |
|  \\    /   O peration     | Version:  2.3.0                                 |
|   \\  /    A nd           | Web:      www.OpenFOAM.org                      |
|    \\/     M anipulation  |                                                 |
\*---------------------------------------------------------------------------*/
FoamFile
{
    version     2.0;
    format      ascii;
    class       volScalarField;
    location    "21000";
    object      T;
}
// * * * * * * * * * * * * * * * * * * * * * * * * * * * * * * * * * * * * * //

dimensions      [0 0 0 1 0 0 0];

internalField   nonuniform List<scalar> 
3060
(
33.59
33.6154
33.6631
33.731
33.8168
33.9171
34.0282
34.1458
34.2655
34.3831
34.4952
34.6075
34.722
34.8381
34.9558
35.0758
35.1981
35.322
35.4452
35.565
35.6779
35.7801
35.8673
35.935
35.9784
35.9935
35.9782
35.9346
35.8668
35.7794
35.6771
35.5641
35.4441
35.3207
35.1967
35.0741
34.9538
34.8358
34.7193
34.6047
34.4922
34.3801
34.262
34.1428
34.026
33.9161
33.8172
33.7333
33.6673
33.6219
33.5989
33.6002
33.6256
33.6732
33.7412
33.8268
33.9269
34.0378
34.155
34.2742
34.3915
34.5036
34.6162
34.7311
34.8476
34.9658
35.0863
35.2091
35.3332
35.4564
35.5758
35.688
35.789
35.8746
35.9402
35.9811
35.9934
35.9752
35.9291
35.8593
35.7703
35.6669
35.5531
35.4329
35.3095
35.1857
35.0635
34.9437
34.8262
34.7102
34.5959
34.4837
34.3715
34.2531
34.1334
34.0162
33.906
33.807
33.723
33.6571
33.6116
33.5887
28.2143
28.277
28.3948
28.5625
28.774
29.0218
29.2974
29.5922
29.8989
30.2146
30.5418
30.8764
31.2196
31.5668
31.9171
32.2748
32.6396
33.0084
33.3751
33.7308
34.0659
34.3697
34.6301
34.8335
34.9651
35.0113
34.9645
34.8324
34.6287
34.3679
34.0636
33.7281
33.3719
33.0047
32.6353
32.2698
31.9114
31.5599
31.2113
30.8675
30.5326
30.2058
29.8918
29.5867
29.2941
29.0214
28.7772
28.5701
28.4072
28.2949
28.2381
28.2413
28.3039
28.4217
28.5893
28.8006
29.048
29.3231
29.6172
29.9234
30.2388
30.5663
30.9019
31.2466
31.595
31.947
32.3061
32.6722
33.0418
33.4084
33.763
34.0959
34.3964
34.6521
34.8493
34.9733
35.0108
34.9554
34.8158
34.6061
34.3407
34.0333
33.6957
33.3385
32.9712
32.6025
32.2383
31.8813
31.5314
31.1841
30.8417
30.5077
30.1811
29.8668
29.5612
29.268
28.9948
28.7503
28.543
28.3801
28.2678
28.2111
23.5264
23.6128
23.7754
24.0073
24.3005
24.6459
25.0335
25.4538
25.8991
26.3654
26.8526
27.3612
27.8941
28.4553
29.0283
29.6163
30.2166
30.8221
31.422
32.0021
32.548
33.0436
33.4703
33.8057
34.0248
34.1027
34.024
33.8041
33.468
33.0407
32.5444
31.9978
31.4169
30.8162
30.2098
29.6085
29.0194
28.4449
27.8835
27.3506
26.8422
26.356
25.8913
25.4483
25.0311
24.6476
24.3072
24.0198
23.7945
23.6393
23.5609
23.5652
23.6517
23.8142
24.046
24.3391
24.6843
25.0716
25.4916
25.9369
26.4037
26.892
27.4026
27.9379
28.5019
29.0777
29.6682
30.2703
30.8768
31.4763
32.0545
32.5969
33.0873
33.5065
33.8321
34.0387
34.1019
34.0086
33.7766
33.4308
32.9963
32.4948
31.9449
31.3622
30.7613
30.1558
29.5565
28.9697
28.3975
27.8392
27.3089
26.8024
26.3172
25.853
25.4099
24.9925
24.6086
24.268
23.9806
23.7554
23.6003
23.522
19.6428
19.7428
19.931
20.2
20.5414
20.946
21.4041
21.907
22.4476
23.0221
23.6295
24.2711
24.949
25.6654
26.417
27.1955
27.9969
28.8117
29.6238
30.4124
31.1553
31.8294
32.4106
32.8698
33.1718
33.2801
33.1708
32.8678
32.4078
31.8257
31.1506
30.4069
29.6173
28.8043
27.9885
27.1862
26.4068
25.6543
24.938
24.2604
23.6195
23.0133
22.4407
21.9027
21.4035
20.9499
20.5509
20.2161
19.9545
19.7747
19.6839
19.6888
19.7887
19.977
20.2461
20.5877
20.9924
21.4508
21.9541
22.4955
23.0714
23.681
24.3254
25.0071
25.7281
26.4831
27.2651
28.0694
28.8859
29.6978
30.4839
31.222
31.889
32.4603
32.9061
33.1912
33.279
33.1495
32.8298
32.3569
31.7651
31.0831
30.3348
29.543
28.7299
27.916
27.1166
26.3409
25.5922
24.8799
24.2057
23.5676
22.9634
22.3922
21.855
21.3561
20.9028
20.5041
20.1695
19.9082
19.7285
19.6379
16.5689
16.6761
16.8783
17.1678
17.5362
17.9748
18.4747
19.0281
19.6292
20.2744
20.963
21.6961
22.4761
23.3053
24.1843
25.1059
26.0632
27.0438
28.0293
28.9948
29.9106
30.7439
31.4627
32.0314
32.4071
32.5424
32.4059
32.0292
31.4594
30.7397
29.9054
28.9886
28.0222
27.0358
26.0544
25.0965
24.1744
23.2951
22.4661
21.6865
20.9542
20.2669
19.6237
19.0254
18.4755
17.9803
17.5474
17.1857
16.9039
16.7104
16.6128
16.618
16.7253
16.9277
17.2175
17.5865
18.0257
18.5265
19.0812
19.6839
20.3315
21.0231
21.7601
22.5447
23.379
24.2631
25.1895
26.1508
27.134
28.1199
29.0831
29.9933
30.8178
31.5242
32.0767
32.4313
32.541
32.3793
31.9819
31.3963
30.6646
29.8217
28.8997
27.9312
26.9455
25.9668
25.013
24.0957
23.2215
22.3975
21.6223
20.8937
20.2094
19.5683
18.9717
18.423
17.9287
17.4966
17.1354
16.8541
16.661
16.5637
14.2288
14.3406
14.5517
14.8542
15.2395
15.6989
16.2241
16.808
17.4453
18.1331
18.8711
19.6607
20.5051
21.4076
22.3711
23.3916
24.4602
25.5626
26.6785
27.7802
28.8331
29.7977
30.6315
31.2908
31.7263
31.8833
31.7251
31.2886
30.6282
29.7934
28.8279
27.774
26.6716
25.555
24.452
23.383
22.3623
21.3989
20.4966
19.6526
18.8637
18.1269
17.4408
16.806
16.2256
15.7047
15.2508
14.8721
14.5773
14.375
14.273
14.2783
14.3902
14.6017
14.9049
15.2911
15.7516
16.2783
16.8641
17.5038
18.1947
18.9365
19.7308
20.5806
21.4891
22.4591
23.4855
24.5591
25.6651
26.7822
27.8819
28.9291
29.8837
30.7031
31.3435
31.7544
31.8816
31.6941
31.2336
30.5547
29.706
28.7309
27.6717
26.5676
25.4524
24.353
23.2892
22.2745
21.3173
20.4209
19.5823
18.7979
18.0648
17.3818
16.7494
16.1708
15.6515
15.1987
14.821
14.5269
14.3251
14.2234
12.5015
12.618
12.8379
13.1528
13.5534
14.0302
14.5746
15.1794
15.8395
16.5523
17.3177
18.1381
19.0177
19.9615
20.9749
22.0563
23.1961
24.3796
25.5849
26.7822
27.9338
28.9949
29.9157
30.6434
31.1222
31.2942
31.1211
30.6412
29.9126
28.9908
27.9289
26.7766
25.5787
24.3729
23.189
22.049
20.9676
19.9545
19.0108
18.1315
17.3114
16.5467
15.8352
15.1772
14.5752
14.0348
13.5631
13.169
12.8617
12.6507
12.5442
12.5497
12.6664
12.8869
13.2026
13.6043
14.0827
14.629
15.2363
15.8994
16.6158
17.3858
18.2115
19.0972
20.0479
21.0686
22.1569
23.3028
24.4907
25.6978
26.8936
28.0395
29.0901
29.9951
30.7015
31.1532
31.2924
31.087
30.5805
29.8311
28.8941
27.8221
26.6645
25.4654
24.2617
23.0824
21.9484
20.874
19.8682
18.9312
18.0579
17.243
16.4827
15.7749
15.1198
14.5203
13.9817
13.5116
13.1187
12.8124
12.602
12.4959
11.2523
11.3752
11.6071
11.9383
12.3582
12.8558
13.4212
14.046
14.7246
15.4542
16.235
17.07
17.9649
18.9268
19.9634
21.0749
22.2525
23.4814
24.7394
25.9952
27.2087
28.3315
29.3083
30.0798
30.585
30.7651
30.584
30.0779
29.3055
28.3279
27.2045
25.9904
24.7342
23.476
22.2468
21.0692
19.9577
18.9213
17.9594
17.0642
16.229
15.4483
14.7193
14.042
13.4195
12.8576
12.3648
11.9512
11.6278
11.4051
11.2926
11.2984
11.4215
11.654
11.9863
12.4075
12.9069
13.4745
14.1021
14.7841
15.5178
16.3035
17.1444
18.0459
19.0152
20.06
21.1793
22.3637
23.5977
24.8581
26.1128
27.3207
28.4326
29.3928
30.1414
30.6175
30.7632
30.5481
30.0135
29.2189
28.2251
27.0913
25.8722
24.6152
23.3597
22.1357
20.9649
19.8612
18.8328
17.8783
16.9897
16.1601
15.3842
14.6593
13.9854
13.3655
12.8059
12.3149
11.9028
11.5804
11.3585
11.2465
10.3547
10.4865
10.7351
11.0891
11.5357
12.0616
12.6546
13.3045
14.004
14.7497
15.5417
16.3836
17.2823
18.2468
19.2877
20.406
21.5944
22.8393
24.1185
25.4001
26.6425
27.7945
28.7977
29.5886
30.1037
30.2857
30.1029
29.587
28.7953
27.7915
26.639
25.3964
24.1145
22.8352
21.5902
20.4017
19.2834
18.2424
17.2773
16.3778
15.5349
14.7423
13.9963
13.2973
12.6491
12.0591
11.5378
11.0976
10.7517
10.5129
10.3923
10.3984
10.5305
10.7798
11.1349
11.5829
12.1107
12.7061
13.3589
14.0621
14.8121
15.6092
16.4572
17.3629
18.3353
19.3849
20.5114
21.7073
22.9578
24.2399
25.5207
26.7576
27.8986
28.8845
29.6517
30.1367
30.2837
30.0663
29.521
28.7062
27.6858
26.5228
25.2751
23.9928
22.7167
21.4775
20.2964
19.1864
18.154
17.1966
16.304
15.4671
14.6794
13.9377
13.2422
12.5969
12.0094
11.49
11.0514
10.7066
10.4686
10.3484
9.70193
9.84557
10.1161
10.5003
10.9823
11.546
12.1758
12.859
13.5861
14.3522
15.1567
16.0038
16.9013
17.86
18.8925
20.0007
21.1795
22.4167
23.6911
24.9708
26.2134
27.3665
28.3696
29.1582
29.6687
29.8475
29.668
29.1569
28.3677
27.3641
26.2108
24.9681
23.6883
22.4139
21.1766
19.9976
18.889
17.856
16.8962
15.9971
15.1482
14.3419
13.5747
12.8472
12.1651
11.5378
10.9788
10.5033
10.1279
9.86802
9.73665
9.74334
9.88725
10.1585
10.5437
11.0273
11.5929
12.2252
12.9113
13.6421
14.4126
15.2224
16.0756
16.9802
17.947
18.9884
20.1051
21.2916
22.5348
23.8124
25.0916
26.3288
27.4707
28.4564
29.2209
29.7013
29.8456
29.632
29.0912
28.2786
27.2582
26.0943
24.8467
23.5667
22.2958
21.0646
19.8934
18.7934
17.7691
16.8172
15.925
15.0822
14.281
13.518
12.7941
12.1149
11.4902
10.9331
10.4593
10.0851
9.82602
9.69514
9.21081
9.3689
9.6665
10.0879
10.6141
11.2251
11.9018
12.6278
13.3911
14.1845
15.0066
15.8613
16.7572
17.7064
18.7228
19.8095
20.9637
22.1752
23.424
24.6791
25.8982
27.0286
28.01
28.7784
29.2729
29.4448
29.2724
28.7774
28.0085
27.0269
25.8964
24.6773
23.4222
22.1734
20.9617
19.807
18.7196
17.702
16.751
15.8526
14.9951
14.1703
13.3746
12.6103
11.8846
11.2102
10.6038
10.0847
9.67293
9.38714
9.24269
9.25008
9.40844
9.70671
10.1292
10.6569
11.2698
11.949
12.678
13.4448
14.2426
15.0698
15.9306
16.8336
17.7908
18.816
19.9112
21.0732
22.2908
23.5429
24.7976
26.0114
27.1307
28.0946
28.8392
29.3042
29.443
29.2376
28.7136
27.9216
26.9232
25.7821
24.5582
23.303
22.0578
20.8523
19.7055
18.6266
17.6176
16.6745
15.783
14.9314
14.1116
13.3201
12.5592
11.8365
11.1645
10.5601
10.0427
9.63214
9.34723
9.20329
8.81998
8.99479
9.32378
9.78856
10.3666
11.0338
11.7666
12.5449
13.3532
14.182
15.0282
15.8952
16.792
17.7315
18.7278
19.7857
20.905
22.0776
23.2851
24.4979
25.6745
26.7636
27.7061
28.4408
28.9109
29.0734
28.9106
28.44
27.705
26.7624
25.6733
24.4967
23.2841
22.0765
20.9036
19.7834
18.7242
17.7259
16.7838
15.8836
15.0127
14.1626
13.3306
12.5204
11.7419
11.0112
10.3489
9.77856
9.32442
9.00867
8.84912
8.85734
9.0324
9.36206
9.82792
10.4075
11.0765
11.8118
12.5929
13.4047
14.2376
15.0888
15.9617
16.8653
17.8127
18.8173
19.8835
21.0105
22.189
23.3998
24.6121
25.7835
26.8616
27.787
28.4986
28.9406
29.0717
28.8776
28.3794
27.6218
26.6627
25.5633
24.3819
23.1692
21.9651
20.7983
19.6857
18.6347
17.6447
16.7102
15.8167
14.9515
14.1062
13.2782
12.4713
11.6957
10.9673
10.307
9.73834
9.28547
8.97063
8.81162
8.48629
8.67956
9.0433
9.55636
10.1924
10.9227
11.7195
12.5581
13.4195
14.2912
15.1686
16.0537
16.9553
17.8869
18.8618
19.8873
20.9655
22.0901
23.2449
24.4019
25.522
26.5557
27.4467
28.138
28.5782
28.7297
28.578
28.1374
27.4459
26.5548
25.5212
24.4013
23.2442
22.0893
20.9641
19.8847
18.8572
17.8795
16.9443
16.0382
15.1481
14.2659
13.3899
12.5257
11.6864
10.8916
10.1665
9.53904
9.03787
8.68896
8.51279
8.52193
8.71544
9.07984
9.59398
10.2315
10.9637
11.7627
12.6041
13.4688
14.3445
15.2264
16.1171
17.0252
17.9642
18.947
19.9804
21.0657
22.196
23.3538
24.5102
25.6251
26.6481
27.5227
28.1921
28.6058
28.7281
28.5473
28.0807
27.3677
26.4607
25.417
24.2923
23.1351
21.9834
20.8639
19.7917
18.772
17.8021
16.8741
15.9742
15.0894
14.2117
13.3394
12.4785
11.6418
10.8494
10.1262
9.50042
9.00055
8.65259
8.47698
8.18031
8.39319
8.79394
9.35852
10.0566
10.855
11.7212
12.6263
13.5473
14.4687
15.3835
16.2926
17.2037
18.1302
19.0848
20.0771
21.1111
22.1823
23.2765
24.3684
25.4217
26.3906
27.2209
27.8624
28.2696
28.4095
28.2692
27.8618
27.2202
26.39
25.4213
24.3679
23.2759
22.1813
21.1092
20.0736
19.0786
18.1204
17.1892
16.2725
15.3573
14.4365
13.5099
12.5854
11.6792
10.815
10.0222
9.33356
8.78224
8.39807
8.20424
8.21437
8.42749
8.8289
9.39456
10.0941
10.8943
11.7628
12.6705
13.5946
14.5197
15.4388
16.3529
17.27
18.2034
19.1652
20.1648
21.2053
22.2816
23.3785
24.4697
25.518
26.4764
27.2911
27.9121
28.2948
28.408
28.2411
27.8096
27.1479
26.3026
25.324
24.266
23.1735
22.0818
21.015
19.9859
18.9981
18.047
17.1224
16.2114
15.3011
14.3844
13.4613
12.5398
11.6362
10.7742
9.98331
9.29638
8.74639
8.36321
8.16998
7.88235
8.11546
8.55431
9.17188
9.93385
10.8027
11.7413
12.7166
13.7015
14.6777
15.6354
16.5737
17.4992
18.4241
19.3609
20.3215
21.3114
22.3264
23.3553
24.3757
25.3546
26.2506
27.0165
27.6065
27.9803
28.1087
27.9799
27.6059
27.0158
26.2499
25.354
24.375
23.3543
22.3248
21.3086
20.3166
19.3524
18.4111
17.4805
16.5482
15.6027
14.638
13.6559
12.6668
11.6901
10.7534
9.8907
9.13916
8.53625
8.11578
7.90378
7.91494
8.14828
8.58779
9.20646
9.96991
10.8406
11.7814
12.7592
13.747
14.7265
15.6882
16.6311
17.5619
18.493
19.4362
20.4036
21.3992
22.4185
23.4496
24.4689
25.4429
26.3291
27.0806
27.6518
28.0032
28.1073
27.9543
27.5582
26.9497
26.1699
25.2646
24.281
23.2596
22.2325
21.2207
20.2344
19.2768
18.3419
17.417
16.4899
15.5488
14.5878
13.6088
12.6225
11.6484
10.7139
9.85313
9.10329
8.50177
8.08234
7.87098
7.57933
7.83279
8.30969
8.9799
9.80519
10.7438
11.7551
12.8013
13.852
14.8857
15.8901
16.8623
17.8068
18.7342
19.6563
20.5861
21.5307
22.4891
23.4518
24.3992
25.3025
26.1251
26.8258
27.3643
27.705
27.8221
27.7046
27.3636
26.825
26.1241
25.3015
24.398
23.45
22.4864
21.5262
20.5788
19.6449
18.7173
17.7832
16.8309
15.8506
14.8382
13.7978
12.7424
11.6946
10.6854
9.75334
8.93944
8.28531
7.82859
7.59829
7.61048
7.86417
8.34175
9.01307
9.83986
10.7804
11.7938
12.8425
13.8959
14.9326
15.9407
16.9169
17.8661
18.7987
19.7265
20.6619
21.6116
22.5737
23.538
24.4842
25.3826
26.1961
26.8837
27.4051
27.7257
27.8208
27.6814
27.3206
26.7652
26.0516
25.2204
24.3123
23.3634
22.4015
21.4451
20.5027
19.5743
18.6522
17.7231
16.7752
15.7987
14.7897
13.7522
12.6995
11.654
10.6471
9.71698
8.90482
8.25214
7.7965
7.56689
7.26234
7.53602
8.04984
8.77039
9.65579
10.6605
11.7399
12.8534
13.9678
15.0586
16.1111
17.1198
18.087
19.0208
19.9328
20.8367
21.7406
22.6457
23.5447
24.4212
25.2508
26.0018
26.6391
27.1275
27.4362
27.5423
27.4357
27.1266
26.6379
26.0004
25.2491
24.4191
23.5416
22.6412
21.7338
20.8264
19.9178
18.9994
18.0579
17.0821
16.0644
15.0032
13.905
12.7856
11.6703
10.5932
9.59556
8.72246
8.01929
7.52733
7.27881
7.29206
7.56597
8.08048
8.80218
9.68912
10.6957
11.7772
12.8931
14.0101
15.1038
16.1595
17.1718
18.1429
19.0811
19.9979
20.9064
21.8145
22.7226
23.6227
24.4978
25.3227
26.0655
26.6908
27.164
27.4546
27.5411
27.4149
27.0881
26.5844
25.9354
25.1761
24.3417
23.4631
22.5639
21.6595
20.7562
19.8522
18.9383
18.0009
17.0288
16.0145
14.9563
13.8608
12.7438
11.6308
10.556
9.56037
8.68908
7.98742
7.49662
7.24882
6.92396
7.21622
7.76336
8.52886
9.46765
10.5312
11.6721
12.8473
14.0212
15.167
16.2674
17.3142
18.3071
19.2515
20.1589
21.0428
21.9123
22.7698
23.6105
24.4212
25.1816
25.8653
26.4427
26.8838
27.1622
27.2579
27.1616
26.8827
26.4411
25.8633
25.179
24.4177
23.6057
22.7631
21.9027
21.0291
20.1396
19.2251
18.2721
17.2698
16.2133
15.1038
13.9503
12.771
11.594
10.4556
9.39964
8.47394
7.72698
7.2032
6.93792
6.95221
7.24469
7.79255
8.55923
9.49961
10.5651
11.7081
12.8857
14.0621
15.2105
16.3138
17.3637
18.3599
19.3078
20.219
21.1068
21.9796
22.8394
23.6806
24.4896
25.2456
25.9218
26.4885
26.9161
27.1786
27.2568
27.1432
26.8485
26.3936
25.8054
25.1139
24.3484
23.535
22.6931
21.8349
20.9645
20.0787
19.1678
18.2181
17.2188
16.1652
15.0583
13.9072
12.7304
11.5557
10.4196
9.36568
8.44185
7.69647
7.17389
6.90938
6.55865
6.8665
7.44117
8.24351
9.22605
10.3382
11.5307
12.7589
13.9855
15.1815
16.3274
17.4123
18.433
19.392
20.3004
21.1714
22.0139
22.8315
23.6214
24.3736
25.0718
25.6944
26.2171
26.615
26.8656
26.9517
26.8648
26.6135
26.2149
25.6915
25.0679
24.3685
23.6145
22.8221
22.0009
21.1536
20.2764
19.3602
18.3919
17.3612
16.2661
15.1108
13.9068
12.675
11.445
10.2553
9.1512
8.18243
7.39957
6.84948
6.57016
6.58535
6.89342
7.46884
8.2724
9.25658
10.3707
11.5654
12.796
14.0249
15.2234
16.3719
17.4595
18.4829
19.4446
20.3561
21.2299
22.0749
22.8941
23.6841
24.4344
25.1284
25.7443
26.2575
26.6433
26.8799
26.9507
26.8485
26.5834
26.1731
25.6404
25.0102
24.3067
23.5511
22.7588
21.9391
21.0942
20.2198
19.3063
18.3405
17.3122
16.2196
15.0666
13.865
12.6355
11.4079
10.2205
9.11854
8.15171
7.37049
6.82166
6.54315
6.16256
6.48178
7.07612
7.90449
8.918
10.0651
11.2957
12.5646
13.8333
15.0716
16.2577
17.3784
18.4274
19.404
20.3188
21.1838
22.0076
22.7943
23.5426
24.2453
24.89
25.4595
25.9341
26.2937
26.5196
26.5971
26.5185
26.2917
25.9311
25.4553
24.8845
24.2381
23.533
22.7816
21.9907
21.1616
20.2897
19.3665
18.3801
17.3208
16.1897
14.994
13.7479
12.4741
11.2037
9.9762
8.83759
7.83838
7.03015
6.46128
6.17173
6.18762
6.50707
7.10218
7.93182
8.94702
10.0961
11.329
12.6003
13.8714
15.112
16.3005
17.4235
18.4747
19.4533
20.3704
21.2375
22.063
22.8505
23.5985
24.2992
24.9398
25.5031
25.9694
26.3184
26.5321
26.5962
26.5043
26.2653
25.8944
25.4104
24.8335
24.1833
23.4763
22.7245
21.9344
21.1068
20.237
19.3158
18.3311
17.2737
16.1447
14.9512
13.7073
12.4358
11.1679
9.94271
8.80634
7.80915
7.00262
6.43505
6.14634
5.73303
6.05826
6.66239
7.50326
8.5317
9.69636
10.9477
12.2407
13.5369
14.8053
16.0226
17.1733
18.2483
19.2434
20.1686
21.0339
21.8469
22.6119
23.3285
23.992
24.593
25.1183
25.5526
25.8797
26.0845
26.1547
26.0832
25.877
25.5486
25.1127
24.5856
23.9824
23.316
22.5956
21.8259
21.0069
20.1343
19.2003
18.195
17.1096
15.9486
14.7219
13.446
12.1451
10.851
9.60321
8.44737
7.43356
6.61317
6.03496
5.74002
5.75635
6.08181
6.68673
7.52892
8.5591
9.72585
10.9795
12.2749
13.5735
14.8442
16.0637
17.2164
18.2931
19.2898
20.2166
21.0834
21.8974
22.6626
23.3785
24.0398
24.6369
25.1565
25.5833
25.9012
26.0954
26.1538
26.0706
25.8539
25.5164
25.0732
24.5405
23.9336
23.2651
22.5439
21.7744
20.9563
20.0849
19.1523
18.1482
17.0643
15.9051
14.6805
13.4068
12.1082
10.8166
9.57122
8.41769
7.40595
6.58732
6.01044
5.71637
5.26836
5.59316
6.19525
7.03246
8.05653
9.21763
10.4679
11.7638
13.0679
14.3491
15.5835
16.7538
17.8481
18.8595
19.7962
20.6658
21.4745
22.2259
22.9204
23.5546
24.1219
24.6125
25.0145
25.3153
25.503
25.567
25.5012
25.3119
25.0092
24.6052
24.1123
23.5422
22.9045
22.2057
21.4491
20.6339
19.7567
18.811
17.7895
16.6849
15.5048
14.2615
12.9734
11.6652
10.3687
9.12232
7.97027
6.96089
6.14413
5.56789
5.2734
5.28982
5.61485
6.21775
7.0563
8.08216
9.24539
10.498
11.7964
13.1028
14.3864
15.6229
16.7948
17.8906
18.9031
19.841
20.7116
21.5207
22.2719
22.9651
23.5971
24.1607
24.646
25.0413
25.3341
25.5124
25.5662
25.4902
25.2916
24.981
24.5704
24.0724
23.4986
22.8586
22.1586
21.4016
20.5868
19.7102
18.7654
17.7447
16.6413
15.4629
14.2216
12.9357
11.6299
10.3359
9.09205
7.94237
6.93511
6.12012
5.54523
5.25161
4.7677
5.08464
5.6711
6.48606
7.4834
8.61609
9.83918
11.1118
12.3985
13.6693
14.9004
16.0733
17.1746
18.1945
19.1391
20.013
20.8202
21.5634
22.2429
22.8563
23.3988
23.8632
24.2404
24.521
24.6951
24.7544
24.693
24.5166
24.2338
23.854
23.3868
22.841
22.2236
21.5393
20.7905
19.9766
19.0949
18.1416
17.1119
16.0009
14.8187
13.5796
12.3027
11.0126
9.73997
8.52112
7.39753
6.41464
5.61963
5.05836
4.77103
4.78715
5.10434
5.69161
6.50791
7.50706
8.6419
9.86737
11.1425
12.4316
13.7047
14.9378
16.1123
17.2146
18.2357
19.1812
20.0556
20.8628
21.6054
22.2834
22.8943
23.4332
23.8928
24.264
24.5374
24.7034
24.7536
24.6832
24.4987
24.2088
23.8231
23.3512
22.8018
22.1819
21.4961
20.7465
19.9324
19.0511
18.0982
17.0691
15.9592
14.7787
13.5415
12.2669
10.9793
9.70918
8.49285
7.37165
6.39088
5.59765
5.03772
4.75124
4.23098
4.53183
5.08765
5.85972
6.80533
7.8814
9.04707
10.2652
11.5034
12.7339
13.934
15.0852
16.173
17.1867
18.1284
18.9998
19.8025
20.5375
21.2046
21.8017
22.3252
22.7694
23.1276
23.3925
23.5563
23.6117
23.5536
23.3872
23.1196
22.7583
22.3108
21.7835
21.182
20.5098
19.769
18.9596
18.0807
17.1307
16.1082
15.0114
13.8519
12.6448
11.4092
10.1684
8.95082
7.78961
6.72247
5.7907
5.03758
4.50563
4.2329
4.2483
4.54939
5.10601
5.8794
6.82679
7.90499
9.07303
10.2937
11.5343
12.7671
13.9691
15.1217
16.2103
17.2254
18.1679
19.0395
19.8419
20.576
21.2414
21.836
22.356
22.7957
23.1485
23.4069
23.5634
23.6109
23.5449
23.3713
23.0973
22.7307
22.2787
21.748
21.1438
20.4699
19.728
18.9182
18.0393
17.0896
16.0677
14.972
13.8141
12.6091
11.3757
10.1374
8.9224
7.7637
6.69891
5.76922
5.01782
4.48717
4.21527
3.659
3.93499
4.44421
5.1514
6.01834
7.007
8.08156
9.20963
10.3627
11.5164
12.6501
13.7465
14.7913
15.7745
16.6933
17.5463
18.3325
19.0512
19.7012
20.2802
20.7847
21.2104
21.5517
21.803
21.9578
22.01
21.9547
21.7968
21.5424
21.1977
20.7683
20.2597
19.6761
19.0209
18.2964
17.5037
16.6438
15.7176
14.7272
13.6742
12.5706
11.4312
10.2734
9.11856
7.99158
6.92152
5.94131
5.08718
4.39738
3.91003
3.65984
3.67403
3.95026
4.46024
5.16869
6.03733
7.02804
8.10489
9.23538
10.3909
11.5469
12.6825
13.7805
14.8266
15.8108
16.7302
17.5832
18.369
19.0866
19.7348
20.3112
20.8124
21.2339
21.5703
21.8158
21.9641
22.0092
21.9469
21.7826
21.5225
21.1727
20.7392
20.2273
19.6411
18.9841
18.2584
17.4651
16.6051
15.6793
14.6896
13.6377
12.5358
11.3984
10.2429
9.09051
7.96601
6.89837
5.92041
5.06825
4.38007
3.89394
3.64451
3.05344
3.29566
3.74203
4.36186
5.12242
5.99153
6.93921
7.93848
8.96567
10.0004
11.0253
12.0257
12.9891
13.9063
14.7707
15.5779
16.3245
17.0082
17.6262
18.1758
18.6535
19.0553
19.3765
19.6121
19.7571
19.8058
19.7537
19.6054
19.3663
19.0415
18.636
18.1541
17.5999
16.9768
16.2877
15.5351
14.7218
13.8511
12.928
11.958
10.952
9.92267
8.885
7.85682
6.85898
5.9156
5.05411
4.30489
3.70033
3.27311
3.05354
3.06604
3.30848
3.75555
4.37653
5.13863
6.00963
6.95943
7.96096
8.99045
10.0274
11.0543
12.0565
13.0212
13.9394
14.8044
15.6116
16.3577
17.0402
17.6565
18.2037
18.6783
19.0762
19.3929
19.6235
19.7627
19.805
19.7467
19.5927
19.3485
19.0192
18.6098
18.1248
17.5682
16.9433
16.253
15.4999
14.6865
13.8163
12.8942
11.9255
10.9212
9.89374
8.85826
7.83237
6.83683
5.89567
5.03623
4.2888
3.6857
3.25957
3.04068
2.41697
2.61679
2.98463
3.49533
4.12244
4.84031
5.62526
6.45619
7.31473
8.18517
9.0542
9.9107
10.7454
11.5512
12.3184
13.0403
13.7118
14.329
14.8884
15.3864
15.8192
16.183
16.4735
16.6865
16.8173
16.8611
16.8139
16.6797
16.4634
16.1693
15.8018
15.365
14.8629
14.299
13.6769
13.0004
12.2734
11.5011
10.6904
9.85137
8.99099
8.11892
7.24661
6.3877
5.55829
4.77712
4.06569
3.44798
2.94988
2.5978
2.41666
2.42701
2.62701
2.99545
3.50713
4.13556
4.85505
5.64184
6.47475
7.33534
8.20779
9.07875
9.93699
10.7732
11.58
12.3478
13.0697
13.7408
14.3571
14.9149
15.4107
15.8407
16.2012
16.4878
16.6962
16.8221
16.8604
16.8078
16.6686
16.4478
16.1499
15.779
15.3395
14.8351
14.2696
13.6465
12.9695
12.2426
11.471
10.6619
9.82397
8.96512
8.09483
7.22446
6.36757
5.54015
4.7609
4.05121
3.43502
2.93814
2.58698
2.40641
1.75324
1.90285
2.178
2.55986
3.02896
3.56657
4.1556
4.78101
5.42987
6.09134
6.75657
7.41858
8.07222
8.71382
9.33174
9.91822
10.4676
10.9754
11.4375
11.8501
12.2095
12.5119
12.7536
12.9308
13.0396
13.0761
13.0366
12.9247
12.7446
12.4998
12.1942
11.8315
11.4154
10.9497
10.4381
9.8849
9.29458
8.67299
8.02812
7.3719
6.70758
6.04055
5.37804
4.72918
4.10511
3.51904
2.98631
2.52427
2.1518
1.88844
1.7528
1.76057
1.91032
2.18593
2.56855
3.03867
3.57753
4.16799
4.79496
5.44545
6.10858
6.77545
7.43906
8.09424
8.73686
9.35537
9.94199
10.4911
10.9981
11.4589
11.8698
12.2269
12.5266
12.7651
12.9387
13.0435
13.0755
13.0316
12.9158
12.732
12.484
12.1757
11.8107
11.3929
10.9259
10.4136
9.86005
9.26993
8.6491
8.00573
7.35075
6.68781
6.02229
5.36135
4.71409
4.09158
3.50698
2.9756
2.51471
2.14319
1.88052
1.74532
1.06682
1.15979
1.33062
1.56756
1.85854
2.19209
2.55785
2.94677
3.35127
3.76517
4.18381
4.60423
5.02553
5.44809
5.86038
6.25543
6.62839
6.97533
7.2928
7.57753
7.8264
8.03635
8.20444
8.32781
8.40365
8.42901
8.40143
8.32343
8.19791
8.02764
7.81547
7.56433
7.27725
6.95739
6.60802
6.23265
5.83526
5.42083
4.99651
4.57422
4.15275
3.73324
3.31887
2.91448
2.52645
2.16256
1.83204
1.54542
1.3143
1.15077
1.06647
1.0713
1.16438
1.3355
1.57291
1.86454
2.19888
2.56555
2.95547
3.36102
3.77603
4.19582
4.61745
5.04009
5.46351
5.87629
6.27153
6.64434
6.99081
7.30745
7.59101
7.83835
8.04643
8.21233
8.33322
8.40629
8.4286
8.398
8.31725
8.18925
8.01681
7.80277
7.55011
7.26186
6.94118
6.59134
6.21585
5.81869
5.40488
4.9817
4.5606
4.14024
3.72178
3.30845
2.90509
2.51805
2.1551
1.82542
1.53953
1.30901
1.14591
1.06188
0.363048
0.394946
0.453458
0.534459
0.633728
0.747265
0.871484
1.0033
1.14017
1.28013
1.4219
1.56526
1.71206
1.8666
2.0202
2.16922
2.31138
2.44484
2.56794
2.6791
2.77681
2.8596
2.9261
2.97501
3.0051
3.01517
3.00422
2.97326
2.92349
2.85614
2.77249
2.67392
2.5619
2.43794
2.30363
2.16064
2.01086
1.85659
1.70161
1.55491
1.41135
1.26933
1.12921
0.992368
0.860832
0.737222
0.624692
0.526891
0.447862
0.391839
0.362912
0.364574
0.396505
0.455116
0.536278
0.635765
0.749568
0.874091
1.00624
1.14347
1.28381
1.426
1.56988
1.7175
1.87246
2.02631
2.17545
2.3176
2.4509
2.57371
2.68443
2.78154
2.8636
2.92924
2.97716
3.00615
3.015
3.00285
2.9708
2.92005
2.85184
2.76746
2.66831
2.55585
2.43159
2.29714
2.15415
2.00451
1.85053
1.69604
1.55015
1.40708
1.26545
1.12569
0.989193
0.857988
0.734691
0.622444
0.524888
0.44606
0.390186
0.361352
)
;

boundaryField
{
    top
    {
        type            fixedValue;
        value           uniform 0;
    }
    bottom
    {
        type            fixedValue;
        value           uniform 36.5;
    }
    frontAndBack
    {
        type            empty;
    }
    left_cyc
    {
        type            cyclic;
    }
    right_cyc
    {
        type            cyclic;
    }
}


// ************************************************************************* //
