/*--------------------------------*- C++ -*----------------------------------*\
| =========                 |                                                 |
| \\      /  F ield         | OpenFOAM: The Open Source CFD Toolbox           |
|  \\    /   O peration     | Version:  2.3.0                                 |
|   \\  /    A nd           | Web:      www.OpenFOAM.org                      |
|    \\/     M anipulation  |                                                 |
\*---------------------------------------------------------------------------*/
FoamFile
{
    version     2.0;
    format      ascii;
    class       volVectorField;
    location    "21000";
    object      U;
}
// * * * * * * * * * * * * * * * * * * * * * * * * * * * * * * * * * * * * * //

dimensions      [0 1 -1 0 0 0 0];

internalField   nonuniform List<vector> 
3060
(
(0.621469 0 -0.447311)
(1.58484 0 -0.431074)
(2.52406 0 -0.401025)
(3.42517 0 -0.357724)
(4.27513 0 -0.30221)
(5.06206 0 -0.236586)
(5.77576 0 -0.164532)
(6.40809 0 -0.0912915)
(6.95309 0 -0.0227375)
(7.40604 0 0.0362373)
(7.76166 0 0.0830533)
(8.01171 0 0.117643)
(8.14307 0 0.141622)
(8.137 0 0.15741)
(7.97223 0 0.17043)
(7.62911 0 0.191293)
(7.10071 0 0.227365)
(6.39725 0 0.270955)
(5.54985 0 0.30188)
(4.6182 0 0.305596)
(3.67137 0 0.284403)
(2.76807 0 0.246834)
(1.94689 0 0.20497)
(1.21579 0 0.169585)
(0.55582 0 0.147274)
(-0.0677346 0 0.140828)
(-0.695785 0 0.150836)
(-1.36856 0 0.176348)
(-2.11827 0 0.213866)
(-2.95883 0 0.255818)
(-3.87551 0 0.290818)
(-4.82397 0 0.307031)
(-5.74224 0 0.297098)
(-6.56125 0 0.261579)
(-7.22662 0 0.218155)
(-7.71294 0 0.18539)
(-8.01351 0 0.167171)
(-8.1391 0 0.154058)
(-8.1102 0 0.136468)
(-7.94811 0 0.10999)
(-7.67038 0 0.0723765)
(-7.28896 0 0.0223428)
(-6.81129 0 -0.0394617)
(-6.24243 0 -0.109804)
(-5.58737 0 -0.183376)
(-4.85268 0 -0.254305)
(-4.04712 0 -0.317668)
(-3.18145 0 -0.370194)
(-2.26797 0 -0.410097)
(-1.32005 0 -0.436501)
(-0.351875 0 -0.448889)
(0.62173 0 -0.446873)
(1.58574 0 -0.430548)
(2.52549 0 -0.400337)
(3.427 0 -0.356814)
(4.27715 0 -0.301044)
(5.06404 0 -0.235179)
(5.77741 0 -0.16296)
(6.40911 0 -0.0896896)
(6.95311 0 -0.021257)
(7.40462 0 0.0374844)
(7.75815 0 0.0840262)
(8.0052 0 0.118363)
(8.13232 0 0.142147)
(8.12043 0 0.157848)
(7.94825 0 0.171151)
(7.5964 0 0.192862)
(7.05899 0 0.229748)
(6.34728 0 0.273196)
(5.49411 0 0.302782)
(4.56046 0 0.304915)
(3.61528 0 0.28248)
(2.71647 0 0.244336)
(1.901 0 0.202599)
(1.17504 0 0.167853)
(0.518392 0 0.146439)
(-0.10425 0 0.140967)
(-0.733927 0 0.151938)
(-1.41062 0 0.178296)
(-2.1658 0 0.216337)
(-3.01191 0 0.258226)
(-3.9324 0 0.292453)
(-4.88159 0 0.307311)
(-5.79677 0 0.295736)
(-6.60913 0 0.259163)
(-7.26589 0 0.215929)
(-7.74317 0 0.184087)
(-8.03526 0 0.166592)
(-8.15387 0 0.153628)
(-8.11957 0 0.135893)
(-7.95359 0 0.109196)
(-7.67311 0 0.0713152)
(-7.28979 0 0.0210068)
(-6.81079 0 -0.0410104)
(-6.24102 0 -0.111436)
(-5.58538 0 -0.184939)
(-4.85041 0 -0.255673)
(-4.04485 0 -0.318782)
(-3.17943 0 -0.371054)
(-2.26636 0 -0.410745)
(-1.319 0 -0.437002)
(-0.351471 0 -0.449318)
(0.9278 0 -1.6792)
(2.37342 0 -1.65798)
(3.80185 0 -1.61902)
(5.20345 0 -1.56376)
(6.56961 0 -1.49388)
(7.89247 0 -1.41082)
(9.16373 0 -1.31521)
(10.373 0 -1.20629)
(11.5057 0 -1.0816)
(12.5423 0 -0.936797)
(13.458 0 -0.765434)
(14.2232 0 -0.558704)
(14.803 0 -0.305718)
(15.1571 0 0.00362124)
(15.2366 0 0.3667)
(14.9877 0 0.74955)
(14.3708 0 1.09647)
(13.371 0 1.37399)
(12.0035 0 1.56784)
(10.3452 0 1.66574)
(8.51379 0 1.66364)
(6.63147 0 1.57247)
(4.79837 0 1.43461)
(3.06279 0 1.3016)
(1.41963 0 1.21168)
(-0.172498 0 1.18483)
(-1.77093 0 1.22616)
(-3.43117 0 1.32763)
(-5.18847 0 1.46543)
(-7.03724 0 1.5974)
(-8.91691 0 1.67174)
(-10.7192 0 1.65125)
(-12.3204 0 1.53138)
(-13.6085 0 1.31734)
(-14.5204 0 1.02243)
(-15.0505 0 0.662644)
(-15.2185 0 0.278644)
(-15.0694 0 -0.0748209)
(-14.657 0 -0.371662)
(-14.0282 0 -0.613794)
(-13.2222 0 -0.812064)
(-12.2726 0 -0.977024)
(-11.2082 0 -1.11694)
(-10.0526 0 -1.23776)
(-8.82441 0 -1.3434)
(-7.53698 0 -1.43591)
(-6.20017 0 -1.51568)
(-4.82209 0 -1.58185)
(-3.41082 0 -1.63288)
(-1.97525 0 -1.66712)
(-0.525331 0 -1.68326)
(0.928427 0 -1.68065)
(2.37541 0 -1.65938)
(3.80519 0 -1.62033)
(5.20811 0 -1.56493)
(6.57552 0 -1.49485)
(7.89949 0 -1.4115)
(9.1716 0 -1.31545)
(10.3812 0 -1.20588)
(11.5135 0 -1.08022)
(12.5487 0 -0.934033)
(13.4614 0 -0.760748)
(14.2218 0 -0.551427)
(14.7946 0 -0.295112)
(15.1391 0 0.0180528)
(15.2056 0 0.384231)
(14.9405 0 0.767411)
(14.3054 0 1.11179)
(13.2867 0 1.38551)
(11.9025 0 1.57456)
(10.233 0 1.66712)
(8.39711 0 1.65939)
(6.51683 0 1.56436)
(4.68979 0 1.42564)
(2.96101 0 1.29448)
(1.32267 0 1.2081)
(-0.268086 0 1.18544)
(-1.86896 0 1.23085)
(-3.53479 0 1.33549)
(-5.29901 0 1.47448)
(-7.15303 0 1.60469)
(-9.03306 0 1.6745)
(-10.829 0 1.64838)
(-12.4173 0 1.52324)
(-13.6876 0 1.30468)
(-14.5806 0 1.00621)
(-15.0929 0 0.644483)
(-15.2454 0 0.26172)
(-15.0842 0 -0.0882523)
(-14.6629 0 -0.381327)
(-14.0277 0 -0.620327)
(-13.2175 0 -0.816202)
(-12.2654 0 -0.979401)
(-11.1998 0 -1.11806)
(-10.044 0 -1.23801)
(-8.81632 0 -1.34305)
(-7.52981 0 -1.43517)
(-6.19414 0 -1.51467)
(-4.81732 0 -1.58066)
(-3.40736 0 -1.63156)
(-1.97314 0 -1.66571)
(-0.524588 0 -1.68181)
(1.04006 0 -3.18479)
(2.65967 0 -3.14992)
(4.2574 0 -3.08551)
(5.82005 0 -2.9933)
(7.3345 0 -2.87515)
(8.78742 0 -2.73229)
(10.1648 0 -2.56456)
(11.4518 0 -2.36988)
(12.6323 0 -2.14415)
(13.6896 0 -1.88159)
(14.6068 0 -1.57511)
(15.3682 0 -1.21655)
(15.9604 0 -0.797143)
(16.374 0 -0.308217)
(16.6018 0 0.25917)
(16.6262 0 0.91727)
(16.3899 0 1.67454)
(15.7908 0 2.487)
(14.7386 0 3.20309)
(13.1978 0 3.65982)
(11.2252 0 3.84932)
(8.97573 0 3.81893)
(6.6253 0 3.64282)
(4.28941 0 3.42892)
(2.0055 0 3.27084)
(-0.242953 0 3.22196)
(-2.49578 0 3.29654)
(-4.79015 0 3.47225)
(-7.13352 0 3.6864)
(-9.47248 0 3.83866)
(-11.6751 0 3.82528)
(-13.5607 0 3.57941)
(-14.9922 0 3.05906)
(-15.936 0 2.30335)
(-16.4426 0 1.493)
(-16.61 0 0.755997)
(-16.534 0 0.118258)
(-16.2603 0 -0.431802)
(-15.8024 0 -0.905356)
(-15.1672 0 -1.31113)
(-14.3653 0 -1.65783)
(-13.4108 0 -1.95414)
(-12.3198 0 -2.20799)
(-11.1094 0 -2.42624)
(-9.79632 0 -2.6143)
(-8.39647 0 -2.77584)
(-6.9246 0 -2.91247)
(-5.39461 0 -3.02398)
(-3.81984 0 -3.10893)
(-2.21349 0 -3.16545)
(-0.588867 0 -3.19197)
(1.04062 0 -3.18768)
(2.66152 0 -3.15271)
(4.26042 0 -3.08812)
(5.82409 0 -2.99562)
(7.33931 0 -2.87704)
(8.79261 0 -2.73354)
(10.1699 0 -2.56488)
(11.4561 0 -2.36888)
(12.635 0 -2.14135)
(13.6898 0 -1.87643)
(14.6036 0 -1.56694)
(15.3604 0 -1.2047)
(15.9472 0 -0.780943)
(16.3546 0 -0.287043)
(16.5753 0 0.285976)
(16.5905 0 0.950548)
(16.3399 0 1.71393)
(15.7204 0 2.52695)
(14.6434 0 3.2324)
(13.0779 0 3.67372)
(11.0868 0 3.8497)
(8.82921 0 3.80909)
(6.47899 0 3.62837)
(4.14707 0 3.41617)
(1.86679 0 3.26412)
(-0.380556 0 3.22311)
(-2.63533 0 3.30526)
(-4.93374 0 3.48605)
(-7.28054 0 3.70025)
(-9.61778 0 3.84604)
(-11.8093 0 3.82142)
(-13.6741 0 3.56141)
(-15.0802 0 3.02566)
(-16 0 2.26251)
(-16.4877 0 1.45497)
(-16.6426 0 0.724499)
(-16.5582 0 0.0930129)
(-16.2777 0 -0.451616)
(-15.8137 0 -0.920364)
(-15.1734 0 -1.32196)
(-14.3672 0 -1.66517)
(-13.4094 0 -1.95866)
(-12.3161 0 -2.21031)
(-11.1044 0 -2.42689)
(-9.79069 0 -2.61376)
(-8.39084 0 -2.77445)
(-6.91946 0 -2.9105)
(-5.39029 0 -3.0216)
(-3.81658 0 -3.10628)
(-2.21144 0 -3.16263)
(-0.588109 0 -3.18908)
(1.0881 0 -4.86858)
(2.78058 0 -4.81526)
(4.44503 0 -4.71636)
(6.06453 0 -4.57375)
(7.6223 0 -4.38933)
(9.10172 0 -4.16436)
(10.4864 0 -3.89876)
(11.7606 0 -3.59076)
(12.909 0 -3.23698)
(13.9175 0 -2.83279)
(14.7736 0 -2.37263)
(15.466 0 -1.85023)
(15.9859 0 -1.25849)
(16.3254 0 -0.588755)
(16.4771 0 0.171386)
(16.4325 0 1.0392)
(16.1831 0 2.0238)
(15.7198 0 3.10031)
(15.0044 0 4.20737)
(13.9111 0 5.2369)
(12.2804 0 5.96219)
(10.1371 0 6.22801)
(7.65032 0 6.1626)
(5.02291 0 5.95862)
(2.36735 0 5.77923)
(-0.285981 0 5.72061)
(-2.93963 0 5.80886)
(-5.5926 0 6.00322)
(-8.2009 0 6.19133)
(-10.629 0 6.19962)
(-12.6686 0 5.83675)
(-14.1732 0 5.01955)
(-15.1649 0 3.9574)
(-15.8151 0 2.84901)
(-16.2268 0 1.7873)
(-16.427 0 0.826616)
(-16.4239 0 -0.0171447)
(-16.226 0 -0.757123)
(-15.8416 0 -1.40977)
(-15.2783 0 -1.98638)
(-14.5439 0 -2.49507)
(-13.648 0 -2.94269)
(-12.6021 0 -3.33534)
(-11.4195 0 -3.67838)
(-10.1144 0 -3.97621)
(-8.70256 0 -4.23185)
(-7.19992 0 -4.44667)
(-5.62311 0 -4.6204)
(-3.98888 0 -4.7516)
(-2.31415 0 -4.83834)
(-0.615992 0 -4.87889)
(1.0884 0 -4.87234)
(2.78177 0 -4.81883)
(4.44696 0 -4.71956)
(6.06695 0 -4.57637)
(7.62485 0 -4.39113)
(9.10394 0 -4.16501)
(10.4878 0 -3.89787)
(11.7603 0 -3.58784)
(12.9064 0 -3.2315)
(13.9118 0 -2.82414)
(14.764 0 -2.36017)
(15.4517 0 -1.83331)
(15.9661 0 -1.23646)
(16.2994 0 -0.560887)
(16.4441 0 0.206037)
(16.3916 0 1.08163)
(16.1335 0 2.07375)
(15.6603 0 3.1552)
(14.9302 0 4.26273)
(13.8117 0 5.28336)
(12.1508 0 5.98395)
(9.98423 0 6.22655)
(7.48612 0 6.149)
(4.85653 0 5.94373)
(2.20174 0 5.77083)
(-0.451207 0 5.72208)
(-3.10551 0 5.81964)
(-5.75891 0 6.01876)
(-8.3632 0 6.20271)
(-10.7764 0 6.19556)
(-12.79 0 5.80721)
(-14.2644 0 4.96906)
(-15.2341 0 3.90147)
(-15.8715 0 2.79502)
(-16.2738 0 1.73916)
(-16.4655 0 0.786297)
(-16.4547 0 -0.0499075)
(-16.2499 0 -0.783391)
(-15.8595 0 -1.43042)
(-15.2909 0 -2.00211)
(-14.5519 0 -2.50653)
(-13.6523 0 -2.95052)
(-12.6035 0 -3.34016)
(-11.4187 0 -3.68078)
(-10.1123 0 -3.97672)
(-8.69967 0 -4.23093)
(-7.19682 0 -4.44469)
(-5.62023 0 -4.61765)
(-3.98655 0 -4.74832)
(-2.3126 0 -4.83472)
(-0.61535 0 -4.87512)
(1.09784 0 -6.601)
(2.80388 0 -6.52683)
(4.47733 0 -6.3889)
(6.09871 0 -6.18927)
(7.64896 0 -5.9301)
(9.10968 0 -5.613)
(10.4634 0 -5.23846)
(11.6939 0 -4.80556)
(12.7864 0 -4.31202)
(13.7278 0 -3.75453)
(14.5067 0 -3.12913)
(15.1133 0 -2.43135)
(15.5392 0 -1.65607)
(15.777 0 -0.796776)
(15.8215 0 0.155907)
(15.6714 0 1.21413)
(15.3331 0 2.38539)
(14.8149 0 3.66115)
(14.1126 0 5.01489)
(13.1998 0 6.38067)
(11.9821 0 7.60859)
(10.2709 0 8.45866)
(7.99012 0 8.76172)
(5.34589 0 8.70856)
(2.54469 0 8.57448)
(-0.30685 0 8.52335)
(-3.15245 0 8.59807)
(-5.93055 0 8.73124)
(-8.51434 0 8.7303)
(-10.6811 0 8.3117)
(-12.2644 0 7.35356)
(-13.4 0 6.07648)
(-14.2595 0 4.70214)
(-14.9175 0 3.36058)
(-15.3934 0 2.10455)
(-15.6876 0 0.956496)
(-15.7914 0 -0.0790728)
(-15.6998 0 -1.01173)
(-15.4155 0 -1.85319)
(-14.9443 0 -2.61201)
(-14.2938 0 -3.29425)
(-13.4728 0 -3.90477)
(-12.4917 0 -4.44791)
(-11.3622 0 -4.92747)
(-10.0979 0 -5.34656)
(-8.71413 0 -5.70716)
(-7.22755 0 -6.00984)
(-5.656 0 -6.25384)
(-4.0182 0 -6.43738)
(-2.33343 0 -6.5583)
(-0.621421 0 -6.61472)
(1.09784 0 -6.60561)
(2.80428 0 -6.53114)
(4.47797 0 -6.39263)
(6.0993 0 -6.19209)
(7.64911 0 -5.93166)
(9.10889 0 -5.61287)
(10.4611 0 -5.23615)
(11.6894 0 -4.80051)
(12.779 0 -4.30362)
(13.7168 0 -3.74215)
(14.4914 0 -3.11213)
(15.0929 0 -2.40911)
(15.5129 0 -1.62798)
(15.7443 0 -0.76219)
(15.7816 0 0.197741)
(15.6241 0 1.26393)
(15.2785 0 2.44322)
(14.7528 0 3.72596)
(14.042 0 5.08441)
(13.1172 0 6.44861)
(11.8787 0 7.66332)
(10.1346 0 8.48426)
(7.82725 0 8.76004)
(5.17044 0 8.697)
(2.36513 0 8.56657)
(-0.487204 0 8.52478)
(-3.33131 0 8.60793)
(-6.10366 0 8.74179)
(-8.67129 0 8.72599)
(-10.8078 0 8.27672)
(-12.3607 0 7.2936)
(-13.4784 0 6.00707)
(-14.3275 0 4.63343)
(-14.9772 0 3.29742)
(-15.4458 0 2.04876)
(-15.7327 0 0.908823)
(-15.8291 0 -0.118938)
(-15.7305 0 -1.04457)
(-15.4397 0 -1.87973)
(-14.9629 0 -2.63289)
(-14.3075 0 -3.31006)
(-13.4823 0 -3.91614)
(-12.4977 0 -4.45546)
(-11.3655 0 -4.93184)
(-10.0992 0 -5.34834)
(-8.71407 0 -5.70688)
(-7.22667 0 -6.00799)
(-5.65478 0 -6.25081)
(-4.017 0 -6.43352)
(-2.33251 0 -6.55391)
(-0.620939 0 -6.61009)
(1.07756 0 -8.30402)
(2.75067 0 -8.20575)
(4.38809 0 -8.02287)
(5.9686 0 -7.75796)
(7.4718 0 -7.41399)
(8.87836 0 -6.99365)
(10.1704 0 -6.49884)
(11.3316 0 -5.93038)
(12.3478 0 -5.28786)
(13.2067 0 -4.56986)
(13.8979 0 -3.77407)
(14.4127 0 -2.89742)
(14.744 0 -1.93599)
(14.886 0 -0.884702)
(14.8358 0 0.262726)
(14.5945 0 1.51227)
(14.1698 0 2.86397)
(13.5731 0 4.3062)
(12.8142 0 5.81816)
(11.8975 0 7.36955)
(10.8055 0 8.89209)
(9.44173 0 10.2177)
(7.6138 0 11.0887)
(5.23815 0 11.4111)
(2.53075 0 11.4382)
(-0.305172 0 11.4231)
(-3.12577 0 11.439)
(-5.78081 0 11.3717)
(-8.04748 0 10.9411)
(-9.75544 0 9.94826)
(-11.0434 0 8.55687)
(-12.091 0 7.01649)
(-12.9704 0 5.46799)
(-13.6919 0 3.96731)
(-14.2487 0 2.54139)
(-14.6306 0 1.20958)
(-14.8265 0 -0.0191381)
(-14.8302 0 -1.1467)
(-14.6415 0 -2.17937)
(-14.2645 0 -3.12313)
(-13.7051 0 -3.98271)
(-12.9708 0 -4.76174)
(-12.0709 0 -5.46306)
(-11.0162 0 -6.08875)
(-9.8196 0 -6.63998)
(-8.49594 0 -7.11686)
(-7.06199 0 -7.51831)
(-5.53617 0 -7.8422)
(-3.93825 0 -8.08576)
(-2.28898 0 -8.2461)
(-0.609849 0 -8.32087)
(1.07724 0 -8.30879)
(2.75027 0 -8.21009)
(4.38741 0 -8.02639)
(5.96736 0 -7.76023)
(7.46961 0 -7.41455)
(8.87473 0 -6.99198)
(10.1647 0 -6.4944)
(11.3233 0 -5.92253)
(12.3363 0 -5.27598)
(13.1912 0 -4.55329)
(13.8778 0 -3.75218)
(14.3872 0 -2.86959)
(14.7125 0 -1.90162)
(14.848 0 -0.843227)
(14.7907 0 0.31183)
(14.5422 0 1.56931)
(14.1106 0 2.92867)
(13.507 0 4.37756)
(12.7415 0 5.89476)
(11.8176 0 7.44881)
(10.7154 0 8.96756)
(9.3316 0 10.2755)
(7.47177 0 11.1147)
(5.0702 0 11.4129)
(2.35134 0 11.4346)
(-0.487256 0 11.4239)
(-3.303 0 11.4426)
(-5.94322 0 11.3651)
(-8.17992 0 10.9056)
(-9.85867 0 9.88383)
(-11.1299 0 8.47916)
(-12.1687 0 6.93744)
(-13.0411 0 5.39255)
(-13.7559 0 3.89753)
(-14.3059 0 2.47859)
(-14.6807 0 1.1546)
(-14.8694 0 -0.0662266)
(-14.8661 0 -1.1863)
(-14.671 0 -2.21204)
(-14.2881 0 -3.14944)
(-13.7235 0 -4.00324)
(-12.9848 0 -4.77712)
(-12.081 0 -5.47394)
(-11.0232 0 -6.09576)
(-9.82412 0 -6.64376)
(-8.49858 0 -7.11799)
(-7.06331 0 -7.51735)
(-5.53663 0 -7.83964)
(-3.93822 0 -8.08204)
(-2.28873 0 -8.24164)
(-0.609542 0 -8.31606)
(1.03274 0 -9.9583)
(2.635 0 -9.83434)
(4.19974 0 -9.60366)
(5.70485 0 -9.2696)
(7.12928 0 -8.83622)
(8.45341 0 -8.30765)
(9.65938 0 -7.68757)
(10.7314 0 -6.97876)
(11.6558 0 -6.18292)
(12.4213 0 -5.30068)
(13.0185 0 -4.33163)
(13.44 0 -3.27444)
(13.6802 0 -2.12693)
(13.7354 0 -0.886311)
(13.6048 0 0.450266)
(13.2913 0 1.88399)
(12.8025 0 3.4107)
(12.1494 0 5.01776)
(11.3435 0 6.68423)
(10.3961 0 8.38041)
(9.31408 0 10.0622)
(8.07987 0 11.6493)
(6.58887 0 12.9647)
(4.66556 0 13.7857)
(2.29894 0 14.1226)
(-0.277453 0 14.1888)
(-2.82903 0 14.0759)
(-5.11453 0 13.6472)
(-6.93052 0 12.7048)
(-8.34941 0 11.3065)
(-9.54406 0 9.68587)
(-10.5947 0 7.99385)
(-11.5097 0 6.29869)
(-12.2806 0 4.64074)
(-12.8957 0 3.04738)
(-13.3435 0 1.53791)
(-13.6136 0 0.123077)
(-13.6994 0 -1.19442)
(-13.5988 0 -2.41629)
(-13.3136 0 -3.54538)
(-12.8479 0 -4.58428)
(-12.2078 0 -5.5349)
(-11.4012 0 -6.39827)
(-10.4379 0 -7.17452)
(-9.33007 0 -7.86273)
(-8.09186 0 -8.4609)
(-6.73974 0 -8.96601)
(-5.29216 0 -9.37423)
(-3.76926 0 -9.68142)
(-2.19252 0 -9.88369)
(-0.58439 0 -9.97801)
(1.03212 0 -9.96277)
(2.63383 0 -9.83827)
(4.19783 0 -9.60653)
(5.70193 0 -9.27088)
(7.12497 0 -8.83535)
(8.44724 0 -8.30405)
(9.65083 0 -7.6806)
(10.7199 0 -6.96778)
(11.6408 0 -6.16727)
(12.4021 0 -5.27969)
(12.9945 0 -4.30467)
(13.4106 0 -3.2409)
(13.6449 0 -2.08629)
(13.6938 0 -0.838105)
(13.5564 0 0.506351)
(13.236 0 1.94799)
(12.7407 0 3.48219)
(12.0811 0 5.09571)
(11.2691 0 6.76716)
(10.3158 0 8.46613)
(9.22757 0 10.1474)
(7.98374 0 11.7269)
(6.47305 0 13.0206)
(4.52118 0 13.8117)
(2.13537 0 14.1294)
(-0.445632 0 14.1879)
(-2.98885 0 14.0653)
(-5.25092 0 13.6133)
(-7.03958 0 12.6413)
(-8.44204 0 11.2256)
(-9.62861 0 9.59992)
(-10.6733 0 7.9085)
(-11.5823 0 6.21682)
(-12.347 0 4.5643)
(-12.9556 0 2.97773)
(-13.3967 0 1.47592)
(-13.66 0 0.0690219)
(-13.739 0 -1.24068)
(-13.6322 0 -2.45512)
(-13.3411 0 -3.57725)
(-12.8702 0 -4.60975)
(-12.2254 0 -5.55457)
(-11.4148 0 -6.41278)
(-10.4481 0 -7.18453)
(-9.33742 0 -7.86889)
(-8.09694 0 -8.46386)
(-6.74307 0 -8.96637)
(-5.29419 0 -9.37258)
(-3.77034 0 -9.6783)
(-2.19292 0 -9.87961)
(-0.584258 0 -9.97348)
(0.968018 0 -11.5241)
(2.46873 0 -11.3736)
(3.93124 0 -11.0936)
(5.33318 0 -10.6884)
(6.65347 0 -10.1635)
(7.87269 0 -9.52468)
(8.97349 0 -8.77777)
(9.94077 0 -7.92776)
(10.7619 0 -6.97868)
(11.4264 0 -5.93338)
(11.9265 0 -4.79355)
(12.2561 0 -3.55984)
(12.4113 0 -2.2321)
(12.3904 0 -0.809931)
(12.1945 0 0.70637)
(11.8276 0 2.3141)
(11.2977 0 4.00555)
(10.6153 0 5.76612)
(9.79214 0 7.57423)
(8.84103 0 9.40121)
(7.77366 0 11.2093)
(6.59789 0 12.9429)
(5.291 0 14.4995)
(3.74955 0 15.6949)
(1.87468 0 16.3736)
(-0.226158 0 16.5512)
(-2.29786 0 16.267)
(-4.0995 0 15.4683)
(-5.57723 0 14.1731)
(-6.84849 0 12.5622)
(-7.99925 0 10.8033)
(-9.04032 0 8.98474)
(-9.96237 0 7.15634)
(-10.7533 0 5.35373)
(-11.4004 0 3.60391)
(-11.8922 0 1.92704)
(-12.2186 0 0.336199)
(-12.3724 0 -1.1621)
(-12.3503 0 -2.5658)
(-12.1519 0 -3.87479)
(-11.7797 0 -5.08934)
(-11.2379 0 -6.20936)
(-10.533 0 -7.23386)
(-9.67378 0 -8.16081)
(-8.67107 0 -8.98701)
(-7.53829 0 -9.70813)
(-6.29123 0 -10.3189)
(-4.94791 0 -10.8136)
(-3.5283 0 -11.1862)
(-2.05398 0 -11.4318)
(-0.547688 0 -11.5463)
(0.967139 0 -11.5278)
(2.46688 0 -11.3766)
(3.92826 0 -11.0953)
(5.3288 0 -10.6883)
(6.64733 0 -10.1608)
(7.86439 0 -9.51879)
(8.96254 0 -8.76799)
(9.92667 0 -7.91341)
(10.7441 0 -6.95908)
(11.4044 0 -5.90787)
(11.8997 0 -4.76151)
(12.224 0 -3.52071)
(12.3736 0 -2.18541)
(12.3467 0 -0.755335)
(12.1445 0 0.769008)
(11.7714 0 2.38461)
(11.2353 0 4.08333)
(10.547 0 5.85008)
(9.71841 0 7.66286)
(8.76215 0 9.4925)
(7.68987 0 11.3006)
(6.50893 0 13.0298)
(5.1928 0 14.5737)
(3.6338 0 15.7441)
(1.74025 0 16.3944)
(-0.366207 0 16.548)
(-2.42797 0 16.2386)
(-4.20958 0 15.4112)
(-5.67202 0 14.0941)
(-6.93577 0 12.4733)
(-8.0816 0 10.7116)
(-9.11771 0 8.89382)
(-10.0345 0 7.06867)
(-10.8198 0 5.27118)
(-11.461 0 3.52788)
(-11.9466 0 1.85848)
(-12.2666 0 0.275581)
(-12.4142 0 -1.2147)
(-12.3861 0 -2.6106)
(-12.1822 0 -3.91215)
(-11.8047 0 -5.11977)
(-11.2583 0 -6.23342)
(-10.5494 0 -7.25219)
(-9.68652 0 -8.17407)
(-8.68076 0 -8.99587)
(-7.54545 0 -9.71327)
(-6.29631 0 -10.321)
(-4.95132 0 -10.8132)
(-3.53037 0 -11.1842)
(-2.05495 0 -11.4285)
(-0.547717 0 -11.5425)
(0.887223 0 -12.9747)
(2.26161 0 -12.7976)
(3.59812 0 -12.4681)
(4.87469 0 -11.9918)
(6.07071 0 -11.3757)
(7.16746 0 -10.6276)
(8.14841 0 -9.75561)
(8.99951 0 -8.76707)
(9.70924 0 -7.66853)
(10.2686 0 -6.46526)
(10.671 0 -5.16123)
(10.9123 0 -3.75923)
(10.9901 0 -2.26134)
(10.9049 0 -0.669534)
(10.6591 0 1.0131)
(10.2583 0 2.78076)
(9.71088 0 4.62289)
(9.02743 0 6.5229)
(8.22032 0 8.45784)
(7.30328 0 10.3983)
(6.29084 0 12.3076)
(5.19821 0 14.138)
(4.03715 0 15.8127)
(2.7829 0 17.1923)
(1.3756 0 18.0825)
(-0.16438 0 18.3423)
(-1.68512 0 17.9347)
(-3.05535 0 16.9185)
(-4.28356 0 15.4555)
(-5.4286 0 13.7345)
(-6.50382 0 11.8789)
(-7.49505 0 9.95626)
(-8.38732 0 8.01112)
(-9.16622 0 6.07844)
(-9.81825 0 4.1862)
(-10.3314 0 2.35603)
(-10.6955 0 0.603227)
(-10.9027 0 -1.06274)
(-10.9483 0 -2.63675)
(-10.8302 0 -4.11596)
(-10.5488 0 -5.49831)
(-10.1067 0 -6.78149)
(-9.50888 0 -7.96232)
(-8.76248 0 -9.03643)
(-7.87719 0 -9.99817)
(-6.86526 0 -10.8407)
(-5.74148 0 -11.5564)
(-4.52305 0 -12.1372)
(-3.22934 0 -12.5753)
(-1.88148 0 -12.8643)
(-0.501908 0 -12.9991)
(0.886136 0 -12.9773)
(2.25921 0 -12.7994)
(3.59425 0 -12.4684)
(4.86912 0 -11.9899)
(6.06314 0 -11.3709)
(7.1575 0 -10.6192)
(8.13565 0 -9.74284)
(8.98351 0 -8.74925)
(9.68954 0 -7.64497)
(10.2448 0 -6.4353)
(10.6426 0 -5.12427)
(10.8789 0 -3.71478)
(10.9515 0 -2.20898)
(10.8607 0 -0.609048)
(10.6094 0 1.08171)
(10.203 0 2.85716)
(9.65015 0 4.70633)
(8.96162 0 6.61221)
(8.14983 0 8.55142)
(7.2286 0 10.4941)
(6.21249 0 12.4032)
(5.11681 0 14.2299)
(3.95237 0 15.8948)
(2.69119 0 17.2541)
(1.27417 0 18.1132)
(-0.26961 0 18.3372)
(-1.78396 0 17.8945)
(-3.1446 0 16.8498)
(-4.36713 0 15.3697)
(-5.50913 0 13.641)
(-6.58113 0 11.7828)
(-7.56853 0 9.86069)
(-8.45647 0 7.91838)
(-9.23055 0 5.99043)
(-9.87739 0 4.10441)
(-10.3851 0 2.28152)
(-10.7435 0 0.536613)
(-10.9451 0 -1.12122)
(-10.9852 0 -2.68716)
(-10.8619 0 -4.15858)
(-10.5756 0 -5.53356)
(-10.129 0 -6.80991)
(-9.52713 0 -7.98452)
(-8.77712 0 -9.05306)
(-7.88868 0 -10.0099)
(-6.87404 0 -10.8483)
(-5.74796 0 -11.5605)
(-4.52759 0 -12.1385)
(-3.23223 0 -12.5747)
(-1.88294 0 -12.8623)
(-0.502076 0 -12.9965)
(0.793461 0 -14.2879)
(2.02157 0 -14.0846)
(3.21302 0 -13.7067)
(4.34657 0 -13.161)
(5.40257 0 -12.4563)
(6.36333 0 -11.6024)
(7.21354 0 -10.6099)
(7.94041 0 -9.48862)
(8.53384 0 -8.24781)
(8.98633 0 -6.89521)
(9.2929 0 -5.43723)
(9.45098 0 -3.87898)
(9.46028 0 -2.22478)
(9.32278 0 -0.478957)
(9.04282 0 1.35289)
(8.62722 0 3.26233)
(8.08527 0 5.23639)
(7.42837 0 7.25654)
(6.66978 0 9.2981)
(5.82471 0 11.3299)
(4.91046 0 13.3136)
(3.94709 0 15.2007)
(2.95846 0 16.9209)
(1.9599 0 18.3532)
(0.939532 0 19.3087)
(-0.109764 0 19.5967)
(-1.15429 0 19.1473)
(-2.16783 0 18.0658)
(-3.16357 0 16.5532)
(-4.14788 0 14.7851)
(-5.10134 0 12.8688)
(-6.00064 0 10.8676)
(-6.82646 0 8.82728)
(-7.56197 0 6.78453)
(-8.19239 0 4.76906)
(-8.70486 0 2.80426)
(-9.08841 0 0.90748)
(-9.33428 0 -0.909322)
(-9.43619 0 -2.63837)
(-9.39039 0 -4.27435)
(-9.19543 0 -5.81286)
(-8.85218 0 -7.24929)
(-8.36381 0 -8.57813)
(-7.73597 0 -9.79254)
(-6.97685 0 -10.8843)
(-6.09732 0 -11.8439)
(-5.11089 0 -12.6612)
(-4.0336 0 -13.3258)
(-2.88378 0 -13.8279)
(-1.68163 0 -14.1593)
(-0.44881 0 -14.314)
(0.792222 0 -14.289)
(2.01876 0 -14.0848)
(3.2085 0 -13.7053)
(4.34015 0 -13.1572)
(5.39397 0 -12.4492)
(6.35224 0 -11.5914)
(7.19959 0 -10.594)
(7.92325 0 -9.46734)
(8.51309 0 -8.22037)
(8.96164 0 -6.86099)
(9.26395 0 -5.39567)
(9.4175 0 -3.82962)
(9.42206 0 -2.1673)
(9.27972 0 -0.413235)
(8.99491 0 1.42673)
(8.5746 0 3.34379)
(8.0282 0 5.32463)
(7.36724 0 7.35026)
(6.60509 0 9.39558)
(5.75708 0 11.429)
(4.84067 0 13.4117)
(3.87615 0 15.2945)
(2.88749 0 17.0051)
(1.88868 0 18.4183)
(0.866675 0 19.3427)
(-0.183523 0 19.5909)
(-1.2266 0 19.1034)
(-2.2388 0 17.9941)
(-3.23455 0 16.4655)
(-4.21857 0 14.6896)
(-5.17057 0 12.7699)
(-6.06747 0 10.7685)
(-6.89016 0 8.73047)
(-7.62193 0 6.69198)
(-8.24816 0 4.68237)
(-8.75607 0 2.7246)
(-9.13484 0 0.835599)
(-9.37581 0 -0.973049)
(-9.47288 0 -2.69389)
(-9.42235 0 -4.32183)
(-9.2229 0 -5.85266)
(-8.87543 0 -7.28191)
(-8.38319 0 -8.60413)
(-7.75182 0 -9.81256)
(-6.98956 0 -10.899)
(-6.10725 0 -11.8541)
(-5.11838 0 -12.6675)
(-4.03898 0 -13.329)
(-2.88729 0 -13.8289)
(-1.68348 0 -14.1588)
(-0.449094 0 -14.3128)
(0.689232 0 -15.4455)
(1.755 0 -15.2172)
(2.78614 0 -14.7932)
(3.76274 0 -14.1814)
(4.66647 0 -13.3925)
(5.48108 0 -12.4386)
(6.19272 0 -11.3327)
(6.79017 0 -10.0874)
(7.26487 0 -8.71447)
(7.61096 0 -7.22435)
(7.82514 0 -5.62591)
(7.90655 0 -3.92664)
(7.85666 0 -2.13317)
(7.67921 0 -0.252109)
(7.38017 0 1.70864)
(6.96778 0 3.73827)
(6.45247 0 5.82167)
(5.8467 0 7.93827)
(5.16489 0 10.0613)
(4.42373 0 12.1574)
(3.64263 0 14.1849)
(2.84463 0 16.0917)
(2.05749 0 17.8061)
(1.3084 0 19.2156)
(0.605804 0 20.1505)
(-0.068656 0 20.4322)
(-0.74665 0 19.9923)
(-1.45837 0 18.9333)
(-2.21698 0 17.4409)
(-3.00838 0 15.6732)
(-3.80394 0 13.7312)
(-4.57691 0 11.6812)
(-5.30515 0 9.57231)
(-5.96987 0 7.44426)
(-6.55492 0 5.32903)
(-7.0463 0 3.25202)
(-7.43199 0 1.23261)
(-7.70203 0 -0.714998)
(-7.84867 0 -2.58067)
(-7.86646 0 -4.35675)
(-7.75222 0 -6.03655)
(-7.50503 0 -7.61313)
(-7.12636 0 -9.07855)
(-6.62018 0 -10.4234)
(-5.99308 0 -11.6369)
(-5.25433 0 -12.7067)
(-4.41593 0 -13.6201)
(-3.49244 0 -14.3643)
(-2.50076 0 -14.9274)
(-1.45977 0 -15.2993)
(-0.389814 0 -15.473)
(0.687902 0 -15.445)
(1.75192 0 -15.2157)
(2.78121 0 -14.7899)
(3.75579 0 -14.1755)
(4.65727 0 -13.383)
(5.46937 0 -12.4249)
(6.17822 0 -11.3139)
(6.77258 0 -10.0628)
(7.24391 0 -8.68338)
(7.58638 0 -7.18619)
(7.79671 0 -5.58016)
(7.87413 0 -3.87292)
(7.82016 0 -2.07123)
(7.63864 0 -0.181936)
(7.33565 0 1.7868)
(6.91955 0 3.82382)
(6.40088 0 5.91362)
(5.79223 0 8.03521)
(5.10816 0 10.1614)
(4.3655 0 12.2583)
(3.58387 0 14.2838)
(2.78657 0 16.185)
(2.00164 0 17.8886)
(1.25576 0 19.279)
(0.555774 0 20.1835)
(-0.117914 0 20.4266)
(-0.797243 0 19.9497)
(-1.5119 0 18.8635)
(-2.27357 0 17.3546)
(-3.06674 0 15.5778)
(-3.86263 0 13.6313)
(-4.63477 0 11.5801)
(-5.36127 0 9.47271)
(-6.02353 0 7.34833)
(-6.60554 0 5.23849)
(-7.09343 0 3.16817)
(-7.47531 0 1.15633)
(-7.74132 0 -0.783219)
(-7.88385 0 -2.64065)
(-7.89755 0 -4.40858)
(-7.77932 0 -6.08051)
(-7.52831 0 -7.64965)
(-7.14605 0 -9.10815)
(-6.63655 0 -10.4467)
(-6.00641 0 -11.6545)
(-5.26492 0 -12.7195)
(-4.42405 0 -13.6288)
(-3.49836 0 -14.3697)
(-2.50469 0 -14.9302)
(-1.46188 0 -15.3005)
(-0.390186 0 -15.4735)
(0.576533 0 -16.4331)
(1.46699 0 -16.1815)
(2.32564 0 -15.7145)
(3.13428 0 -15.0414)
(3.87634 0 -14.1747)
(4.53731 0 -13.1287)
(5.10508 0 -11.919)
(5.57016 0 -10.5608)
(5.92572 0 -9.06862)
(6.16756 0 -7.4555)
(6.29407 0 -5.73284)
(6.30607 0 -3.91052)
(6.20668 0 -1.99746)
(6.00126 0 -0.00248588)
(5.69729 0 2.06431)
(5.30436 0 4.19)
(4.834 0 6.35744)
(4.29966 0 8.54407)
(3.71673 0 10.721)
(3.10276 0 12.8521)
(2.47796 0 14.8928)
(1.86568 0 16.787)
(1.29247 0 18.4608)
(0.783906 0 19.8091)
(0.348925 0 20.687)
(-0.0378548 0 20.9486)
(-0.431047 0 20.539)
(-0.881065 0 19.5407)
(-1.40507 0 18.1063)
(-1.98863 0 16.3729)
(-2.60506 0 14.4374)
(-3.22836 0 12.3688)
(-3.83593 0 10.2202)
(-4.40816 0 8.03425)
(-4.92798 0 5.84546)
(-5.38045 0 3.68132)
(-5.75253 0 1.56319)
(-6.03309 0 -0.49267)
(-6.21301 0 -2.47396)
(-6.28528 0 -4.37082)
(-6.24509 0 -6.17431)
(-6.08985 0 -7.87517)
(-5.81936 0 -9.463)
(-5.43588 0 -10.9258)
(-4.9443 0 -12.2502)
(-4.35219 0 -13.4211)
(-3.66977 0 -14.4231)
(-2.90986 0 -15.241)
(-2.08761 0 -15.8606)
(-1.22014 0 -16.2703)
(-0.326048 0 -16.4617)
(0.575174 0 -16.4308)
(1.46381 0 -16.1782)
(2.32054 0 -15.7092)
(3.12713 0 -15.0333)
(3.86696 0 -14.1628)
(4.5255 0 -13.1123)
(5.09063 0 -11.8973)
(5.55286 0 -10.533)
(5.90535 0 -9.03418)
(6.14398 0 -7.41381)
(6.26717 0 -5.68344)
(6.2758 0 -3.85309)
(6.17308 0 -1.93183)
(5.96445 0 0.0712553)
(5.65751 0 2.14581)
(5.26193 0 4.27854)
(4.7894 0 6.45191)
(4.25346 0 8.64293)
(3.66962 0 10.8222)
(3.05561 0 12.9533)
(2.43182 0 14.9908)
(1.8218 0 16.878)
(1.25228 0 18.5397)
(0.748416 0 19.8684)
(0.317549 0 20.7174)
(-0.0678971 0 20.9435)
(-0.463372 0 20.4996)
(-0.917889 0 19.475)
(-1.44642 0 18.0233)
(-2.03326 0 16.2794)
(-2.65157 0 14.338)
(-3.27557 0 12.2671)
(-3.88283 0 10.1192)
(-4.45393 0 7.9362)
(-4.97196 0 5.75225)
(-5.4221 0 3.59435)
(-5.79142 0 1.48348)
(-6.0689 0 -0.564529)
(-6.24554 0 -2.53768)
(-6.31444 0 -4.42639)
(-6.27085 0 -6.22193)
(-6.11229 0 -7.91519)
(-5.83859 0 -9.49591)
(-5.45208 0 -10.9522)
(-4.95767 0 -12.2707)
(-4.36294 0 -13.4364)
(-3.67813 0 -14.4341)
(-2.91602 0 -15.2484)
(-2.09175 0 -15.8654)
(-1.22238 0 -16.2733)
(-0.32648 0 -16.4639)
(0.456961 0 -17.239)
(1.16162 0 -16.9663)
(1.83801 0 -16.4605)
(2.47007 0 -15.7321)
(3.0433 0 -14.7956)
(3.54527 0 -13.6674)
(3.96584 0 -12.3656)
(4.29739 0 -10.9081)
(4.53488 0 -9.31188)
(4.67584 0 -7.59272)
(4.72026 0 -5.76443)
(4.67053 0 -3.83927)
(4.53126 0 -1.82838)
(4.30921 0 0.257268)
(4.01314 0 2.40554)
(3.65372 0 4.60156)
(3.24338 0 6.82635)
(2.79617 0 9.05554)
(2.32786 0 11.2583)
(1.85596 0 13.3962)
(1.39993 0 15.4222)
(0.981052 0 17.2781)
(0.621458 0 18.8899)
(0.339658 0 20.1612)
(0.13795 0 20.9723)
(-0.0131426 0 21.2108)
(-0.170953 0 20.8361)
(-0.388756 0 19.9097)
(-0.688326 0 18.5503)
(-1.0623 0 16.8739)
(-1.49061 0 14.9712)
(-1.9511 0 12.9121)
(-2.42284 0 10.7521)
(-2.88678 0 8.5363)
(-3.32581 0 6.30131)
(-3.72452 0 4.07656)
(-4.0692 0 1.88525)
(-4.34781 0 -0.254536)
(-4.55006 0 -2.32849)
(-4.66766 0 -4.32468)
(-4.69433 0 -6.23199)
(-4.62599 0 -8.03888)
(-4.46085 0 -9.73254)
(-4.19953 0 -11.2985)
(-3.84518 0 -12.7206)
(-3.40352 0 -13.9813)
(-2.88289 0 -15.0625)
(-2.29407 0 -15.9465)
(-1.65015 0 -16.6171)
(-0.966114 0 -17.0609)
(-0.258415 0 -17.2684)
(0.455631 0 -17.2349)
(1.15847 0 -16.9611)
(1.83298 0 -16.4532)
(2.46304 0 -15.7219)
(3.03416 0 -14.7814)
(3.53386 0 -13.6486)
(3.95202 0 -12.3413)
(4.28102 0 -10.8775)
(4.51586 0 -9.27452)
(4.6541 0 -7.54802)
(4.69579 0 -5.71199)
(4.64339 0 -3.77884)
(4.50159 0 -1.7599)
(4.27724 0 0.333627)
(3.97921 0 2.48931)
(3.61828 0 4.69193)
(3.20695 0 6.92209)
(2.75942 0 9.15499)
(2.29153 0 11.3593)
(1.82094 0 13.4962)
(1.36723 0 15.5179)
(0.951786 0 17.3655)
(0.596735 0 18.9641)
(0.320095 0 20.2157)
(0.12268 0 20.9997)
(-0.0270392 0 21.2062)
(-0.187208 0 20.8004)
(-0.409752 0 19.8489)
(-0.714408 0 18.4718)
(-1.09263 0 16.7836)
(-1.52406 0 14.8738)
(-1.98657 0 12.8114)
(-2.45935 0 10.6511)
(-2.92349 0 8.43746)
(-3.36198 0 6.20665)
(-3.75954 0 3.98762)
(-4.10255 0 1.80313)
(-4.37907 0 -0.32911)
(-4.57894 0 -2.39513)
(-4.69393 0 -4.38328)
(-4.71789 0 -6.28267)
(-4.64679 0 -8.08193)
(-4.47891 0 -9.76838)
(-4.21493 0 -11.3277)
(-3.85804 0 -12.7437)
(-3.41399 0 -13.9991)
(-2.89111 0 -15.0758)
(-2.3002 0 -15.9561)
(-1.6543 0 -16.6239)
(-0.96839 0 -17.0658)
(-0.258879 0 -17.2724)
(0.331811 0 -17.8536)
(0.842211 0 -17.5626)
(1.32855 0 -17.023)
(1.77727 0 -16.2467)
(2.17635 0 -15.2499)
(2.51563 0 -14.0513)
(2.78717 0 -12.6711)
(2.98535 0 -11.1298)
(3.10698 0 -9.44708)
(3.15124 0 -7.64089)
(3.11965 0 -5.72754)
(3.01597 0 -3.72153)
(2.84607 0 -1.63614)
(2.61782 0 0.51564)
(2.34095 0 2.7198)
(2.02685 0 4.95977)
(1.68839 0 7.215)
(1.33973 0 9.45962)
(0.9963 0 11.6613)
(0.674606 0 13.7802)
(0.392062 0 15.768)
(0.166322 0 17.5661)
(0.0135757 0 19.1034)
(-0.0558891 0 20.2936)
(-0.0472555 0 21.0392)
(0.00823055 0 21.256)
(0.0575629 0 20.9144)
(0.0508789 0 20.0592)
(-0.0369185 0 18.7809)
(-0.206549 0 17.1757)
(-0.445794 0 15.3264)
(-0.737881 0 13.3011)
(-1.0651 0 11.1559)
(-1.4102 0 8.93724)
(-1.75688 0 6.68321)
(-2.08996 0 4.42472)
(-2.39555 0 2.18648)
(-2.66109 0 -0.0118126)
(-2.87551 0 -2.15411)
(-3.02952 0 -4.22656)
(-3.11568 0 -6.21598)
(-3.12861 0 -8.10866)
(-3.06512 0 -9.88947)
(-2.92425 0 -11.5415)
(-2.70743 0 -13.0462)
(-2.41852 0 -14.3834)
(-2.06375 0 -15.5326)
(-1.65171 0 -16.4738)
(-1.1931 0 -17.1886)
(-0.700445 0 -17.6621)
(-0.187646 0 -17.8835)
(0.330564 0 -17.8477)
(0.839228 0 -17.5556)
(1.32378 0 -17.0138)
(1.77066 0 -16.2345)
(2.1678 0 -15.2337)