/*--------------------------------*- C++ -*----------------------------------*\
| =========                 |                                                 |
| \\      /  F ield         | OpenFOAM: The Open Source CFD Toolbox           |
|  \\    /   O peration     | Version:  2.3.0                                 |
|   \\  /    A nd           | Web:      www.OpenFOAM.org                      |
|    \\/     M anipulation  |                                                 |
\*---------------------------------------------------------------------------*/
FoamFile
{
    version     2.0;
    format      ascii;
    class       volVectorField;
    location    "21000";
    object      U;
}
// * * * * * * * * * * * * * * * * * * * * * * * * * * * * * * * * * * * * * //

dimensions      [0 1 -1 0 0 0 0];

internalField   nonuniform List<vector> 
3060
(
(0.611515 0 -0.408843)
(1.56092 0 -0.394823)
(2.48678 0 -0.368967)
(3.3757 0 -0.331946)
(4.21543 0 -0.284847)
(4.99507 0 -0.229506)
(5.70529 0 -0.168795)
(6.33842 0 -0.106613)
(6.88814 0 -0.0473117)
(7.34859 0 0.00533878)
(7.71283 0 0.0490735)
(7.97095 0 0.083375)
(8.10862 0 0.10902)
(8.10638 0 0.127306)
(7.94279 0 0.140969)
(7.59875 0 0.156344)
(7.06872 0 0.179)
(6.3671 0 0.204547)
(5.52976 0 0.220174)
(4.61393 0 0.217947)
(3.68259 0 0.20045)
(2.79035 0 0.17324)
(1.97315 0 0.143963)
(1.23857 0 0.119547)
(0.569578 0 0.104233)
(-0.0656024 0 0.0997731)
(-0.704719 0 0.106545)
(-1.38488 0 0.123959)
(-2.13564 0 0.149833)
(-2.96961 0 0.17931)
(-3.8733 0 0.205111)
(-4.80564 0 0.219759)
(-5.70937 0 0.218228)
(-6.52134 0 0.199494)
(-7.18771 0 0.173604)
(-7.67744 0 0.152517)
(-7.98015 0 0.138056)
(-8.10539 0 0.123576)
(-8.07317 0 0.103604)
(-7.90515 0 0.0759062)
(-7.61974 0 0.0392584)
(-7.2303 0 -0.00685372)
(-6.74605 0 -0.0615008)
(-6.17364 0 -0.121987)
(-5.51906 0 -0.184282)
(-4.78902 0 -0.244042)
(-3.99171 0 -0.297571)
(-3.13694 0 -0.342254)
(-2.23606 0 -0.376463)
(-1.30172 0 -0.399237)
(-0.347616 0 -0.409963)
(0.611812 0 -0.40823)
(1.56188 0 -0.39413)
(2.48832 0 -0.368131)
(3.37769 0 -0.330915)
(4.21769 0 -0.283592)
(4.99736 0 -0.228034)
(5.70733 0 -0.167165)
(6.33987 0 -0.104928)
(6.88856 0 -0.0456941)
(7.3474 0 0.00678962)
(7.70921 0 0.0503076)
(7.96377 0 0.0843896)
(8.09639 0 0.10984)
(8.08728 0 0.127972)
(7.915 0 0.14168)
(7.56081 0 0.157518)
(7.02047 0 0.180661)
(6.3098 0 0.205966)
(5.46637 0 0.220524)
(4.54842 0 0.21715)
(3.61882 0 0.198795)
(2.73135 0 0.17121)
(1.92022 0 0.142074)
(1.19111 0 0.118181)
(0.525667 0 0.103576)
(-0.108534 0 0.0998814)
(-0.749385 0 0.10741)
(-1.43373 0 0.125498)
(-2.19029 0 0.151809)
(-3.03016 0 0.181288)
(-3.93793 0 0.206571)
(-4.87102 0 0.220276)
(-5.77151 0 0.217532)
(-6.57641 0 0.197908)
(-7.23322 0 0.172028)
(-7.71253 0 0.151499)
(-8.00536 0 0.137401)
(-8.12239 0 0.122883)
(-8.08379 0 0.102729)
(-7.91115 0 0.0748252)
(-7.6225 0 0.0379516)
(-7.23087 0 -0.0083721)
(-6.74515 0 -0.0631655)
(-6.17182 0 -0.123687)
(-5.51672 0 -0.185897)
(-4.7865 0 -0.245476)
(-3.98926 0 -0.29878)
(-3.1348 0 -0.34324)
(-2.23439 0 -0.377263)
(-1.30065 0 -0.399907)
(-0.347217 0 -0.410568)
(0.922211 0 -1.66341)
(2.36141 0 -1.64221)
(3.78408 0 -1.60337)
(5.18087 0 -1.54847)
(6.54332 0 -1.47933)
(7.86353 0 -1.39743)
(9.13312 0 -1.30328)
(10.3416 0 -1.19594)
(11.4749 0 -1.07269)
(12.5136 0 -0.928952)
(13.4333 0 -0.75818)
(14.2041 0 -0.551748)
(14.7903 0 -0.299384)
(15.1502 0 0.00832968)
(15.2346 0 0.369838)
(14.9889 0 0.755601)
(14.3701 0 1.11242)
(13.3645 0 1.39842)
(11.9934 0 1.59212)
(10.3357 0 1.68711)
(8.51028 0 1.68374)
(6.63646 0 1.59527)
(4.81008 0 1.46322)
(3.07698 0 1.33588)
(1.43202 0 1.24952)
(-0.164182 0 1.22342)
(-1.76604 0 1.26265)
(-3.42629 0 1.35944)
(-5.17891 0 1.49109)
(-7.01937 0 1.61795)
(-8.89061 0 1.69124)
(-10.6891 0 1.67372)
(-12.2932 0 1.55763)
(-13.5891 0 1.34305)
(-14.51 0 1.03903)
(-15.0442 0 0.670907)
(-15.2114 0 0.285235)
(-15.0596 0 -0.0670155)
(-14.643 0 -0.363144)
(-14.0093 0 -0.605374)
(-13.199 0 -0.803773)
(-12.2464 0 -0.968374)
(-11.1806 0 -1.10737)
(-10.0251 0 -1.22687)
(-8.79786 0 -1.33105)
(-7.51229 0 -1.42222)
(-6.17828 0 -1.50099)
(-4.80406 0 -1.56655)
(-3.3977 0 -1.61731)
(-1.96791 0 -1.6515)
(-0.524299 0 -1.66767)
(0.923011 0 -1.66507)
(2.36382 0 -1.64382)
(3.78807 0 -1.6049)
(5.18641 0 -1.54987)
(6.55034 0 -1.48054)
(7.87187 0 -1.39832)
(9.14246 0 -1.30369)
(10.3514 0 -1.19559)
(11.4843 0 -1.0712)
(12.5214 0 -0.925831)
(13.4378 0 -0.752803)
(14.2031 0 -0.543366)
(14.7812 0 -0.287195)
(15.1298 0 0.0248796)
(15.1991 0 0.390066)
(14.9345 0 0.776639)
(14.2944 0 1.13078)
(13.2669 0 1.41187)
(11.8767 0 1.59962)
(10.2065 0 1.68845)
(8.37627 0 1.67885)
(6.50483 0 1.58621)
(4.68522 0 1.45328)
(2.95964 0 1.328)
(1.32 0 1.24554)
(-0.274697 0 1.22409)
(-1.87922 0 1.26783)
(-3.54563 0 1.36814)
(-5.30592 0 1.50112)
(-7.15229 0 1.62615)
(-9.02409 0 1.69452)
(-10.8157 0 1.6707)
(-12.4052 0 1.54845)
(-13.6807 0 1.32809)
(-14.5797 0 1.01964)
(-15.093 0 0.649666)
(-15.2421 0 0.265768)
(-15.0764 0 -0.0824176)
(-14.6494 0 -0.374257)
(-14.0083 0 -0.612891)
(-13.1931 0 -0.8085)
(-12.2378 0 -0.971029)
(-11.1707 0 -1.10854)
(-10.015 0 -1.22701)
(-8.78838 0 -1.33052)
(-7.5039 0 -1.42126)
(-6.17124 0 -1.49975)
(-4.79851 0 -1.56513)
(-3.3937 0 -1.61577)
(-1.9655 0 -1.64988)
(-0.523493 0 -1.66601)
(1.03364 0 -3.16401)
(2.6456 0 -3.13023)
(4.23586 0 -3.0679)
(5.79125 0 -2.9788)
(7.29862 0 -2.86483)
(8.74456 0 -2.72714)
(10.1151 0 -2.56535)
(11.3954 0 -2.37697)
(12.5699 0 -2.15728)
(13.6224 0 -1.89967)
(14.5367 0 -1.59607)
(15.2977 0 -1.23736)
(15.8925 0 -0.814146)
(16.3113 0 -0.317926)
(16.5463 0 0.258809)
(16.5791 0 0.924312)
(16.3516 0 1.67848)
(15.7646 0 2.47227)
(14.7226 0 3.17061)
(13.1788 0 3.6269)
(11.2062 0 3.81981)
(8.96523 0 3.79499)
(6.62629 0 3.62978)
(4.29826 0 3.42882)
(2.01753 0 3.28012)
(-0.230357 0 3.23361)
(-2.48201 0 3.30284)
(-4.7716 0 3.46712)
(-7.10552 0 3.66824)
(-9.43329 0 3.8118)
(-11.631 0 3.79569)
(-13.5222 0 3.54928)
(-14.9595 0 3.03513)
(-15.8956 0 2.30115)
(-16.3947 0 1.50625)
(-16.556 0 0.768079)
(-16.4734 0 0.120824)
(-16.1943 0 -0.439335)
(-15.7329 0 -0.920362)
(-15.097 0 -1.32986)
(-14.2971 0 -1.6766)
(-13.3467 0 -1.96998)
(-12.2614 0 -2.21895)
(-11.0577 0 -2.43132)
(-9.75165 0 -2.61333)
(-8.35888 0 -2.76924)
(-6.89408 0 -2.90104)
(-5.3712 0 -3.00872)
(-3.80367 0 -3.0909)
(-2.20472 0 -3.14567)
(-0.5876 0 -3.17141)
(1.03435 0 -3.16728)
(2.64779 0 -3.13341)
(4.2394 0 -3.0709)
(5.79595 0 -2.98151)
(7.30417 0 -2.86708)
(8.75053 0 -2.72871)
(10.1209 0 -2.56589)
(11.4003 0 -2.37601)
(12.573 0 -2.15424)
(13.6227 0 -1.89384)
(14.533 0 -1.58665)
(15.2889 0 -1.22351)
(15.8775 0 -0.795069)
(16.2893 0 -0.292935)
(16.5163 0 0.29034)
(16.5385 0 0.962964)
(16.2946 0 1.72319)
(15.6843 0 2.51688)
(14.6129 0 3.2039)
(13.0402 0 3.64308)
(11.0469 0 3.82045)
(8.79705 0 3.78416)
(6.45831 0 3.61398)
(4.13452 0 3.41494)
(1.85772 0 3.27281)
(-0.388983 0 3.23485)
(-2.64272 0 3.31231)
(-4.93667 0 3.48215)
(-7.27423 0 3.68343)
(-9.60015 0 3.81996)
(-11.7857 0 3.79109)
(-13.6534 0 3.52843)
(-15.0607 0 2.99759)
(-15.9688 0 2.25546)
(-16.4463 0 1.46279)
(-16.593 0 0.731329)
(-16.5009 0 0.0910854)
(-16.214 0 -0.462711)
(-15.7458 0 -0.937998)
(-15.104 0 -1.34248)
(-14.2993 0 -1.68502)
(-13.3452 0 -1.97504)
(-12.2574 0 -2.22142)
(-11.0521 0 -2.43187)
(-9.74532 0 -2.61252)
(-8.35253 0 -2.7675)
(-6.88827 0 -2.89869)
(-5.36632 0 -3.00595)
(-3.79999 0 -3.08786)
(-2.20243 0 -3.14247)
(-0.586797 0 -3.16814)
(1.08155 0 -4.83597)
(2.76628 0 -4.78374)
(4.42313 0 -4.68685)
(6.03522 0 -4.54713)
(7.58579 0 -4.36645)
(9.05821 0 -4.14596)
(10.4361 0 -3.88544)
(11.7036 0 -3.58295)
(12.8457 0 -3.23484)
(13.8483 0 -2.83615)
(14.699 0 -2.38097)
(15.3872 0 -1.8627)
(15.9041 0 -1.27413)
(16.2426 0 -0.606654)
(16.3958 0 0.152391)
(16.3559 0 1.02136)
(16.114 0 2.01027)
(15.6584 0 3.09247)
(14.9467 0 4.20129)
(13.8561 0 5.21908)
(12.2341 0 5.92672)
(10.0981 0 6.19413)
(7.62694 0 6.14232)
(5.01667 0 5.95511)
(2.37383 0 5.78836)
(-0.269993 0 5.7331)
(-2.91364 0 5.81414)
(-5.55285 0 5.99359)
(-8.1443 0 6.16571)
(-10.5611 0 6.16484)
(-12.5989 0 5.80899)
(-14.1006 0 5.0151)
(-15.0947 0 3.96222)
(-15.7425 0 2.85031)
(-16.1482 0 1.78186)
(-16.343 0 0.816118)
(-16.3375 0 -0.0295531)
(-16.1401 0 -0.769272)
(-15.7585 0 -1.42046)
(-15.1996 0 -1.99455)
(-14.4708 0 -2.49966)
(-13.5812 0 -2.9428)
(-12.5422 0 -3.33041)
(-11.3665 0 -3.66824)
(-10.0686 0 -3.961)
(-8.66394 0 -4.21196)
(-7.16857 0 -4.42269)
(-5.5991 0 -4.59307)
(-3.97235 0 -4.72174)
(-2.30522 0 -4.80684)
(-0.614737 0 -4.84665)
(1.08197 0 -4.84026)
(2.76772 0 -4.78783)
(4.42541 0 -4.69054)
(6.03805 0 -4.55018)
(7.58875 0 -4.36858)
(9.06077 0 -4.14681)
(10.4376 0 -3.88454)
(11.7033 0 -3.57974)
(12.8426 0 -3.22869)
(13.8416 0 -2.82634)
(14.6879 0 -2.36674)
(15.3706 0 -1.8433)
(15.8813 0 -1.2488)
(16.2127 0 -0.574548)
(16.3579 0 0.192404)
(16.3091 0 1.07052)
(16.0572 0 2.06827)
(15.5901 0 3.15608)
(14.8611 0 4.26486)
(13.7419 0 5.27118)
(12.0851 0 5.95117)
(9.92254 0 6.19301)
(7.43886 0 6.1277)
(4.8259 0 5.93903)
(2.18362 0 5.77927)
(-0.45984 0 5.73467)
(-3.10408 0 5.82577)
(-5.74346 0 6.01035)
(-8.33026 0 6.17787)
(-10.7306 0 6.15992)
(-12.7386 0 5.77609)
(-14.2056 0 4.9581)
(-15.1745 0 3.89778)
(-15.8071 0 2.78769)
(-16.2019 0 1.72599)
(-16.387 0 0.769457)
(-16.3728 0 -0.0673441)
(-16.1677 0 -0.799506)
(-15.7793 0 -1.44417)
(-15.2143 0 -2.01254)
(-14.4803 0 -2.51269)
(-13.5865 0 -2.95163)
(-12.544 0 -3.33579)
(-11.3659 0 -3.67084)
(-10.0664 0 -3.96145)
(-8.66075 0 -4.21079)
(-7.1651 0 -4.42034)
(-5.59588 0 -4.58987)
(-3.96975 0 -4.71796)
(-2.30352 0 -4.80269)
(-0.614073 0 -4.84234)
(1.09124 0 -6.56044)
(2.78945 0 -6.48744)
(4.45521 0 -6.35165)
(6.06906 0 -6.15511)
(7.61199 0 -5.89993)
(9.06562 0 -5.58764)
(10.4125 0 -5.21863)
(11.6364 0 -4.79178)
(12.7227 0 -4.30451)
(13.6583 0 -3.75313)
(14.432 0 -3.13317)
(15.0342 0 -2.43969)
(15.4569 0 -1.6673)
(15.6931 0 -0.809564)
(15.7376 0 0.142302)
(15.5896 0 1.19931)
(15.2555 0 2.36766)
(14.7432 0 3.63951)
(14.0473 0 4.99177)
(13.1405 0 6.35712)
(11.9266 0 7.5787)
(10.2172 0 8.41468)
(7.94837 0 8.71937)
(5.32457 0 8.68409)
(2.54419 0 8.56699)
(-0.288557 0 8.5208)
(-3.11533 0 8.58613)
(-5.87327 0 8.70074)
(-8.44064 0 8.68658)
(-10.6034 0 8.27674)
(-12.1912 0 7.33691)
(-13.3255 0 6.06633)
(-14.1811 0 4.69207)
(-14.8342 0 3.35174)
(-15.3059 0 2.09838)
(-15.598 0 0.951388)
(-15.7016 0 -0.084551)
(-15.6118 0 -1.01754)
(-15.3308 0 -1.85828)
(-14.8643 0 -2.61489)
(-14.2195 0 -3.29343)
(-13.4049 0 -3.89912)
(-12.4305 0 -4.43676)
(-11.308 0 -4.91065)
(-10.0509 0 -5.32428)
(-8.67451 0 -5.67991)
(-7.19539 0 -5.9783)
(-5.63143 0 -6.21881)
(-4.00131 0 -6.39973)
(-2.32431 0 -6.51895)
(-0.620128 0 -6.57462)
(1.09131 0 -6.56569)
(2.78998 0 -6.49236)
(4.456 0 -6.35592)
(6.06978 0 -6.15836)
(7.61218 0 -5.90176)
(9.06472 0 -5.58756)
(10.4098 0 -5.21607)
(11.6312 0 -4.78609)
(12.7141 0 -4.29498)
(13.6456 0 -3.739)
(14.4143 0 -3.11367)
(15.0106 0 -2.4141)
(15.4266 0 -1.6349)
(15.6554 0 -0.769631)
(15.6917 0 0.19059)
(15.5353 0 1.25671)
(15.1929 0 2.43416)
(14.6721 0 3.7141)
(13.9662 0 5.07195)
(13.0456 0 6.43524)
(11.8073 0 7.64089)
(10.0602 0 8.44333)
(7.76172 0 8.71819)
(5.12378 0 8.67211)
(2.33853 0 8.55869)
(-0.4952 0 8.52228)
(-3.32015 0 8.59644)
(-6.07141 0 8.71159)
(-8.62072 0 8.68128)
(-10.7495 0 8.23769)
(-12.3022 0 7.2685)
(-13.4157 0 5.98642)
(-14.2591 0 4.61287)
(-14.9027 0 3.27911)
(-15.3661 0 2.03421)
(-15.6498 0 0.896439)
(-15.745 0 -0.130555)
(-15.6472 0 -1.05543)
(-15.3589 0 -1.88885)
(-14.8859 0 -2.63886)
(-14.2355 0 -3.31151)
(-13.416 0 -3.91205)
(-12.4376 0 -4.44529)
(-11.312 0 -4.91553)
(-10.0526 0 -5.32621)
(-8.67458 0 -5.67951)
(-7.1945 0 -5.97613)
(-5.63012 0 -6.21531)
(-4.00002 0 -6.39531)
(-2.32334 0 -6.51394)
(-0.619652 0 -6.56933)
(1.07094 0 -8.2562)
(2.73614 0 -8.1592)
(4.36578 0 -7.9786)
(5.93869 0 -7.71697)
(7.43451 0 -7.37719)
(8.83395 0 -6.96187)
(10.1191 0 -6.47279)
(11.2738 0 -5.91059)
(12.2838 0 -5.27462)
(13.1369 0 -4.56314)
(13.823 0 -3.77351)
(14.3335 0 -2.90233)
(14.6617 0 -1.9455)
(14.8024 0 -0.897956)
(14.7526 0 0.246352)
(14.5138 0 1.49306)
(14.0935 0 2.84186)
(13.5026 0 4.28101)
(12.7512 0 5.78948)
(11.8437 0 7.33662)
(10.7602 0 8.85468)
(9.40134 0 10.1734)
(7.57479 0 11.0371)
(5.21298 0 11.3646)
(2.52738 0 11.4065)
(-0.286372 0 11.3973)
(-3.08559 0 11.4039)
(-5.72208 0 11.3241)
(-7.98366 0 10.8969)
(-9.69579 0 9.91755)
(-10.9811 0 8.53501)
(-12.0215 0 6.99939)
(-12.8934 0 5.45445)
(-13.6091 0 3.95616)
(-14.1618 0 2.53209)
(-14.541 0 1.2018)
(-14.7363 0 -0.0254269)
(-14.7414 0 -1.15106)
(-14.5559 0 -2.18101)
(-14.1835 0 -3.12109)
(-13.6297 0 -3.97604)
(-12.9018 0 -4.74971)
(-12.0086 0 -5.44529)
(-10.961 0 -6.06518)
(-9.77168 0 -6.61087)
(-8.45546 0 -7.0827)
(-7.02911 0 -7.47977)
(-5.51103 0 -7.80008)
(-3.92095 0 -8.04093)
(-2.27962 0 -8.19951)
(-0.608469 0 -8.2735)
(1.07064 0 -8.26164)
(2.73574 0 -8.16415)
(4.36505 0 -7.98262)
(5.93731 0 -7.71957)
(7.43201 0 -7.37785)
(8.82977 0 -6.96)
(10.1126 0 -6.46775)
(11.2642 0 -5.90166)
(12.2704 0 -5.26105)
(13.119 0 -4.54418)
(13.7997 0 -3.74839)
(14.3041 0 -2.87034)
(14.6255 0 -1.90594)
(14.7586 0 -0.850189)
(14.7008 0 0.30292)
(14.4538 0 1.55876)
(14.0256 0 2.91636)
(13.427 0 4.36314)
(12.6679 0 5.87758)
(11.7522 0 7.4277)
(10.6567 0 8.94127)
(9.27439 0 10.2393)
(7.41125 0 11.0666)
(5.02067 0 11.3676)
(2.32205 0 11.4032)
(-0.494772 0 11.3981)
(-3.28845 0 11.407)
(-5.90823 0 11.316)
(-8.13652 0 10.8569)
(-9.81472 0 9.84399)
(-11.0804 0 8.44578)
(-12.1105 0 6.90856)
(-12.9744 0 5.36769)
(-13.6825 0 3.87587)
(-14.2274 0 2.45981)
(-14.5986 0 1.13849)
(-14.7857 0 -0.0796419)
(-14.7828 0 -1.19663)
(-14.59 0 -2.21857)
(-14.2109 0 -3.15128)
(-13.6511 0 -3.99955)
(-12.918 0 -4.76728)
(-12.0205 0 -5.45767)
(-10.9692 0 -6.07313)
(-9.77703 0 -6.61513)
(-8.45864 0 -7.08395)
(-7.03074 0 -7.47864)
(-5.51166 0 -7.79713)
(-3.92101 0 -8.03668)
(-2.27942 0 -8.19442)
(-0.608196 0 -8.26802)
(1.02606 0 -9.90243)
(2.62024 0 -9.77985)
(4.17704 0 -9.55163)
(5.67439 0 -9.22108)
(7.09132 0 -8.79218)
(8.40824 0 -8.26897)
(9.60733 0 -7.65499)
(10.6728 0 -6.95284)
(11.5912 0 -6.16403)
(12.3511 0 -5.28889)
(12.9435 0 -4.32675)
(13.361 0 -3.27604)
(13.5986 0 -2.13446)
(13.6527 0 -0.899252)
(13.5228 0 0.432252)
(13.2121 0 1.86099)
(12.7282 0 3.38265)
(12.0819 0 4.9847)
(11.2847 0 6.64647)
(10.3477 0 8.33802)
(9.2774 0 10.0152)
(8.05486 0 11.5975)
(6.57011 0 12.9082)
(4.65106 0 13.7282)
(2.29897 0 14.0699)
(-0.2605 0 14.1399)
(-2.79647 0 14.0238)
(-5.0736 0 13.5957)
(-6.89128 0 12.6607)
(-8.3056 0 11.2709)
(-9.48985 0 9.65594)
(-10.5302 0 7.9686)
(-11.4363 0 6.27751)
(-12.2001 0 4.62342)
(-12.8101 0 3.03396)
(-13.2548 0 1.52823)
(-13.524 0 0.117017)
(-13.6108 0 -1.19669)
(-13.513 0 -2.41433)
(-13.232 0 -3.53857)
(-12.7716 0 -4.572)
(-12.1376 0 -5.51667)
(-11.3376 0 -6.37386)
(-10.3813 0 -7.14398)
(-9.28078 0 -7.82638)
(-8.05012 0 -8.41926)
(-6.70576 0 -8.91977)
(-5.26612 0 -9.32423)
(-3.75131 0 -9.62859)
(-2.18275 0 -9.82901)
(-0.582853 0 -9.92251)
(1.02542 0 -9.90753)
(2.61895 0 -9.78432)
(4.17489 0 -9.55489)
(5.67107 0 -9.22253)
(7.08637 0 -8.79118)
(8.40114 0 -8.26485)
(9.59747 0 -7.64703)
(10.6596 0 -6.94029)
(11.5738 0 -6.14611)
(12.3289 0 -5.26483)
(12.9158 0 -4.2958)
(13.3272 0 -3.23751)
(13.5579 0 -2.08773)
(13.6048 0 -0.843808)
(13.4672 0 0.496762)
(13.1487 0 1.9346)
(12.6573 0 3.46484)
(12.0038 0 5.07433)
(11.1996 0 6.74184)
(10.2559 0 8.43655)
(9.17848 0 10.1131)
(7.94465 0 11.6865)
(6.43665 0 12.9722)
(4.48512 0 13.7582)
(2.11152 0 14.0781)
(-0.453268 0 14.1389)
(-2.97969 0 14.0112)
(-5.23068 0 13.5568)
(-7.01691 0 12.5881)
(-8.41169 0 11.1781)
(-9.58655 0 9.55719)
(-10.6201 0 7.87051)
(-11.5194 0 6.18339)
(-12.2762 0 4.53555)
(-12.8788 0 2.9539)
(-13.3158 0 1.45696)
(-13.5772 0 0.0548774)
(-13.6565 0 -1.24986)
(-13.5515 0 -2.45893)
(-13.2639 0 -3.57514)
(-12.7974 0 -4.60119)
(-12.1581 0 -5.53917)
(-11.3534 0 -6.39043)
(-10.3932 0 -7.15539)
(-9.28938 0 -7.83339)
(-8.0561 0 -8.42261)
(-6.70972 0 -8.92017)
(-5.26856 0 -9.32234)
(-3.75265 0 -9.62502)
(-2.1833 0 -9.82436)
(-0.582781 0 -9.91736)
(0.961289 0 -11.4599)
(2.45369 0 -11.3108)
(3.90804 0 -11.0335)
(5.30203 0 -10.632)
(6.61465 0 -10.1118)
(7.82654 0 -9.47872)
(8.92041 0 -8.73827)
(9.8812 0 -7.89535)
(10.6963 0 -6.95379)
(11.3555 0 -5.91626)
(11.851 0 -4.78421)
(12.177 0 -3.55813)
(12.33 0 -2.23777)
(12.3084 0 -0.822738)
(12.1135 0 0.68656)
(11.7496 0 2.28729)
(11.2248 0 3.97166)
(10.5494 0 5.72512)
(9.7354 0 7.5263)
(8.79536 0 9.34685)
(7.7406 0 11.1495)
(6.57862 0 12.8794)
(5.28432 0 14.4342)
(3.74926 0 15.6311)
(1.88023 0 16.3128)
(-0.212679 0 16.4926)
(-2.27825 0 16.2108)
(-4.0783 0 15.4143)
(-5.55131 0 14.1226)
(-6.81069 0 12.516)
(-7.94885 0 10.7619)
(-8.97855 0 8.94891)
(-9.89096 0 7.1266)
(-10.6743 0 5.33016)
(-11.316 0 3.58637)
(-11.8045 0 1.91531)
(-12.1295 0 0.330115)
(-12.284 0 -1.16252)
(-12.2642 0 -2.56038)
(-12.0696 0 -3.8632)
(-11.7023 0 -5.0713)
(-11.1663 0 -6.18464)
(-10.4679 0 -7.20244)
(-9.61559 0 -8.12289)
(-8.62022 0 -8.94297)
(-7.49511 0 -9.65856)
(-6.25599 0 -10.2646)
(-4.92083 0 -10.7553)
(-3.50956 0 -11.125)
(-2.04371 0 -11.3686)
(-0.54595 0 -11.4823)
(0.960347 0 -11.4641)
(2.45162 0 -11.3143)
(3.90465 0 -11.0355)
(5.29702 0 -10.6318)
(6.60761 0 -10.1087)
(7.817 0 -9.47194)
(8.9078 0 -8.72705)
(9.86494 0 -7.8789)
(10.6758 0 -6.93132)
(11.3302 0 -5.887)
(11.8202 0 -4.74744)
(12.1402 0 -3.51319)
(12.2866 0 -2.18413)
(12.2582 0 -0.76001)
(12.0562 0 0.758528)
(11.6852 0 2.36829)
(11.1534 0 4.061)
(10.4714 0 5.82156)
(9.65112 0 7.62811)
(8.70525 0 9.45173)
(7.64491 0 11.2545)
(6.47702 0 12.9794)
(5.17169 0 14.5196)
(3.616 0 15.6878)
(1.72568 0 16.3368)
(-0.37364 0 16.489)
(-2.42793 0 16.1781)
(-4.20505 0 15.3485)
(-5.65989 0 14.0318)
(-6.91037 0 12.4138)
(-8.04293 0 10.6564)
(-9.067 0 8.84449)
(-9.97347 0 7.02593)
(-10.7505 0 5.23538)
(-11.3855 0 3.49908)
(-11.8668 0 1.83659)
(-12.1847 0 0.260515)
(-12.3321 0 -1.22291)
(-12.3055 0 -2.61178)
(-12.1045 0 -3.90606)
(-11.7313 0 -5.10617)
(-11.19 0 -6.21219)
(-10.4868 0 -7.22342)
(-9.63039 0 -8.13804)
(-8.63151 0 -8.9531)
(-7.50346 0 -9.66444)
(-6.26195 0 -10.267)
(-4.92486 0 -10.7549)
(-3.51204 0 -11.1226)
(-2.04492 0 -11.365)
(-0.546061 0 -11.478)
(0.880419 0 -12.9021)
(2.2462 0 -12.7265)
(3.57426 0 -12.3999)
(4.84264 0 -11.9276)
(6.0308 0 -11.3166)
(7.12007 0 -10.5746)
(8.09401 0 -9.70947)
(8.93862 0 -8.72856)
(9.64247 0 -7.63817)
(10.1967 0 -6.44341)
(10.5948 0 -5.14808)
(10.8328 0 -3.75486)
(10.9088 0 -2.26574)
(10.8231 0 -0.682719)
(10.5786 0 0.99108)
(10.1809 0 2.74978)
(9.6385 0 4.58284)
(8.96196 0 6.4738)
(8.1636 0 8.39993)
(7.25703 0 10.3322)
(6.2565 0 12.2347)
(5.17683 0 14.061)
(4.02899 0 15.7358)
(2.78462 0 17.1207)
(1.38229 0 18.0195)
(-0.154607 0 18.2847)
(-1.67314 0 17.8773)
(-3.03941 0 16.8581)
(-4.25779 0 15.3941)
(-5.39008 0 13.6756)
(-6.45318 0 11.8254)
(-7.43353 0 9.90998)
(-8.31655 0 7.97279)
(-9.08803 0 6.04826)
(-9.7346 0 4.16409)
(-10.2443 0 2.34177)
(-10.6068 0 0.596571)
(-10.8143 0 -1.06195)
(-10.8618 0 -2.62855)
(-10.7471 0 -4.10031)
(-10.4702 0 -5.47517)
(-10.0336 0 -6.75088)
(-9.44202 0 -7.92438)
(-8.70247 0 -8.99148)
(-7.82455 0 -9.94669)
(-6.8204 0 -10.7833)
(-5.70476 0 -11.4939)
(-4.49475 0 -12.0706)
(-3.20968 0 -12.5056)
(-1.87062 0 -12.7926)
(-0.499925 0 -12.9265)
(0.879234 0 -12.905)
(2.24349 0 -12.7285)
(3.56986 0 -12.4002)
(4.83627 0 -11.9254)
(6.0221 0 -11.311)
(7.10862 0 -10.5649)
(8.07932 0 -9.6948)
(8.92019 0 -8.7081)
(9.61978 0 -7.61113)
(10.1692 0 -6.40903)
(10.5621 0 -5.10567)
(10.7945 0 -3.70383)
(10.8644 0 -2.20564)
(10.7724 0 -0.613282)
(10.5215 0 1.06984)
(10.1175 0 2.83747)
(9.56898 0 4.67861)
(8.88669 0 6.57629)
(8.08305 0 8.50733)
(7.17173 0 10.4422)
(6.16705 0 12.3445)
(5.08391 0 14.1668)
(3.93208 0 15.8305)
(2.67931 0 17.1924)
(1.26554 0 18.0553)
(-0.275774 0 18.2789)
(-1.7869 0 17.8306)
(-3.1418 0 16.7786)
(-4.35327 0 15.2953)
(-5.48205 0 13.5681)
(-6.54147 0 11.7151)
(-7.5175 0 9.80031)
(-8.39562 0 7.8664)
(-9.16167 0 5.94731)
(-9.80236 0 4.07027)
(-10.3058 0 2.2563)
(-10.662 0 0.520158)
(-10.8631 0 -1.12903)
(-10.9043 0 -2.68636)
(-10.7836 0 -4.14918)
(-10.5011 0 -5.51558)
(-10.0594 0 -6.78344)
(-9.46315 0 -7.94981)
(-8.71945 0 -9.01053)
(-7.8379 0 -9.96015)
(-6.83062 0 -10.792)
(-5.71232 0 -11.4987)
(-4.50007 0 -12.0721)
(-3.2131 0 -12.5049)
(-1.87238 0 -12.7903)
(-0.500194 0 -12.9235)
(0.786571 0 -14.2064)
(2.00573 0 -14.0048)
(3.18842 0 -13.63)
(4.3135 0 -13.0887)
(5.36139 0 -12.3894)
(6.31451 0 -11.542)
(7.1576 0 -10.5569)
(7.87797 0 -9.44392)
(8.4656 0 -8.21197)
(8.91311 0 -6.86873)
(9.21565 0 -5.42046)
(9.3708 0 -3.87217)
(9.37844 0 -2.22812)
(9.24073 0 -0.492648)
(8.96215 0 1.32866)
(8.54962 0 3.22734)
(8.01244 0 5.19053)
(7.36199 0 7.19985)
(6.61141 0 9.23093)
(5.7757 0 11.2532)
(4.87181 0 13.2291)
(3.91941 0 15.1116)
(2.94186 0 16.8327)
(1.95339 0 18.2725)
(0.940701 0 19.2398)
(-0.102537 0 19.5353)
(-1.14107 0 19.0839)
(-2.14669 0 17.9963)
(-3.132 0 16.4806)
(-4.10529 0 14.7146)
(-5.04819 0 12.8044)
(-5.93779 0 10.8116)
(-6.75515 0 8.78085)
(-7.48373 0 6.74805)
(-8.10891 0 4.74252)
(-8.61791 0 2.78744)
(-8.99975 0 0.900076)
(-9.2456 0 -0.907582)
(-9.34909 0 -2.62771)
(-9.30624 0 -4.25493)
(-9.11546 0 -5.78485)
(-8.7774 0 -7.21291)
(-8.29509 0 -8.53368)
(-7.67402 0 -9.74046)
(-6.92228 0 -10.8252)
(-6.05065 0 -11.7785)
(-5.07256 0 -12.5903)
(-4.00396 0 -13.2505)
(-2.8631 0 -13.7493)
(-1.67012 0 -14.0785)
(-0.446553 0 -14.2323)
(0.785206 0 -14.2077)
(2.00255 0 -14.0051)
(3.18326 0 -13.6284)
(4.30614 0 -13.0842)
(5.35151 0 -12.3812)
(6.30175 0 -11.5293)
(7.14155 0 -10.5387)
(7.85821 0 -9.41947)
(8.44172 0 -8.18047)
(8.88469 0 -6.82945)
(9.18234 0 -5.37276)
(9.3323 0 -3.81552)
(9.33454 0 -2.16217)
(9.19131 0 -0.417248)
(8.90723 0 1.41335)
(8.48934 0 3.32078)
(7.94713 0 5.29172)
(7.29207 0 7.30732)
(6.53747 0 9.34274)
(5.69844 0 11.3669)
(4.79211 0 13.3418)
(3.83841 0 15.2196)
(2.86079 0 16.9299)
(1.87189 0 18.3482)
(0.857129 0 19.2795)
(-0.187196 0 19.5287)
(-1.22398 0 19.0328)
(-2.22786 0 17.9132)
(-3.21308 0 16.3794)
(-4.18603 0 14.6048)
(-5.12726 0 12.6909)
(-6.01416 0 10.698)
(-6.82799 0 8.66987)
(-7.55235 0 6.64197)
(-8.17279 0 4.64315)
(-8.67663 0 2.69613)
(-9.05305 0 0.817679)
(-9.29335 0 -0.980632)
(-9.3913 0 -2.69134)
(-9.34307 0 -4.30935)
(-9.14714 0 -5.83047)
(-8.80426 0 -7.25028)
(-8.31749 0 -8.56347)
(-7.69237 0 -9.7634)
(-6.93702 0 -10.842)
(-6.06218 0 -11.7901)
(-5.08128 0 -12.5976)
(-4.01024 0 -13.2543)
(-2.86723 0 -13.7504)
(-1.67231 0 -14.078)
(-0.446951 0 -14.231)
(0.682254 0 -15.3549)
(1.73871 0 -15.1284)
(2.76075 0 -14.7077)
(3.72856 0 -14.1006)
(4.62393 0 -13.3176)
(5.43071 0 -12.3708)
(6.13513 0 -11.2729)
(6.72605 0 -10.0366)
(7.19502 0 -8.67331)
(7.53626 0 -7.19346)
(7.74661 0 -5.60577)
(7.82532 0 -3.91766)
(7.774 0 -2.13569)
(7.59649 0 -0.266455)
(7.29887 0 1.68218)
(6.88942 0 3.69947)
(6.37856 0 5.77042)
(5.77865 0 7.87471)
(5.10398 0 9.98604)
(4.37099 0 12.0715)
(3.59877 0 14.0906)
(2.80998 0 15.9927)
(2.03213 0 17.708)
(1.29266 0 19.1254)
(0.600362 0 20.0722)
(-0.0630999 0 20.3613)
(-0.729976 0 19.9193)
(-1.43103 0 18.8539)
(-2.17959 0 17.3583)
(-2.9614 0 15.5928)
(-3.74778 0 13.6574)
(-4.51219 0 11.6167)
(-5.23282 0 9.51856)
(-5.89118 0 7.40192)
(-6.47129 0 5.29822)
(-6.95928 0 3.23258)
(-7.34316 0 1.22425)
(-7.61295 0 -0.712637)
(-7.76083 0 -2.56792)
(-7.78123 0 -4.33395)
(-7.67082 0 -6.00402)
(-7.42855 0 -7.57125)
(-7.05574 0 -9.02777)
(-6.55625 0 -10.3643)
(-5.93654 0 -11.5701)
(-5.20581 0 -12.6331)
(-4.37594 0 -13.5407)
(-3.46141 0 -14.2801)
(-2.47903 0 -14.8395)
(-1.44757 0 -15.2091)
(-0.387263 0 -15.3819)
(0.680779 0 -15.3542)
(1.73521 0 -15.1266)
(2.75511 0 -14.7038)
(3.72059 0 -14.0937)
(4.61336 0 -13.3067)
(5.41724 0 -12.3549)
(6.11844 0 -11.2513)
(6.7058 0 -10.0083)
(7.17089 0 -8.63761)
(7.50798 0 -7.14966)
(7.71392 0 -5.55328)
(7.78806 0 -3.85604)
(7.73209 0 -2.06466)
(7.54995 0 -0.185989)
(7.24784 0 1.77179)
(6.83418 0 3.79754)
(6.31952 0 5.87581)
(5.71637 0 7.98583)
(5.03915 0 10.1008)
(4.30448 0 12.1872)
(3.53166 0 14.2043)
(2.74369 0 16.1002)
(1.9684 0 17.8034)
(1.23266 0 19.1991)
(0.543414 0 20.1108)
(-0.119142 0 20.3548)
(-0.787584 0 19.8696)
(-1.49206 0 18.7729)
(-2.24418 0 17.2587)
(-3.02804 0 15.4831)
(-3.81481 0 13.5428)
(-4.5783 0 11.5008)
(-5.29699 0 9.40443)
(-5.95257 0 7.29201)
(-6.52926 0 5.1945)
(-7.01331 0 3.13653)
(-7.39287 0 1.13686)
(-7.65809 0 -0.790795)
(-7.80129 0 -2.63665)
(-7.81703 0 -4.39334)
(-7.70206 0 -6.0544)
(-7.45542 0 -7.6131)
(-7.07849 0 -9.06169)
(-6.57518 0 -10.391)
(-5.95198 0 -11.5904)
(-5.21809 0 -12.6478)
(-4.38538 0 -13.5506)
(-3.46831 0 -14.2862)
(-2.48363 0 -14.8428)
(-1.45006 0 -15.2106)
(-0.387756 0 -15.3824)
(0.569479 0 -16.3329)
(1.45026 0 -16.0834)
(2.29946 0 -15.6199)
(3.09901 0 -14.9519)
(3.83246 0 -14.0916)
(4.48541 0 -13.0533)
(5.04585 0 -11.8523)
(5.50437 0 -10.5038)
(5.85423 0 -9.02221)
(6.09135 0 -7.42034)
(6.21419 0 -5.70953)
(6.22368 0 -3.89958)
(6.12304 0 -1.99932)
(5.91768 0 -0.0175506)
(5.61514 0 2.03571)
(5.225 0 4.14763)
(4.75875 0 6.30127)
(4.22975 0 8.47437)
(3.65319 0 10.6385)
(3.04644 0 12.7583)
(2.42943 0 14.7902)
(1.82532 0 16.6794)
(1.26072 0 18.3537)
(0.76191 0 19.7086)
(0.338992 0 20.5966)
(-0.0336791 0 20.8646)
(-0.412664 0 20.4537)
(-0.850336 0 19.4506)
(-1.36411 0 18.0141)
(-1.93861 0 16.2836)
(-2.54661 0 14.3552)
(-3.16214 0 12.2966)
(-3.76275 0 10.1598)
(-4.32907 0 7.98646)
(-4.84421 0 5.81058)
(-5.29335 0 3.65928)
(-5.66352 0 1.55373)
(-5.94362 0 -0.489942)
(-6.12448 0 -2.45945)
(-6.19903 0 -4.34496)
(-6.16236 0 -6.13755)
(-6.01178 0 -7.828)
(-5.74696 0 -9.406)
(-5.37007 0 -10.8597)
(-4.88589 0 -12.1756)
(-4.30188 0 -13.3391)
(-3.62817 0 -14.3348)
(-2.87748 0 -15.1474)
(-2.06484 0 -15.7632)
(-1.20725 0 -16.1703)
(-0.323196 0 -16.3607)
(0.567963 0 -16.3302)
(1.44663 0 -16.0794)
(2.29362 0 -15.6138)
(3.09081 0 -14.9425)
(3.82168 0 -14.0779)
(4.47182 0 -13.0344)
(5.02921 0 -11.8273)
(5.48444 0 -10.472)
(5.8308 0 -8.98267)
(6.06423 0 -7.3725)
(6.18327 0 -5.65286)
(6.18892 0 -3.83371)
(6.08447 0 -1.92408)
(5.87547 0 0.0669702)
(5.56955 0 2.1291)
(5.17643 0 4.24908)
(4.70774 0 6.4095)
(4.17693 0 8.58763)
(3.59939 0 10.7546)
(2.99262 0 12.8743)
(2.3768 0 14.9027)
(1.77531 0 16.7842)
(1.215 0 18.4448)
(0.721736 0 19.7775)
(0.303722 0 20.6321)
(-0.0673513 0 20.8586)
(-0.449062 0 20.4078)
(-0.892083 0 19.3745)
(-1.41117 0 17.9184)
(-1.98949 0 16.1761)
(-2.59969 0 14.2412)
(-3.21604 0 12.1801)
(-3.81634 0 10.0441)
(-4.38142 0 7.87419)
(-4.89456 0 5.70385)
(-5.34107 0 3.55971)
(-5.70813 0 1.46245)
(-5.98474 0 -0.572232)
(-6.16188 0 -2.53243)
(-6.23259 0 -4.40861)
(-6.19205 0 -6.1921)
(-6.03766 0 -7.87387)
(-5.76917 0 -9.44373)
(-5.3888 0 -10.8899)
(-4.90136 0 -12.1992)
(-4.31435 0 -13.3568)
(-3.63788 0 -14.3474)
(-2.88466 0 -15.1561)
(-2.06968 0 -15.7688)
(-1.2099 0 -16.1739)
(-0.323751 0 -16.3633)
(0.449862 0 -17.1289)
(1.14451 0 -16.8584)
(1.81114 0 -16.3565)
(2.43383 0 -15.6336)
(2.99823 0 -14.704)
(3.49201 0 -13.5842)
(3.90514 0 -12.2919)
(4.2301 0 -10.845)
(4.46195 0 -9.26031)
(4.59829 0 -7.55343)
(4.63921 0 -5.73812)
(4.58713 0 -3.82652)
(4.44676 0 -1.8297)
(4.22486 0 0.241435)
(3.93022 0 2.37486)
(3.57348 0 4.55585)
(3.16698 0 6.76565)
(2.72469 0 8.98027)
(2.2622 0 11.1694)
(1.79687 0 13.2953)
(1.34802 0 15.312)
(0.936883 0 17.1623)
(0.585858 0 18.7736)
(0.314287 0 20.0495)
(0.125534 0 20.868)
(-0.0102777 0 21.1116)
(-0.152735 0 20.7368)
(-0.357334 0 19.8079)
(-0.646197 0 18.4484)
(-1.01106 0 16.776)
(-1.43121 0 14.8812)
(-1.8843 0 12.8328)
(-2.34946 0 10.6855)
(-2.80777 0 8.48336)
(-3.24226 0 6.26249)
(-3.63765 0 4.05189)
(-3.9803 0 1.87452)
(-4.25822 0 -0.251694)
(-4.46113 0 -2.31252)
(-4.58069 0 -4.29607)
(-4.61058 0 -6.19128)
(-4.54663 0 -7.98666)
(-4.38697 0 -9.66949)
(-4.13212 0 -11.2254)
(-3.78514 0 -12.6383)
(-3.35165 0 -13.8908)
(-2.83987 0 -14.9651)
(-2.26048 0 -15.8434)
(-1.62644 0 -16.5098)
(-0.952596 0 -16.9508)
(-0.255269 0 -17.1571)
(0.44837 0 -17.1241)
(1.14091 0 -16.8523)
(1.80536 0 -16.348)
(2.42575 0 -15.6218)
(2.98771 0 -14.6877)
(3.47887 0 -13.5625)
(3.88922 0 -12.2639)
(4.21126 0 -10.8099)
(4.44006 0 -9.21741)
(4.57329 0 -7.50214)
(4.61108 0 -5.67798)
(4.55596 0 -3.75725)
(4.41272 0 -1.75123)
(4.18822 0 0.328922)
(3.89137 0 2.47082)
(3.53293 0 4.65935)
(3.12535 0 6.8753)
(2.68272 0 9.09417)
(2.22076 0 11.2851)
(1.75697 0 13.4099)
(1.31082 0 15.4218)
(0.903683 0 17.2629)
(0.557969 0 18.8592)
(0.2925 0 20.1127)
(0.108883 0 20.8999)
(-0.0252771 0 21.1063)
(-0.170562 0 20.6953)
(-0.380814 0 19.7376)
(-0.675673 0 18.3579)
(-1.0455 0 16.6722)
(-1.46927 0 14.7695)
(-1.92473 0 12.7175)
(-2.39112 0 10.5698)
(-2.84971 0 8.37022)
(-3.28363 0 6.15414)
(-3.67774 0 3.95009)
(-4.01853 0 1.78052)
(-4.2941 0 -0.337058)
(-4.49431 0 -2.38882)
(-4.61091 0 -4.36318)
(-4.63771 0 -6.24933)
(-4.57061 0 -8.03599)
(-4.40782 0 -9.71057)
(-4.14992 0 -11.2588)
(-3.80002 0 -12.6648)
(-3.36378 0 -13.9113)
(-2.84942 0 -14.9804)
(-2.26761 0 -15.8545)
(-1.63128 0 -16.5176)
(-0.955277 0 -16.9566)
(-0.255853 0 -17.1619)
(0.324718 0 -17.7333)
(0.824836 0 -17.4447)
(1.30117 0 -16.9093)
(1.74031 0 -16.139)
(2.13038 0 -15.1498)
(2.46135 0 -13.9602)
(2.7254 0 -12.5904)
(2.917 0 -11.0607)
(3.03305 0 -9.39041)
(3.07281 0 -7.5976)
(3.03786 0 -5.69838)
(2.932 0 -3.70713)
(2.76113 0 -1.63705)
(2.53313 0 0.498987)
(2.25772 0 2.68709)
(1.94622 0 4.91088)
(1.61142 0 7.15007)
(1.26739 0 9.37918)
(0.929427 0 11.5664)
(0.613935 0 13.6726)
(0.338269 0 15.6504)
(0.120172 0 17.4422)
(-0.0238193 0 18.9775)
(-0.0826945 0 20.1701)
(-0.060906 0 20.9206)
(0.00980698 0 21.1413)
(0.0744372 0 20.8006)
(0.0811632 0 19.9453)
(0.00443774 0 18.6689)
(-0.155847 0 17.0691)
(-0.386909 0 15.2287)
(-0.671715 0 13.215)
(-0.992506 0 11.0833)
(-1.33209 0 8.87929)
(-1.67426 0 6.64047)
(-2.00395 0 4.39733)
(-2.30736 0 2.1743)
(-2.57197 0 -0.00911645)
(-2.78676 0 -2.13698)
(-2.94241 0 -4.19552)
(-3.03147 0 -6.17161)
(-3.04853 0 -8.05162)
(-2.99029 0 -9.82053)
(-2.85574 0 -11.4615)
(-2.64622 0 -12.9561)
(-2.36547 0 -14.2844)
(-2.01964 0 -15.426)
(-1.61717 0 -16.3609)
(-1.16863 0 -17.0711)
(-0.6864 0 -17.5416)
(-0.184227 0 -17.7617)
(0.323312 0 -17.7264)
(0.82142 0 -17.4365)
(1.29569 0 -16.8986)
(1.7327 0 -16.1248)