/*--------------------------------*- C++ -*----------------------------------*\
| =========                 |                                                 |
| \\      /  F ield         | OpenFOAM: The Open Source CFD Toolbox           |
|  \\    /   O peration     | Version:  2.3.0                                 |
|   \\  /    A nd           | Web:      www.OpenFOAM.org                      |
|    \\/     M anipulation  |                                                 |
\*---------------------------------------------------------------------------*/
FoamFile
{
    version     2.0;
    format      ascii;
    class       volScalarField;
    location    "16000";
    object      p;
}
// * * * * * * * * * * * * * * * * * * * * * * * * * * * * * * * * * * * * * //

dimensions      [0 2 -2 0 0 0 0];

internalField   nonuniform List<scalar> 
192
(
-1662.35
-1671.19
-1679.85
-1689.02
-1699.62
-1712.6
-1728.46
-1746.6
-1764.89
-1779.46
-1784.46
-1775.29
-1758.93
-1497.18
-1505.69
-1514.45
-1523.79
-1534.05
-1545.45
-1557.86
-1570.76
-1582.58
-1591.18
-1594.17
-1588.74
-1578.87
-1359.51
-1366.57
-1374.05
-1382
-1390.46
-1399.35
-1408.46
-1417.06
-1423.93
-1428.16
-1429.62
-1426.99
-1421.91
-1236.96
-1241.95
-1247.24
-1252.75
-1258.39
-1264.1
-1269.62
-1274.2
-1276.99
-1277.91
-1278.14
-1277.72
-1276.33
-1118.02
-1120.84
-1123.76
-1126.71
-1129.64
-1132.52
-1135.14
-1136.89
-1137.16
-1136.17
-1135.62
-1136.58
-1137.32
-996.823
-997.813
-998.761
-999.639
-1000.45
-1001.16
-1001.6
-1001.38
-1000.11
-998.056
-997.076
-998.82
-1000.75
-871.263
-870.863
-870.357
-869.765
-869.086
-868.229
-867.072
-865.385
-863.001
-860.259
-859.089
-861.235
-863.973
-741.097
-739.699
-738.191
-736.577
-734.809
-732.773
-730.351
-727.438
-724.106
-720.919
-719.688
-722.003
-725.343
-606.974
-604.818
-602.536
-600.081
-597.368
-594.291
-590.737
-586.739
-582.606
-579.135
-577.878
-580.257
-584.038
-469.837
-466.927
-463.867
-460.56
-456.893
-452.756
-448.102
-443.096
-438.244
-434.514
-433.213
-435.644
-439.825
-331.347
-327.434
-323.358
-318.978
-314.156
-308.794
-302.919
-296.814
-291.143
-287.015
-285.604
-288.165
-292.88
-195.382
-189.949
-184.404
-178.553
-172.224
-165.318
-157.907
-150.367
-143.51
-138.615
-136.951
-139.861
-145.49
-68.0849
-60.2035
-52.0972
-43.6031
-34.5914
-25.0193
-15.0387
-5.14403
3.69904
9.99488
12.1494
8.50933
23.5544
33.1762
42.9172
52.9772
63.6254
75.1038
87.4552
100.243
112.239
121.18
124.377
119.132
73.9971
69.2054
63.4499
56.7345
48.9271
39.8443
29.4078
17.9037
6.4062
-2.83006
-5.87082
-0.609301
)
;

boundaryField
{
    top
    {
        type            calculated;
        value           nonuniform List<scalar> 
12
(
-9.81
-9.81
-9.81
-9.81
-9.81
-9.81
-9.81
-9.81
-9.81
-9.81
-9.81
-9.81
)
;
    }
    bottom
    {
        type            calculated;
        value           nonuniform List<scalar> 
13
(
-1753.36
-1762.33
-1770.88
-1779.82
-1790.24
-1803.34
-1819.8
-1838.59
-1857.75
-1873.49
-1879.15
-1868.9
-1851.44
)
;
    }
    frontAndBack
    {
        type            empty;
    }
    left_cyc
    {
        type            cyclic;
    }
    right_cyc
    {
        type            cyclic;
    }
    procBoundary0to1
    {
        type            processor;
        value           nonuniform List<scalar> 
16
(
-1740.28
-1566.4
-1414.27
-1272.86
-1136.52
-1001.66
-866.132
-728.572
-588.195
-444.821
-298.801
-152.695
1.27303
1.27303
109.003
9.81459
)
;
    }
    procBoundary0to3throughleft_cyc
    {
        type            processorCyclic;
        value           nonuniform List<scalar> 
15
(
-1652.89
-1488.63
-1352.77
-1232.32
-1115.4
-995.843
-871.557
-742.367
-609.024
-472.675
-335.235
-200.901
-75.9333
14.0709
77.8049
)
;
    }
}


// ************************************************************************* //
