/*--------------------------------*- C++ -*----------------------------------*\
| =========                 |                                                 |
| \\      /  F ield         | OpenFOAM: The Open Source CFD Toolbox           |
|  \\    /   O peration     | Version:  2.3.0                                 |
|   \\  /    A nd           | Web:      www.OpenFOAM.org                      |
|    \\/     M anipulation  |                                                 |
\*---------------------------------------------------------------------------*/
FoamFile
{
    version     2.0;
    format      ascii;
    class       surfaceScalarField;
    location    "16000";
    object      phi;
}
// * * * * * * * * * * * * * * * * * * * * * * * * * * * * * * * * * * * * * //

dimensions      [0 3 -1 0 0 0 0];

internalField   nonuniform List<scalar> 
356
(
0.308004
0.00242335
0.312973
-0.00496892
0.327047
-0.0140744
0.350119
-0.0230712
0.378215
-0.0280962
0.401219
-0.0230043
0.4019
-0.000681176
0.358188
0.0437127
0.249239
0.108948
0.0704745
0.178765
-0.137172
0.207647
-0.294536
0.157364
0.0855645
0.547068
-0.00575349
0.561999
-0.0198999
0.584021
-0.0360968
0.611052
-0.050102
0.636785
-0.0538289
0.648698
-0.0349179
0.626741
0.0212755
0.543383
0.127071
0.371201
0.281131
0.103539
0.446427
-0.20225
0.513436
-0.440767
0.39588
0.22582
0.578278
-0.0203328
0.595856
-0.0374783
0.61556
-0.0558005
0.634592
-0.0691343
0.647166
-0.0664026
0.643192
-0.0309441
0.606843
0.0576244
0.516367
0.217546
0.348405
0.449093
0.0964085
0.698423
-0.188427
0.798271
-0.414823
0.622277
0.365819
0.517223
-0.0334695
0.530011
-0.0502662
0.54094
-0.0667289
0.54729
-0.0754846
0.544635
-0.0637475
0.526144
-0.0124527
0.481834
0.101934
0.398752
0.300628
0.262973
0.584872
0.0718285
0.889568
-0.139965
1.01006
-0.314621
0.796933
0.482933
0.409234
-0.0402341
0.413212
-0.0542446
0.412857
-0.0663738
0.406092
-0.0687196
0.390181
-0.0478362
0.36153
0.0161978
0.31585
0.147615
0.248552
0.367926
0.156109
0.677315
0.0414763
1.0042
-0.079933
1.13147
-0.188797
0.905797
0.567263
0.266869
-0.0390505
0.261537
-0.048913
0.250959
-0.0557958
0.234041
-0.0518009
0.209783
-0.023579
0.177562
0.0484191
0.137779
0.187398
0.0926914
0.413013
0.0479016
0.722105
0.0112685
1.04083
-0.0201063
1.16285
-0.0607129
0.946403
0.61366
0.100915
-0.0308487
0.08833
-0.0363285
0.0709034
-0.0383693
0.0485045
-0.0294019
0.0216222
0.00330326
-0.00783262
0.077874
-0.0357738
0.215339
-0.0543236
0.431563
-0.0509534
0.718735
-0.0157314
1.00561
0.0332411
1.11388
0.0572027
0.922442
0.619887
-0.0720029
-0.0182126
-0.0886512
-0.0196803
-0.109265
-0.0177559
-0.133171
-0.00549593
-0.158457
0.0285898
-0.180967
0.100384
-0.193193
0.227565
-0.182834
0.421204
-0.13384
0.669741
-0.0379175
0.909689
0.0765308
0.999428
0.157021
0.841952
0.586151
-0.233339
-0.00412113
-0.251182
-0.00183741
-0.272342
0.00340392
-0.295286
0.0174488
-0.316543
0.049847
-0.329717
0.113558
-0.324286
0.222134
-0.28538
0.382298
-0.196914
0.581275
-0.0545851
0.767361
0.108111
0.836732
0.233643
0.716419
0.516048
-0.365333
0.00912444
-0.382227
0.0150565
-0.401935
0.0231121
-0.422075
0.0375894
-0.437805
0.0655765
-0.440777
0.116529
-0.418492
0.199849
-0.355402
0.319208
-0.237621
0.463494
-0.0653065
0.595046
0.127164
0.644261
0.283366
0.560217
0.417438
-0.44951
0.0201208
-0.463616
0.0291624
-0.479768
0.0392646
-0.495167
0.0529885
-0.504275
0.0746842
-0.497878
0.110133
-0.462989
0.16496
-0.384852
0.24107
-0.252453
0.331095
-0.0692881
0.411881
0.132472
0.442501
0.301489
0.3912
0.303106
-0.466571
0.0278876
-0.475694
0.0382851
-0.485338
0.0489089
-0.493156
0.0608058
-0.494284
0.075813
-0.48051
0.0963586
-0.440344
0.124794
-0.36116
0.161886
-0.234445
0.20438
-0.064657
0.242093
0.121107
0.256737
0.27956
0.232747
-0.41046
0.030521
-0.411116
0.0389406
-0.409599
0.0473917
-0.404904
0.0561115
-0.394434
0.0653427
-0.373354
0.0752788
-0.334534
0.0859739
-0.269828
0.0971802
-0.173521
0.108074
-0.0482846
0.116856
0.0882887
0.120164
0.114801
-0.355525
0.0187551
-0.339419
0.0228343
-0.319003
0.0269762
-0.294144
0.0312529
-0.264507
0.0357056
-0.229532
0.0403031
-0.188456
0.0448985
-0.140464
0.0491879
-0.0851006
0.0527102
-0.0232001
0.0549557
0.041391
0.0555728
0.0544692
-0.343305
-0.325972
-0.304238
-0.277909
-0.246743
-0.210519
-0.169156
-0.122894
-0.0724897
-0.0193378
0.0345956
)
;

boundaryField
{
    top
    {
        type            calculated;
        value           nonuniform List<scalar> 
12
(
0.00569626
0.00550099
0.00524226
0.00492382
0.0045395
0.00407879
0.00353605
0.00292556
0.0023061
0.00180374
0.00163933
0.00192578
)
;
    }
    bottom
    {
        type            calculated;
        value           uniform 0;
    }
    frontAndBack
    {
        type            empty;
        value           nonuniform 0();
    }
    left_cyc
    {
        type            cyclic;
        value           nonuniform 0();
    }
    right_cyc
    {
        type            cyclic;
        value           nonuniform 0();
    }
    procBoundary0to1
    {
        type            processor;
        value           nonuniform List<scalar> 
16
(
-0.3801
-0.581023
-0.554822
-0.431735
-0.273127
-0.10711
0.0509759
0.190757
0.303746
0.381976
0.415821
0.391124
0.191542
0.206235
0.101723
0.0871391
)
;
    }
    procBoundary0to3throughleft_cyc
    {
        type            processorCyclic;
        value           nonuniform List<scalar> 
15
(
-0.310428
-0.538891
-0.563699
-0.504087
-0.402469
-0.268052
-0.109116
0.0593668
0.219247
0.352087
0.438514
0.458804
0.407827
0.367291
0.356364
)
;
    }
}


// ************************************************************************* //
