/*--------------------------------*- C++ -*----------------------------------*\
| =========                 |                                                 |
| \\      /  F ield         | OpenFOAM: The Open Source CFD Toolbox           |
|  \\    /   O peration     | Version:  2.3.0                                 |
|   \\  /    A nd           | Web:      www.OpenFOAM.org                      |
|    \\/     M anipulation  |                                                 |
\*---------------------------------------------------------------------------*/
FoamFile
{
    version     2.0;
    format      ascii;
    class       volScalarField;
    location    "16000";
    object      T;
}
// * * * * * * * * * * * * * * * * * * * * * * * * * * * * * * * * * * * * * //

dimensions      [0 0 0 1 0 0 0];

internalField   nonuniform List<scalar> 
192
(
40.0058
40.0648
40.0161
39.9132
39.8354
39.8865
40.1496
40.434
40.818
41.3304
41.6184
41.1463
40.6615
33.0376
33.2233
33.2961
33.303
33.332
33.5083
33.925
34.7459
36.1007
37.8927
38.8657
37.2792
35.5876
28.1379
28.459
28.7073
28.9113
29.1236
29.435
29.9992
31.1821
33.1686
35.7808
37.1733
34.8873
32.3979
26.0216
26.3969
26.7398
27.0523
27.3448
27.67
28.2483
29.4647
31.6255
34.562
36.1192
33.5567
30.772
26.0014
26.3377
26.668
26.9679
27.2161
27.4501
27.8931
28.9281
30.9926
33.9319
35.4756
32.9292
30.1605
26.9189
27.1953
27.4634
27.6822
27.8207
27.9344
28.1852
29.0182
30.9152
33.6815
35.0965
32.7506
30.1409
28.0573
28.2721
28.4556
28.5676
28.5921
28.5987
28.7719
29.5234
31.2028
33.5926
34.8205
32.8024
30.532
29.0991
29.244
29.3414
29.381
29.3933
29.4059
29.6106
30.2745
31.6389
33.5478
34.5816
32.926
31.1096
29.9118
30.0239
30.1058
30.1623
30.2008
30.2787
30.5141
31.0722
32.1096
33.5349
34.3709
33.0827
31.7235
30.468
30.6174
30.742
30.8478
30.9527
31.0945
31.3409
31.7903
32.5382
33.5376
34.1789
33.2373
32.2779
30.5041
30.7596
30.9934
31.2109
31.4219
31.6463
31.9202
32.2974
32.8315
33.501
33.9624
33.3201
32.6669
29.4207
29.8607
30.2758
30.6718
31.0539
31.4284
31.8074
32.2107
32.6584
33.1351
33.4555
33.0267
32.5428
26.0971
26.7499
27.3736
27.9772
28.567
29.1449
29.709
30.2533
30.7659
31.211
31.4544
31.1211
19.204
19.9131
20.5997
21.2699
21.9268
22.5692
23.1904
23.7762
24.3006
24.7127
24.8924
24.6299
7.7135
8.10574
8.49413
8.88008
9.26295
9.63868
9.99873
10.3292
10.6098
10.8118
10.8874
10.7712
)
;

boundaryField
{
    top
    {
        type            fixedValue;
        value           uniform 0;
    }
    bottom
    {
        type            fixedValue;
        value           uniform 43.8;
    }
    frontAndBack
    {
        type            empty;
    }
    left_cyc
    {
        type            cyclic;
    }
    right_cyc
    {
        type            cyclic;
    }
    procBoundary0to1
    {
        type            processor;
        value           nonuniform List<scalar> 
16
(
40.3099
34.4251
30.6789
28.9389
28.4685
28.6287
29.1764
29.9849
30.8467
31.6268
32.1807
32.1053
30.6438
30.6438
24.1743
10.5425
)
;
    }
    procBoundary0to3throughleft_cyc
    {
        type            processorCyclic;
        value           nonuniform List<scalar> 
15
(
39.8404
32.7025
27.735
25.6137
25.6745
26.6629
27.8471
28.9307
29.7716
30.2925
30.2233
28.9498
25.4075
18.4674
7.31674
)
;
    }
}


// ************************************************************************* //
