/*--------------------------------*- C++ -*----------------------------------*\
| =========                 |                                                 |
| \\      /  F ield         | OpenFOAM: The Open Source CFD Toolbox           |
|  \\    /   O peration     | Version:  2.3.0                                 |
|   \\  /    A nd           | Web:      www.OpenFOAM.org                      |
|    \\/     M anipulation  |                                                 |
\*---------------------------------------------------------------------------*/
FoamFile
{
    version     2.0;
    format      ascii;
    class       volVectorField;
    location    "16000";
    object      U;
}
// * * * * * * * * * * * * * * * * * * * * * * * * * * * * * * * * * * * * * //

dimensions      [0 1 -1 0 0 0 0];

internalField   nonuniform List<vector> 
192
(
(46.1661 0 0.559907)
(46.2895 0 -0.0228271)
(47.6873 0 -0.798557)
(50.5384 0 -1.66047)
(54.6139 0 -2.32048)
(58.9137 0 -2.28128)
(61.3787 0 -0.937878)
(58.9297 0 2.03615)
(48.0322 0 6.49143)
(25.9707 0 11.2904)
(-5.44177 0 13.3087)
(-34.7815 0 9.81072)
(-52.9421 0 4.88703)
(81.2301 0 0.0944237)
(82.9221 0 -1.62305)
(85.7133 0 -3.6738)
(89.5288 0 -5.59801)
(93.8103 0 -6.47922)
(97.2142 0 -4.89864)
(97.3386 0 0.777036)
(90.5013 0 11.8071)
(72.2316 0 27.9196)
(38.7666 0 45.1205)
(-8.13519 0 52.1468)
(-51.9333 0 39.8637)
(-80.0233 0 22.1485)
(85.5373 0 -1.93041)
(87.9538 0 -4.41983)
(90.8088 0 -7.17756)
(93.8613 0 -9.39333)
(96.5124 0 -9.57714)
(97.6191 0 -5.48042)
(95.275 0 5.61376)
(86.6572 0 26.0755)
(68.131 0 55.7916)
(36.3361 0 87.7132)
(-7.60534 0 100.555)
(-48.6795 0 77.9619)
(-75.7421 0 45.1124)
(76.5923 0 -4.18195)
(78.5727 0 -6.82628)
(80.4261 0 -9.54219)
(81.8506 0 -11.2902)
(82.3312 0 -10.241)
(81.042 0 -3.65402)
(76.7406 0 11.8517)
(67.7309 0 39.3403)
(51.8622 0 78.9866)
(27.1353 0 121.67)
(-5.58838 0 138.662)
(-36.4269 0 108.65)
(-58.0472 0 64.7291)
(60.9558 0 -5.79215)
(61.8095 0 -8.17208)
(62.149 0 -10.3783)
(61.7052 0 -11.2427)
(60.1204 0 -8.76324)
(56.9182 0 0.0394894)
(51.4944 0 18.823)
(43.2049 0 50.8773)
(31.3621 0 96.3733)
(15.6387 0 144.884)
(-3.06373 0 163.927)
(-21.1215 0 130.189)
(-35.6298 0 80.1041)
(40.2524 0 -6.24223)
(39.8047 0 -8.06125)
(38.6545 0 -9.49419)
(36.6333 0 -9.33944)
(33.5769 0 -5.56173)
(29.345 0 4.83975)
(23.8937 0 25.4804)
(17.404 0 59.5087)
(10.4155 0 106.751)
(4.1475 0 156.146)
(-0.566086 0 175.21)
(-5.76585 0 141.376)
(-12.5581 0 90.043)
(15.9051 0 -5.46774)
(14.3692 0 -6.61148)
(12.1312 0 -7.2521)
(9.13973 0 -6.21832)
(5.4045 0 -1.53046)
(1.07242 0 9.67297)
(-3.44102 0 30.7456)
(-7.30802 0 64.4014)
(-8.96398 0 109.829)
(-6.11565 0 155.952)
(1.60823 0 173.455)
(8.04219 0 142.426)
(9.00337 0 94.03)
(-9.70509 0 -3.79209)
(-11.8944 0 -4.29922)
(-14.7007 0 -4.27621)
(-18.0827 0 -2.61847)
(-21.8781 0 2.51108)
(-25.6689 0 13.6916)
(-28.6307 0 33.8638)
(-29.3228 0 65.0597)
(-25.4756 0 105.752)
(-14.4764 0 145.652)
(3.29402 0 160.613)
(19.3668 0 134.239)
(27.6202 0 91.9078)
(-33.8031 0 -1.68462)
(-36.2005 0 -1.61706)
(-39.1582 0 -1.0574)
(-42.552 0 0.970451)
(-46.0433 0 6.0701)
(-48.93 0 16.4274)
(-49.9832 0 34.3978)
(-47.2748 0 61.2804)
(-38.2594 0 95.1413)
(-20.6386 0 127.223)
(4.43429 0 139.179)
(27.7351 0 118.314)
(42.2448 0 83.9094)
(-53.6681 0 0.438703)
(-55.939 0 1.06187)
(-58.738 0 2.07952)
(-61.8531 0 4.26665)
(-64.7801 0 8.88656)
(-66.5663 0 17.6339)
(-65.6518 0 32.2213)
(-59.8467 0 53.3756)
(-46.6724 0 79.2099)
(-24.4636 0 102.974)
(5.02688 0 111.832)
(32.8894 0 96.5913)
(52.0144 0 70.8697)
(-66.4833 0 2.3106)
(-68.3823 0 3.47382)
(-70.716 0 4.88263)
(-73.228 0 7.05051)
(-75.3322 0 10.8366)
(-75.9487 0 17.3809)
(-73.3875 0 27.793)
(-65.442 0 42.4523)
(-49.8951 0 59.9243)
(-25.7054 0 75.665)
(5.06563 0 81.583)
(34.4652 0 71.5834)
(55.8735 0 54.4376)
(-69.3543 0 3.6008)
(-70.6335 0 5.13017)
(-72.0919 0 6.71047)
(-73.5257 0 8.60368)
(-74.4313 0 11.2644)
(-73.8488 0 15.2967)
(-70.2686 0 21.2889)
(-61.754 0 29.4426)
(-46.4598 0 38.9887)
(-23.7329 0 47.5215)
(4.48584 0 50.8034)
(31.6402 0 45.3815)
(52.1019 0 36.0685)
(-61.451 0 5.45875)
(-61.6975 0 7.2031)
(-61.6481 0 8.99844)
(-61.2418 0 10.8903)
(-60.2349 0 12.9596)
(-58.0866 0 15.309)
(-53.8831 0 18.0311)
(-46.3984 0 21.1382)
(-34.4196 0 24.428)
(-17.4895 0 27.2796)
(3.15681 0 28.4257)
(23.1272 0 26.5979)
(-54.375 0 3.1092)
(-52.2825 0 3.91967)
(-49.5457 0 4.71329)
(-46.159 0 5.51137)
(-42.088 0 6.31943)
(-37.2652 0 7.12064)
(-31.5882 0 7.87151)
(-24.9302 0 8.50319)
(-17.1738 0 8.93874)
(-8.31355 0 9.14006)
(1.39649 0 9.16325)
(10.9641 0 9.1011)
(-52.6337 0 2.93056)
(-50.3579 0 3.11593)
(-47.4337 0 3.28655)
(-43.8374 0 3.44679)
(-39.5348 0 3.59862)
(-34.4878 0 3.74065)
(-28.6683 0 3.86777)
(-22.0808 0 3.97179)
(-14.7922 0 4.04438)
(-6.96323 0 4.08224)
(1.15734 0 4.09344)
(9.22814 0 4.07596)
)
;

boundaryField
{
    top
    {
        type            directionMixed;
        refValue        uniform (0 0 0);
        refGradient     uniform (0 0 0);
        valueFraction   uniform (0 0 0 0 0 1);
        value           nonuniform List<vector> 
12
(
(-52.6337 0 0)
(-50.3579 0 0)
(-47.4337 0 0)
(-43.8374 0 0)
(-39.5348 0 0)
(-34.4878 0 0)
(-28.6683 0 0)
(-22.0808 0 0)
(-14.7922 0 0)
(-6.96323 0 0)
(1.15734 0 0)
(9.22814 0 0)
)
;
    }
    bottom
    {
        type            fixedValue;
        value           uniform (0 0 0);
    }
    frontAndBack
    {
        type            empty;
    }
    left_cyc
    {
        type            cyclic;
    }
    right_cyc
    {
        type            cyclic;
    }
    procBoundary0to1
    {
        type            processor;
        value           nonuniform List<vector> 
16
(
(-60.6627 0 0.853721)
(-94.0114 0 7.50003)
(-90.5571 0 18.1171)
(-71.404 0 28.6992)
(-46.2757 0 38.5877)
(-19.5606 0 46.6256)
(6.2862 0 51.8499)
(29.5745 0 53.6376)
(48.8141 0 51.6406)
(62.4877 0 45.9546)
(68.7628 0 37.4256)
(65.1106 0 26.7125)
(38.6052 0 23.4744)
(38.6052 0 23.4744)
(19.5125 0 8.83508)
(16.9218 0 4.02981)
)
;
    }
    procBoundary0to3throughleft_cyc
    {
        type            processorCyclic;
        value           nonuniform List<vector> 
15
(
(46.9909 0 0.960339)
(80.4647 0 1.33465)
(83.5825 0 -0.0487453)
(74.6338 0 -2.10928)
(59.782 0 -3.8479)
(40.1602 0 -4.68903)
(16.8286 0 -4.4559)
(-8.1043 0 -3.34205)
(-31.9723 0 -1.76851)
(-51.9645 0 -0.175207)
(-65.0839 0 1.1725)
(-68.3042 0 2.05317)
(-60.9124 0 3.77372)
(-55.8105 0 2.26784)
(-54.2743 0 2.72774)
)
;
    }
}


// ************************************************************************* //
