/*--------------------------------*- C++ -*----------------------------------*\
| =========                 |                                                 |
| \\      /  F ield         | OpenFOAM: The Open Source CFD Toolbox           |
|  \\    /   O peration     | Version:  2.3.0                                 |
|   \\  /    A nd           | Web:      www.OpenFOAM.org                      |
|    \\/     M anipulation  |                                                 |
\*---------------------------------------------------------------------------*/
FoamFile
{
    version     2.0;
    format      ascii;
    class       volVectorField;
    location    "3000";
    object      U;
}
// * * * * * * * * * * * * * * * * * * * * * * * * * * * * * * * * * * * * * //

dimensions      [0 1 -1 0 0 0 0];

internalField   nonuniform List<vector> 
191
(
(-67.0678 0 5.62105)
(-72.4804 0 6.90912)
(-77.5892 0 6.39967)
(-78.3708 0 1.56261)
(-70.0233 0 -7.38587)
(-54.0961 0 -16.7692)
(-32.215 0 -24.4433)
(-9.5062 0 -26.0529)
(12.7627 0 -25.3581)
(34.4845 0 -23.3879)
(55.1991 0 -16.6898)
(70.7581 0 -8.10224)
(79.8283 0 0.331128)
(-73.7614 0 3.85196)
(-67.9062 0 2.63258)
(-59.2292 0 -2.04355)
(-47.2524 0 -11.9812)
(-33.1686 0 -22.2007)
(-20.5466 0 -24.7534)
(-11.1885 0 -26.2166)
(-2.26831 0 -27.0036)
(6.92168 0 -26.6448)
(15.9635 0 -25.3039)
(25.1204 0 -23.3434)
(36.3684 0 -20.9492)
(49.0091 0 -13.457)
(-58.8598 0 -4.00783)
(-48.9658 0 -7.31949)
(-37.3967 0 -12.6436)
(-27.2599 0 -20.8964)
(-21.1282 0 -29.2646)
(-14.8014 0 -33.5277)
(-8.05047 0 -35.431)
(-1.10958 0 -36.0474)
(5.92707 0 -35.6584)
(12.9371 0 -34.3591)
(19.7813 0 -31.9895)
(26.0179 0 -27.7519)
(31.7717 0 -20.3897)
(-47.0998 0 -13.1573)
(-37.4845 0 -17.9264)
(-26.9331 0 -22.7295)
(-18.7844 0 -28.3049)
(-14.4435 0 -34.4192)
(-10.1936 0 -38.4961)
(-5.47343 0 -40.9348)
(-0.357043 0 -42.0262)
(4.94774 0 -41.7094)
(10.1401 0 -40.0313)
(14.9815 0 -37.0626)
(19.2648 0 -32.6043)
(23.3853 0 -26.1979)
(-36.8613 0 -21.5346)
(-28.8223 0 -27.4471)
(-20.1848 0 -31.2838)
(-12.8032 0 -33.8857)
(-9.4147 0 -38.3367)
(-6.36799 0 -42.3857)
(-3.15976 0 -45.1272)
(0.294362 0 -46.4223)
(3.87844 0 -46.1346)
(7.36596 0 -44.2891)
(10.6352 0 -41.0192)
(13.662 0 -36.4186)
(-25.1749 0 -27.9733)
(-19.4669 0 -34.9556)
(-13.2907 0 -38.5678)
(-7.45858 0 -38.7873)
(-5.03669 0 -41.2586)
(-3.10342 0 -44.845)
(-1.24375 0 -47.6775)
(0.772338 0 -49.1335)
(2.86348 0 -48.8556)
(4.87617 0 -46.8571)
(6.74312 0 -43.4766)
(8.68452 0 -39.2638)
(-10.6607 0 -31.856)
(-7.79314 0 -39.5774)
(-4.65171 0 -43.2244)
(-1.84458 0 -41.8695)
(-0.886719 0 -43.0098)
(-0.221545 0 -46.1249)
(0.390185 0 -48.9628)
(1.13825 0 -50.5149)
(1.93553 0 -50.2309)
(2.65953 0 -48.1267)
(3.24434 0 -44.7679)
(4.00855 0 -41.1324)
(6.40122 0 -33.1001)
(6.11418 0 -40.9625)
(5.7356 0 -44.4903)
(4.49918 0 -42.3754)
(3.32496 0 -43.0149)
(2.52287 0 -46.0993)
(1.92329 0 -49.046)
(1.47325 0 -50.6841)
(1.0745 0 -50.3856)
(0.589109 0 -48.177)
(-0.0557377 0 -44.7733)
(-0.742481 0 -41.4657)
(26.5097 0 -23.0713)
(24.2689 0 -31.6113)
(20.7476 0 -38.7466)
(16.6338 0 -41.7055)
(10.7947 0 -39.6482)
(7.62757 0 -40.8343)
(5.37564 0 -44.6878)
(3.5466 0 -47.9381)
(1.85419 0 -49.6692)
(0.209687 0 -49.3554)
(-1.52066 0 -47.0309)
(-3.3972 0 -43.35)
(-5.64772 0 -39.4245)
(44.2632 0 -20.3177)
(39.9245 0 -27.3404)
(33.5186 0 -32.8327)
(25.9365 0 -34.8171)
(16.0393 0 -34.0562)
(12.0101 0 -37.1594)
(8.60297 0 -42.0034)
(5.43772 0 -45.5684)
(2.33664 0 -47.3502)
(-0.761762 0 -47.0259)
(-3.8893 0 -44.6221)
(-7.06619 0 -40.522)
(-10.5979 0 -35.2047)
(55.6383 0 -16.0687)
(49.5713 0 -21.2224)
(41.1679 0 -24.777)
(30.9537 0 -25.4267)
(21.4258 0 -26.0586)
(16.902 0 -32.6596)
(12.4797 0 -38.1193)
(7.74824 0 -41.7288)
(2.95203 0 -43.4573)
(-1.90452 0 -43.1382)
(-6.6745 0 -40.7858)
(-11.3501 0 -36.5465)
(-15.7386 0 -30.4988)
(56.946 0 -10.5991)
(50.0657 0 -13.0072)
(42.1674 0 -13.3274)
(33.1503 0 -14.7785)
(27.7004 0 -20.4159)
(22.8114 0 -27.5997)
(16.9164 0 -32.8066)
(10.4184 0 -36.093)
(3.66441 0 -37.6549)
(-3.18564 0 -37.369)
(-9.84999 0 -35.2436)
(-16.211 0 -31.3679)
(-21.7254 0 -25.5473)
(53.2436 0 -3.73834)
(48.348 0 -5.46309)
(43.2482 0 -7.68487)
(39.1139 0 -10.8552)
(34.769 0 -15.8908)
(28.805 0 -21.6043)
(21.3098 0 -25.8991)
(13.0446 0 -28.6803)
(4.35362 0 -30.0163)
(-4.45847 0 -29.7831)
(-13.026 0 -27.988)
(-21.0656 0 -24.7399)
(-28.1582 0 -19.9187)
(54.1541 0 -2.05783)
(51.5619 0 -2.89948)
(48.42 0 -4.2549)
(44.716 0 -6.58058)
(39.9154 0 -9.85717)
(33.1534 0 -13.4549)
(24.6517 0 -16.3116)
(15.0811 0 -18.2242)
(4.88622 0 -19.1501)
(-5.47529 0 -18.9922)
(-15.5069 0 -17.7544)
(-24.759 0 -15.5281)
(-32.756 0 -12.3449)
(55.5323 0 0.832138)
(53.8636 0 0.0188285)
(51.6648 0 -1.2917)
(48.4756 0 -3.27298)
(43.5951 0 -5.84698)
(36.4746 0 -8.52995)
(27.3217 0 -10.731)
(16.7554 0 -12.2767)
(5.34176 0 -13.0574)
(-6.29945 0 -12.9728)
(-17.5058 0 -12.0291)
(-27.6605 0 -10.3313)
(-36.1825 0 -7.99028)
)
;

boundaryField
{
    top
    {
        type            directionMixed;
        refValue        uniform (0 0 0);
        refGradient     uniform (0 0 0);
        valueFraction   uniform (0 0 0 0 0 1);
        value           nonuniform List<vector> 
13
(
(55.5323 0 0)
(53.8636 0 0)
(51.6648 0 0)
(48.4756 0 0)
(43.5951 0 0)
(36.4746 0 0)
(27.3217 0 0)
(16.7554 0 0)
(5.34176 0 0)
(-6.29945 0 0)
(-17.5058 0 0)
(-27.6605 0 0)
(-36.1825 0 0)
)
;
    }
    bottom
    {
        type            fixedValue;
        value           uniform (0 0 0);
    }
    frontAndBack
    {
        type            empty;
    }
    left_cyc
    {
        type            cyclic;
    }
    right_cyc
    {
        type            cyclic;
    }
    procBoundary2to1
    {
        type            processor;
        value           nonuniform List<vector> 
16
(
(-62.4635 0 4.2054)
(-77.4545 0 3.89956)
(-66.5649 0 -1.68852)
(-54.9509 0 -8.72906)
(-43.3859 0 -15.2071)
(-29.6937 0 -20.1213)
(-12.934 0 -23.0212)
(6.40462 0 -23.9756)
(6.40462 0 -23.9756)
(27.8832 0 -15.3591)
(47.0121 0 -13.6679)
(59.6623 0 -10.908)
(61.9061 0 -7.41248)
(56.6011 0 -2.46271)
(56.1672 0 -1.41423)
(56.8534 0 1.3536)
)
;
    }
    procBoundary2to3
    {
        type            processor;
        value           nonuniform List<vector> 
16
(
(80.4588 0 6.11582)
(60.4155 0 -2.96605)
(39.0379 0 -11.7882)
(29.2932 0 -20.3672)
(16.9819 0 -30.9061)
(16.9819 0 -30.9061)
(11.1648 0 -35.7512)
(5.28084 0 -39.3265)
(-1.65933 0 -40.5478)
(-9.2476 0 -38.4579)
(-15.4315 0 -32.9703)
(-20.2748 0 -25.0303)
(-26.4937 0 -18.1167)
(-33.5786 0 -13.8476)
(-38.7841 0 -8.5534)
(-42.4458 0 -5.24244)
)
;
    }
}


// ************************************************************************* //
