/*--------------------------------*- C++ -*----------------------------------*\
| =========                 |                                                 |
| \\      /  F ield         | OpenFOAM: The Open Source CFD Toolbox           |
|  \\    /   O peration     | Version:  2.3.0                                 |
|   \\  /    A nd           | Web:      www.OpenFOAM.org                      |
|    \\/     M anipulation  |                                                 |
\*---------------------------------------------------------------------------*/
FoamFile
{
    version     2.0;
    format      ascii;
    class       volScalarField;
    location    "8000";
    object      p;
}
// * * * * * * * * * * * * * * * * * * * * * * * * * * * * * * * * * * * * * //

dimensions      [0 2 -2 0 0 0 0];

internalField   nonuniform List<scalar> 
192
(
-1662.31
-1671.16
-1679.82
-1688.95
-1699.47
-1712.34
-1728.08
-1746.13
-1764.44
-1779.16
-1784.55
-1775.7
-1759.46
-1497.13
-1505.63
-1514.37
-1523.68
-1533.89
-1545.22
-1557.58
-1570.46
-1582.32
-1591.02
-1594.24
-1588.98
-1579.19
-1359.47
-1366.51
-1373.96
-1381.89
-1390.31
-1399.17
-1408.26
-1416.87
-1423.81
-1428.09
-1429.66
-1427.11
-1422.09
-1236.94
-1241.9
-1247.17
-1252.66
-1258.29
-1263.99
-1269.51
-1274.12
-1276.97
-1277.91
-1278.16
-1277.75
-1276.41
-1118.01
-1120.81
-1123.72
-1126.67
-1129.59
-1132.47
-1135.1
-1136.88
-1137.2
-1136.22
-1135.63
-1136.56
-1137.33
-996.807
-997.795
-998.744
-999.624
-1000.43
-1001.15
-1001.6
-1001.41
-1000.17
-998.128
-997.075
-998.772
-1000.72
-871.24
-870.847
-870.349
-869.763
-869.09
-868.243
-867.102
-865.44
-863.083
-860.345
-859.085
-861.168
-863.92
-741.063
-739.677
-738.18
-736.576
-734.822
-732.802
-730.404
-727.517
-724.205
-721.013
-719.684
-721.926
-725.267
-606.929
-604.786
-602.518
-600.079
-597.387
-594.335
-590.811
-586.839
-582.717
-579.23
-577.873
-580.175
-583.943
-469.785
-466.89
-463.847
-460.562
-456.922
-452.817
-448.197
-443.215
-438.363
-434.607
-433.205
-435.558
-439.715
-331.3
-327.401
-323.345
-318.992
-314.202
-308.877
-303.035
-296.951
-291.272
-287.104
-285.591
-288.072
-292.752
-195.358
-189.935
-184.409
-178.586
-172.292
-165.426
-158.049
-150.526
-143.652
-138.701
-136.925
-139.748
-145.335
-68.1171
-60.2505
-52.1667
-43.7022
-34.7259
-25.1902
-15.2381
-5.3498
3.52738
9.90393
12.1999
8.66669
23.5726
33.1784
42.8984
52.9268
63.5311
74.9561
87.2562
100.016
112.039
121.079
124.466
119.354
75.3905
70.5915
64.8087
58.0514
50.1905
41.04
30.5115
18.8678
7.15018
-2.44011
-5.94537
-1.09832
)
;

boundaryField
{
    top
    {
        type            calculated;
        value           nonuniform List<scalar> 
12
(
-9.81
-9.81
-9.81
-9.81
-9.81
-9.81
-9.81
-9.81
-9.81
-9.81
-9.81
-9.81
)
;
    }
    bottom
    {
        type            calculated;
        value           nonuniform List<scalar> 
13
(
-1753.31
-1762.32
-1770.87
-1779.77
-1790.11
-1803.08
-1819.4
-1838.1
-1857.28
-1873.16
-1879.26
-1869.35
-1851.99
)
;
    }
    frontAndBack
    {
        type            empty;
    }
    left_cyc
    {
        type            cyclic;
    }
    right_cyc
    {
        type            cyclic;
    }
    procBoundary0to1
    {
        type            processor;
        value           nonuniform List<scalar> 
16
(
-1740.79
-1566.74
-1414.5
-1272.99
-1136.58
-1001.66
-866.104
-728.516
-588.115
-444.719
-298.676
-152.538
1.48732
1.48732
109.278
9.04337
)
;
    }
    procBoundary0to3throughleft_cyc
    {
        type            processorCyclic;
        value           nonuniform List<scalar> 
15
(
-1652.81
-1488.58
-1352.76
-1232.32
-1115.4
-995.83
-871.528
-742.321
-608.967
-472.612
-335.181
-200.878
-75.9594
14.1111
79.1909
)
;
    }
}


// ************************************************************************* //
