/*--------------------------------*- C++ -*----------------------------------*\
| =========                 |                                                 |
| \\      /  F ield         | OpenFOAM: The Open Source CFD Toolbox           |
|  \\    /   O peration     | Version:  2.3.0                                 |
|   \\  /    A nd           | Web:      www.OpenFOAM.org                      |
|    \\/     M anipulation  |                                                 |
\*---------------------------------------------------------------------------*/
FoamFile
{
    version     2.0;
    format      ascii;
    class       volScalarField;
    location    "8000";
    object      p_rgh;
}
// * * * * * * * * * * * * * * * * * * * * * * * * * * * * * * * * * * * * * //

dimensions      [0 2 -2 0 0 0 0];

internalField   nonuniform List<scalar> 
192
(
-1753.31
-1762.32
-1770.87
-1779.77
-1790.11
-1803.08
-1819.4
-1838.1
-1857.28
-1873.16
-1879.26
-1869.35
-1851.99
-1722.42
-1732.23
-1741.51
-1750.88
-1761.27
-1773.77
-1788.95
-1807.32
-1828.32
-1849.23
-1859.57
-1843.7
-1822.24
-1679.03
-1689.78
-1700.1
-1710.37
-1721.2
-1733.55
-1748.91
-1770.76
-1800.05
-1834.04
-1852.63
-1824.62
-1790.96
-1650.54
-1661.52
-1672.28
-1682.77
-1693.08
-1703.92
-1718.44
-1742.06
-1778.9
-1826.58
-1853.53
-1813.19
-1766.96
-1649.42
-1659.11
-1668.8
-1677.92
-1685.97
-1693.62
-1705.1
-1727.58
-1769.53
-1828.68
-1862.16
-1812.12
-1755.45
-1669.37
-1677.26
-1684.93
-1691.35
-1695.7
-1699.27
-1705.76
-1725.76
-1771.17
-1838.31
-1875.49
-1819.86
-1755.61
-1699.85
-1705.81
-1710.79
-1713.6
-1713.69
-1713.07
-1716.71
-1736.56
-1783.04
-1850.99
-1888.94
-1832.72
-1767.48
-1732.82
-1736.42
-1738.32
-1738.15
-1736.84
-1735.15
-1739.39
-1758.52
-1801.05
-1863.01
-1899.71
-1846.65
-1787.24
-1762.45
-1764.69
-1765.63
-1765.41
-1764.22
-1764.07
-1769.36
-1786.49
-1821.94
-1873.58
-1906.95
-1860.33
-1810.9
-1785.28
-1788.9
-1791.3
-1792.62
-1793.5
-1795.45
-1801.28
-1815.4
-1842.51
-1881.98
-1910.2
-1872.42
-1834.62
-1786.82
-1795.21
-1802.4
-1808.49
-1813.81
-1819.19
-1826.35
-1838.12
-1857.78
-1885.67
-1907.57
-1879.63
-1852.77
-1732.24
-1750
-1766.33
-1781.34
-1795.14
-1807.95
-1820.45
-1834.04
-1850.6
-1870.75
-1886.67
-1867.17
-1847.26
-1548.45
-1577.97
-1605.59
-1631.66
-1656.4
-1679.9
-1702.19
-1723.44
-1743.91
-1763.15
-1775.44
-1760.18
-1150.03
-1184.28
-1217.01
-1248.4
-1278.38
-1306.64
-1332.73
-1356.21
-1376.69
-1393.34
-1401.61
-1390.84
-425.095
-455.921
-487.471
-519.831
-553.089
-587.171
-621.609
-655.226
-685.646
-708.772
-717.548
-705.177
)
;

boundaryField
{
    top
    {
        type            fixedValue;
        value           uniform 0;
    }
    bottom
    {
        type            fixedFluxPressure;
        gradient        uniform 0;
        value           nonuniform List<scalar> 
13
(
-1753.31
-1762.32
-1770.87
-1779.77
-1790.11
-1803.08
-1819.4
-1838.1
-1857.28
-1873.16
-1879.26
-1869.35
-1851.99
)
;
    }
    frontAndBack
    {
        type            empty;
    }
    left_cyc
    {
        type            cyclic;
    }
    right_cyc
    {
        type            cyclic;
    }
    procBoundary0to1
    {
        type            processor;
        value           nonuniform List<scalar> 
16
(
-1832.51
-1801.7
-1763.41
-1733.72
-1719.19
-1717.63
-1728.45
-1751.12
-1780.37
-1810.91
-1835.11
-1831.38
-1740.16
-1740.16
-1372.95
-679.982
)
;
    }
    procBoundary0to3throughleft_cyc
    {
        type            processorCyclic;
        value           nonuniform List<scalar> 
15
(
-1743.43
-1711.51
-1667.67
-1639.39
-1640.13
-1662.03
-1693.96
-1728.33
-1759.03
-1780.47
-1777.18
-1712.94
-1516.78
-1113.95
-394.975
)
;
    }
}


// ************************************************************************* //
