/*--------------------------------*- C++ -*----------------------------------*\
| =========                 |                                                 |
| \\      /  F ield         | OpenFOAM: The Open Source CFD Toolbox           |
|  \\    /   O peration     | Version:  2.3.0                                 |
|   \\  /    A nd           | Web:      www.OpenFOAM.org                      |
|    \\/     M anipulation  |                                                 |
\*---------------------------------------------------------------------------*/
FoamFile
{
    version     2.0;
    format      ascii;
    class       surfaceScalarField;
    location    "8000";
    object      phi;
}
// * * * * * * * * * * * * * * * * * * * * * * * * * * * * * * * * * * * * * //

dimensions      [0 3 -1 0 0 0 0];

internalField   nonuniform List<scalar> 
356
(
0.307831
0.0027276
0.312405
-0.00457433
0.326037
-0.0136318
0.348726
-0.022689
0.37669
-0.0279639
0.400062
-0.0233722
0.401811
-0.00174939
0.359956
0.0418558
0.253384
0.106571
0.0765792
0.176805
-0.131529
0.208108
-0.2911
0.159571
0.0878255
0.546328
-0.00513237
0.560895
-0.0191416
0.582572
-0.0353094
0.6094
-0.0495166
0.635263
-0.0538266
0.64789
-0.0359988
0.62748
0.0186603
0.54664
0.122696
0.377687
0.275524
0.112664
0.441828
-0.193746
0.514518
-0.435294
0.401119
0.231148
0.577307
-0.0195324
0.594711
-0.0365457
0.614302
-0.0549009
0.633372
-0.0685863
0.64626
-0.066715
0.643049
-0.0327877
0.608138
0.0535718
0.519892
0.210942
0.354795
0.44062
0.105133
0.691491
-0.180256
0.799907
-0.409361
0.630224
0.373842
0.516361
-0.0326308
0.52915
-0.0493347
0.540156
-0.0659076
0.546712
-0.075142
0.544459
-0.0644617
0.526659
-0.0149875
0.483448
0.0967826
0.401951
0.292438
0.268142
0.57443
0.0785423
0.881091
-0.133607
1.01206
-0.310081
0.806699
0.49282
0.408675
-0.0394814
0.41279
-0.0534497
0.41264
-0.0657574
0.406167
-0.0686686
0.390657
-0.0489522
0.362543
0.013127
0.317558
0.141767
0.251122
0.358875
0.159601
0.665951
0.0455573
0.995134
-0.075984
1.1336
-0.185606
0.916321
0.578068
0.266712
-0.038478
0.261603
-0.0483402
0.251287
-0.0554413
0.234665
-0.0520473
0.210735
-0.0250213
0.178837
0.0450247
0.139341
0.181263
0.0944263
0.403789
0.049562
0.710815
0.012619
1.03208
-0.0187006
1.16492
-0.0590666
0.956687
0.62448
0.10117
-0.0305058
0.0888369
-0.0360069
0.0716679
-0.0382724
0.0495133
-0.0298926
0.0228302
0.00166181
-0.0065299
0.0743848
-0.0345761
0.209309
-0.0535774
0.422791
-0.0511293
0.708367
-0.0169135
0.997861
0.0322427
1.11576
0.0572391
0.93169
0.629937
-0.0714349
-0.0181105
-0.0878388
-0.019603
-0.108226
-0.0178851
-0.131959
-0.0061598
-0.157187
0.0268903
-0.179838
0.0970352
-0.192552
0.222023
-0.183193
0.413432
-0.135744
0.660918
-0.0412469
0.903364
0.0734618
1.00105
0.155493
0.84966
0.594819
-0.232638
-0.00425757
-0.250249
-0.0019925
-0.271214
0.00308069
-0.294057
0.0166831
-0.315394
0.0482274
-0.328951
0.110592
-0.324363
0.217436
-0.286882
0.375951
-0.200322
0.574358
-0.059574
0.762616
0.103426
0.838052
0.230724
0.722361
0.522942
-0.364708
0.00875663
-0.381384
0.0146831
-0.400932
0.0226289
-0.421043
0.0367943
-0.436984
0.0641679
-0.440548
0.114157
-0.419378
0.196266
-0.357966
0.314539
-0.242203
0.458595
-0.0714165
0.591829
0.12138
0.645256
0.279355
0.564385
0.422395
-0.449181
0.0195628
-0.463113
0.0286155
-0.479158
0.0386739
-0.494597
0.0522334
-0.504012
0.0735819
-0.498329
0.108474
-0.46467
0.162607
-0.388256
0.238124
-0.257768
0.328107
-0.0759353
0.409996
0.126159
0.443162
0.296801
0.393743
0.306178
-0.466746
0.0272583
-0.475806
0.0376755
-0.485435
0.048303
-0.493358
0.0601558
-0.49482
0.0750446
-0.481733
0.0953875
-0.442694
0.123567
-0.365023
0.160454
-0.239906
0.20299
-0.0711586
0.241249
0.114926
0.257077
0.274729
0.23394
-0.411267
0.0300328
-0.412056
0.0384644
-0.410678
0.0469247
-0.40617
0.0556481
-0.396004
0.0648779
-0.375427
0.0748109
-0.337369
0.0855093
-0.273657
0.0967418
-0.178378
0.107711
-0.0537895
0.11666
0.0830352
0.120252
0.115104
-0.357032
0.0185526
-0.341201
0.0226331
-0.321053
0.0267762
-0.296458
0.0310534
-0.267088
0.0355077
-0.232388
0.0401113
-0.191601
0.0447219
-0.1439
0.0490408
-0.0887981
0.0526093
-0.0270513
0.0549137
0.037607
0.0555938
0.0545509
-0.344908
-0.327852
-0.306394
-0.280338
-0.24944
-0.213475
-0.172351
-0.12629
-0.0760291
-0.0229415
0.0310168
)
;

boundaryField
{
    top
    {
        type            calculated;
        value           nonuniform List<scalar> 
12
(
0.00577224
0.00557739
0.00531764
0.00499721
0.00461016
0.00414588
0.00359819
0.00298004
0.00234833
0.00182606
0.00163557
0.00189861
)
;
    }
    bottom
    {
        type            calculated;
        value           uniform 0;
    }
    frontAndBack
    {
        type            empty;
        value           nonuniform 0();
    }
    left_cyc
    {
        type            cyclic;
        value           nonuniform 0();
    }
    right_cyc
    {
        type            cyclic;
        value           nonuniform 0();
    }
    procBoundary0to1
    {
        type            processor;
        value           nonuniform List<scalar> 
16
(
-0.378925
-0.578617
-0.552055
-0.429059
-0.270854
-0.105479
0.0517823
0.190611
0.302601
0.379903
0.413018
0.387904
0.193003
0.201871
0.0981599
0.083669
)
;
    }
    procBoundary0to3throughleft_cyc
    {
        type            processorCyclic;
        value           nonuniform List<scalar> 
15
(
-0.310559
-0.538468
-0.562907
-0.503262
-0.401825
-0.267716
-0.109142
0.0590396
0.218785
0.351694
0.438375
0.459051
0.408493
0.368513
0.357688
)
;
    }
}


// ************************************************************************* //
