/*--------------------------------*- C++ -*----------------------------------*\
| =========                 |                                                 |
| \\      /  F ield         | OpenFOAM: The Open Source CFD Toolbox           |
|  \\    /   O peration     | Version:  2.3.0                                 |
|   \\  /    A nd           | Web:      www.OpenFOAM.org                      |
|    \\/     M anipulation  |                                                 |
\*---------------------------------------------------------------------------*/
FoamFile
{
    version     2.0;
    format      ascii;
    class       volVectorField;
    location    "8000";
    object      U;
}
// * * * * * * * * * * * * * * * * * * * * * * * * * * * * * * * * * * * * * //

dimensions      [0 1 -1 0 0 0 0];

internalField   nonuniform List<vector> 
192
(
(46.1661 0 0.582288)
(46.2364 0 0.00799872)
(47.5688 0 -0.760656)
(50.353 0 -1.62307)
(54.382 0 -2.29848)
(58.6918 0 -2.2952)
(61.2582 0 -1.00491)
(59.0314 0 1.9092)
(48.467 0 6.3274)
(26.7933 0 11.1537)
(-4.47439 0 13.3403)
(-34.0714 0 9.96238)
(-52.6111 0 5.04175)
(81.1455 0 0.166709)
(82.7847 0 -1.53149)
(85.5195 0 -3.57445)
(89.2882 0 -5.51693)
(93.5561 0 -6.46053)
(97.0132 0 -5.00001)
(97.2995 0 0.508286)
(90.7666 0 11.3495)
(72.9426 0 27.3348)
(40.0135 0 44.6412)
(-6.67102 0 52.2593)
(-50.8507 0 40.4073)
(-79.4591 0 22.7059)
(85.4057 0 -1.81762)
(87.7941 0 -4.28548)
(90.625 0 -7.04288)
(93.6679 0 -9.3012)
(96.3401 0 -9.5967)
(97.5202 0 -5.70219)
(95.3337 0 5.10213)
(86.9883 0 25.2304)
(68.8529 0 54.708)
(37.5379 0 86.8267)
(-6.20001 0 100.764)
(-47.631 0 78.976)
(-75.1523 0 46.1405)
(76.465 0 -4.05441)
(78.4413 0 -6.68121)
(80.299 0 -9.40793)
(81.7425 0 -11.2194)
(82.2659 0 -10.317)
(81.0551 0 -3.98714)
(76.8833 0 11.1476)
(68.0723 0 38.2054)
(52.4753 0 77.5317)
(28.074 0 120.482)
(-4.51047 0 138.942)
(-35.5917 0 110.015)
(-57.5239 0 66.1051)
(60.8641 0 -5.66891)
(61.7337 0 -8.03865)
(62.0981 0 -10.2672)
(61.6908 0 -11.2116)
(60.1573 0 -8.90206)
(57.0249 0 -0.387902)
(51.6924 0 17.9827)
(43.5189 0 49.5579)
(31.8144 0 94.7003)
(16.23 0 143.535)
(-2.41959 0 164.242)
(-20.5749 0 131.748)
(-35.2248 0 81.6901)
(40.2139 0 -6.14011)
(39.7962 0 -7.95651)
(38.6824 0 -9.42038)
(36.7035 0 -9.35496)
(33.6945 0 -5.75754)
(29.513 0 4.34618)
(24.1087 0 24.5662)
(17.6565 0 58.1137)
(10.6796 0 105.018)
(4.37368 0 154.78)
(-0.370841 0 175.529)
(-5.53303 0 142.969)
(-12.3043 0 91.6957)
(15.9252 0 -5.39801)
(14.4258 0 -6.54407)
(12.2266 0 -7.21906)
(9.27373 0 -6.27621)
(5.57349 0 -1.76693)
(1.2661 0 9.14778)
(-3.244 0 29.8187)
(-7.14677 0 63.0299)
(-8.90468 0 108.177)
(-6.23693 0 154.693)
(1.39283 0 173.755)
(7.96507 0 143.914)
(9.08337 0 95.6213)
(-9.63845 0 -3.75857)
(-11.7907 0 -4.26966)
(-14.5606 0 -4.27986)
(-17.9109 0 -2.70785)
(-21.6863 0 2.25496)
(-25.4795 0 13.1696)
(-28.4821 0 32.9818)
(-29.2805 0 63.8004)
(-25.6285 0 104.294)
(-14.9033 0 144.587)
(2.73926 0 160.879)
(19.0078 0 135.523)
(27.5137 0 93.3303)
(-33.716 0 -1.68729)
(-36.0772 0 -1.62336)
(-39.0014 0 -1.09262)
(-42.3704 0 0.860461)
(-45.8562 0 5.81596)
(-48.7724 0 15.945)
(-49.9117 0 33.6178)
(-47.3714 0 60.2086)
(-38.6154 0 93.9524)
(-21.3122 0 126.391)
(3.62651 0 139.401)
(27.1431 0 119.341)
(41.956 0 85.0866)
(-53.5919 0 0.400185)
(-55.8277 0 1.02134)
(-58.5963 0 2.01752)
(-61.6938 0 4.14684)
(-64.6297 0 8.65492)
(-66.4707 0 17.2269)
(-65.68 0 31.5926)
(-60.0863 0 52.5437)
(-47.2031 0 78.3239)
(-25.313 0 102.382)
(4.05657 0 112.006)
(32.1288 0 97.3466)
(51.5685 0 71.7605)
(-66.4483 0 2.23846)
(-68.3186 0 3.40179)
(-70.6289 0 4.79896)
(-73.1321 0 6.93105)
(-75.2572 0 10.6451)
(-75.9452 0 17.0757)
(-73.5274 0 27.3464)
(-65.8085 0 41.8833)
(-50.5504 0 59.34)
(-26.6486 0 75.2912)
(4.02603 0 81.7073)
(33.6139 0 72.0797)
(55.3169 0 55.0346)
(-69.386 0 3.50558)
(-70.6542 0 5.03954)
(-72.1048 0 6.6193)
(-73.542 0 8.49948)
(-74.476 0 11.1282)
(-73.9657 0 15.107)
(-70.52 0 21.0315)
(-62.2093 0 29.1287)
(-47.1641 0 38.6763)
(-24.6692 0 47.3286)
(3.48189 0 50.877)
(30.7919 0 45.6488)
(51.5001 0 36.3927)
(-61.5617 0 5.35636)
(-61.8288 0 7.10026)
(-61.7988 0 8.89586)
(-61.4148 0 10.7867)
(-60.4419 0 12.8527)
(-58.3512 0 15.196)
(-54.2415 0 17.9112)
(-46.8922 0 21.0158)
(-35.0752 0 24.3187)
(-18.292 0 27.2166)
(2.31716 0 28.4553)
(22.3923 0 26.6926)
(-54.58 0 3.06066)
(-52.5296 0 3.87349)
(-49.8333 0 4.66888)
(-46.4862 0 5.46843)
(-42.4549 0 6.27836)
(-37.6726 0 7.08275)
(-32.038 0 7.83902)
(-25.4242 0 8.47884)
(-17.7107 0 8.9245)
(-8.88618 0 9.13526)
(0.816197 0 9.16454)
(10.4096 0 9.11045)
(-52.8532 0 2.94035)
(-50.6192 0 3.12614)
(-47.7365 0 3.29672)
(-44.1814 0 3.45651)
(-39.9195 0 3.60762)
(-34.9123 0 3.74873)
(-29.1306 0 3.87485)
(-22.5769 0 3.97779)
(-15.3149 0 4.04909)
(-7.50238 0 4.08509)
(0.615048 0 4.09409)
(8.6966 0 4.07438)
)
;

boundaryField
{
    top
    {
        type            directionMixed;
        refValue        uniform (0 0 0);
        refGradient     uniform (0 0 0);
        valueFraction   uniform (0 0 0 0 0 1);
        value           nonuniform List<vector> 
12
(
(-52.8532 0 0)
(-50.6192 0 0)
(-47.7365 0 0)
(-44.1814 0 0)
(-39.9195 0 0)
(-34.9123 0 0)
(-29.1306 0 0)
(-22.5769 0 0)
(-15.3149 0 0)
(-7.50238 0 0)
(0.615048 0 0)
(8.6966 0 0)
)
;
    }
    bottom
    {
        type            fixedValue;
        value           uniform (0 0 0);
    }
    frontAndBack
    {
        type            empty;
    }
    left_cyc
    {
        type            cyclic;
    }
    right_cyc
    {
        type            cyclic;
    }
    procBoundary0to1
    {
        type            processor;
        value           nonuniform List<vector> 
16
(
(-60.6342 0 0.963384)
(-93.8518 0 7.90071)
(-90.3184 0 18.8549)
(-71.1275 0 29.6904)
(-46.0021 0 39.748)
(-19.328 0 47.8614)
(6.44568 0 53.0747)
(29.6348 0 54.7721)
(48.757 0 52.6147)
(62.3095 0 46.7168)
(68.477 0 37.9514)
(64.7445 0 27.0055)
(38.0305 0 23.5948)
(38.0305 0 23.5948)
(18.998 0 8.85443)
(16.4124 0 4.02651)
)
;
    }
    procBoundary0to3throughleft_cyc
    {
        type            processorCyclic;
        value           nonuniform List<vector> 
15
(
(47.0293 0 0.976013)
(80.4223 0 1.38583)
(83.4769 0 0.0347041)
(74.5138 0 -2.01237)
(59.6805 0 -3.75209)
(40.0978 0 -4.60862)
(16.8164 0 -4.40223)
(-8.07278 0 -3.32062)
(-31.9206 0 -1.78045)
(-51.9228 0 -0.220186)
(-65.0774 0 1.09747)
(-68.3465 0 1.9555)
(-61.0019 0 3.6762)
(-55.972 0 2.2178)
(-54.452 0 2.73678)
)
;
    }
}


// ************************************************************************* //
