/*--------------------------------*- C++ -*----------------------------------*\
| =========                 |                                                 |
| \\      /  F ield         | OpenFOAM: The Open Source CFD Toolbox           |
|  \\    /   O peration     | Version:  2.3.0                                 |
|   \\  /    A nd           | Web:      www.OpenFOAM.org                      |
|    \\/     M anipulation  |                                                 |
\*---------------------------------------------------------------------------*/
FoamFile
{
    version     2.0;
    format      ascii;
    class       volScalarField;
    location    "9000";
    object      p_rgh;
}
// * * * * * * * * * * * * * * * * * * * * * * * * * * * * * * * * * * * * * //

dimensions      [0 2 -2 0 0 0 0];

internalField   nonuniform List<scalar> 
191
(
-1831.62
-1813.45
-1798.13
-1786.1
-1776.33
-1767.63
-1759
-1749.73
-1739.53
-1728.28
-1715.82
-1701.91
-1686.17
-1800.85
-1783.55
-1768.98
-1757.23
-1747.26
-1737.99
-1728.6
-1718.52
-1707.14
-1694.54
-1680.71
-1665.51
-1648.69
-1762.45
-1742.77
-1728.77
-1717.04
-1706.44
-1696.17
-1685.72
-1674.75
-1663.14
-1650.28
-1636.2
-1621.03
-1604.77
-1732.58
-1712.33
-1699.77
-1689.27
-1678.91
-1668.29
-1657.42
-1646.35
-1635.12
-1623.74
-1612.13
-1600.3
-1588.31
-1718.07
-1700.2
-1690.66
-1683.15
-1674.72
-1665.32
-1655.54
-1645.92
-1636.77
-1628.2
-1620.16
-1612.36
-1604.14
-1716.6
-1702.44
-1697.81
-1694.36
-1689.29
-1682.33
-1674.46
-1666.66
-1659.57
-1653.43
-1648.09
-1642.99
-1636.98
-1727.4
-1714.14
-1713.41
-1713.89
-1712.92
-1709.29
-1703.87
-1697.82
-1692.1
-1687.22
-1683.16
-1679.3
-1674.2
-1750.14
-1736.79
-1735.33
-1737.15
-1738.38
-1737.94
-1735.45
-1731.48
-1726.89
-1722.36
-1718.16
-1713.85
-1707.95
-1779.55
-1766.87
-1763.87
-1764.74
-1765.69
-1765.59
-1764.28
-1761.66
-1757.94
-1753.4
-1748.12
-1741.66
-1810.31
-1799.22
-1794.96
-1793.58
-1792.66
-1791.07
-1788.3
-1784.3
-1779.12
-1772.71
-1764.77
-1754.54
-1834.69
-1824.57
-1818.15
-1812.89
-1807.37
-1800.95
-1793.39
-1784.61
-1774.58
-1763.23
-1749.7
-1733.12
-1830.88
-1817.68
-1805.12
-1792
-1777.81
-1762.37
-1745.6
-1727.37
-1707.58
-1686.35
-1664.13
-1638.89
-1739.26
-1718.41
-1696.76
-1674.01
-1650.07
-1624.9
-1598.38
-1570.22
-1540.06
-1507.78
-1474.2
-1441.06
-1408.78
-1371.97
-1350.5
-1326.15
-1299.31
-1270.46
-1240.02
-1208.24
-1175.1
-1140.35
-1103.68
-1065.38
-1025.93
-985.264
-678.06
-646.424
-612.422
-578.056
-544.244
-511.307
-479.248
-447.954
-417.361
-387.44
-357.751
-328.815
-303.775
)
;

boundaryField
{
    top
    {
        type            fixedValue;
        value           uniform 0;
    }
    bottom
    {
        type            fixedFluxPressure;
        gradient        uniform 0;
        value           nonuniform List<scalar> 
13
(
-1831.62
-1813.45
-1798.13
-1786.1
-1776.33
-1767.63
-1759
-1749.73
-1739.53
-1728.28
-1715.82
-1701.91
-1686.17
)
;
    }
    frontAndBack
    {
        type            empty;
    }
    left_cyc
    {
        type            cyclic;
    }
    right_cyc
    {
        type            cyclic;
    }
    procBoundary1to0
    {
        type            processor;
        value           nonuniform List<scalar> 
16
(
-1851.07
-1821.22
-1789.52
-1765.05
-1753.18
-1753.08
-1764.87
-1784.9
-1809.01
-1833.27
-1851.89
-1846.57
-1846.57
-1759.25
-1389.96
-703.786
)
;
    }
    procBoundary1to2
    {
        type            processor;
        value           nonuniform List<scalar> 
16
(
-1668.01
-1629.84
-1587.47
-1575.74
-1594.32
-1628.24
-1665.47
-1697.71
-1732.61
-1732.61
-1740.4
-1711.68
-1608.98
-1372.5
-944.65
-284.389
)
;
    }
}


// ************************************************************************* //
