/*--------------------------------*- C++ -*----------------------------------*\
| =========                 |                                                 |
| \\      /  F ield         | OpenFOAM: The Open Source CFD Toolbox           |
|  \\    /   O peration     | Version:  2.3.0                                 |
|   \\  /    A nd           | Web:      www.OpenFOAM.org                      |
|    \\/     M anipulation  |                                                 |
\*---------------------------------------------------------------------------*/
FoamFile
{
    version     2.0;
    format      ascii;
    class       volScalarField;
    location    "9000";
    object      T;
}
// * * * * * * * * * * * * * * * * * * * * * * * * * * * * * * * * * * * * * //

dimensions      [0 0 0 1 0 0 0];

internalField   nonuniform List<scalar> 
191
(
40.3041
40.0188
39.837
39.8455
39.9446
40.037
40.0537
39.9481
39.7579
39.5112
39.2078
38.8367
38.3787
34.4075
33.7618
33.4026
33.2934
33.2855
33.2635
33.1541
32.924
32.5247
32.0046
31.3875
30.6769
29.8637
30.6567
29.7147
29.2821
29.0216
28.8194
28.6028
28.3287
27.9762
27.5417
26.9843
26.3189
25.563
24.7177
28.9132
27.9601
27.5275
27.227
26.9293
26.6053
26.2499
25.862
25.4418
24.99
24.5043
23.989
23.451
28.446
27.6803
27.3509
27.1271
26.8596
26.5454
26.2102
25.8758
25.5539
25.2486
24.9572
24.6696
24.3624
28.6102
28.0492
27.8873
27.7801
27.6117
27.3705
27.0955
26.8242
26.5801
26.3711
26.1922
26.0239
25.8276
29.1598
28.6636
28.6044
28.5948
28.5401
28.3989
28.2001
27.9842
27.7827
27.6123
27.473
27.3452
27.1845
29.971
29.5015
29.3929
29.3901
29.3762
29.3174
29.2016
29.0461
28.8763
28.7127
28.563
28.4152
28.228
30.8359
30.4098
30.2459
30.1926
30.15
30.086
29.9947
29.8727
29.7249
29.5584
29.3752
29.1638
31.619
31.2499
31.0488
30.9257
30.8233
30.7127
30.5797
30.4213
30.2367
30.0233
29.7725
29.4665
32.1749
31.8371
31.5842
31.3667
31.1545
30.9318
30.6906
30.4264
30.1356
29.8137
29.4388
28.9921
32.0989
31.7036
31.326
30.9484
30.561
30.1581
29.7343
29.2835
28.8
28.2815
27.7316
27.1116
30.6343
30.1055
29.5506
28.979
28.395
27.7993
27.1883
26.5545
25.8885
25.1844
24.4474
23.6962
22.9451
24.1641
23.6133
23.0112
22.3796
21.73
21.067
20.3902
19.6953
18.9757
18.2284
17.4623
16.6947
15.9362
10.537
10.2372
9.89412
9.5265
9.14658
8.76136
8.3737
7.98331
7.58854
7.19
6.79489
6.41076
6.03702
)
;

boundaryField
{
    top
    {
        type            fixedValue;
        value           uniform 0;
    }
    bottom
    {
        type            fixedValue;
        value           uniform 43.8;
    }
    frontAndBack
    {
        type            empty;
    }
    left_cyc
    {
        type            cyclic;
    }
    right_cyc
    {
        type            cyclic;
    }
    procBoundary1to0
    {
        type            processor;
        value           nonuniform List<scalar> 
16
(
40.6533
35.5581
32.356
30.7248
30.1144
30.0979
30.4943
31.0799
31.702
32.2635
32.6574
32.5352
32.5352
31.1123
24.6213
10.7668
)
;
    }
    procBoundary1to2
    {
        type            processor;
        value           nonuniform List<scalar> 
16
(
37.8073
28.9241
23.7867
22.8686
23.9893
25.5395
26.9149
27.9216
28.8885
28.8885
29.0674
28.4347
26.3886
22.1244
15.2216
5.67608
)
;
    }
}


// ************************************************************************* //
