/*--------------------------------*- C++ -*----------------------------------*\
| =========                 |                                                 |
| \\      /  F ield         | OpenFOAM: The Open Source CFD Toolbox           |
|  \\    /   O peration     | Version:  2.3.0                                 |
|   \\  /    A nd           | Web:      www.OpenFOAM.org                      |
|    \\/     M anipulation  |                                                 |
\*---------------------------------------------------------------------------*/
FoamFile
{
    version     2.0;
    format      ascii;
    class       volVectorField;
    location    "9000";
    object      U;
}
// * * * * * * * * * * * * * * * * * * * * * * * * * * * * * * * * * * * * * //

dimensions      [0 1 -1 0 0 0 0];

internalField   nonuniform List<vector> 
191
(
(-60.7163 0 0.782071)
(-61.0067 0 -1.58673)
(-57.5689 0 -2.42526)
(-53.1389 0 -2.14758)
(-49.4158 0 -1.36351)
(-47.0752 0 -0.505009)
(-46.1607 0 0.209222)
(-46.4151 0 0.724658)
(-47.5019 0 1.07616)
(-49.144 0 1.35652)
(-51.1975 0 1.65081)
(-53.6223 0 2.03901)
(-56.4677 0 2.61217)
(-94.1682 0 7.23824)
(-98.0164 0 -1.832)
(-96.3287 0 -5.89773)
(-92.3761 0 -6.39995)
(-88.1393 0 -4.99476)
(-84.6451 0 -2.93681)
(-82.2447 0 -0.965025)
(-80.902 0 0.591374)
(-80.3924 0 1.66668)
(-80.4125 0 2.37415)
(-80.6387 0 2.85698)
(-80.7637 0 3.23206)
(-80.4703 0 3.58388)
(-90.7614 0 17.6359)
(-96.7291 0 0.637593)
(-97.5541 0 -7.66008)
(-95.7228 0 -9.91641)
(-92.8251 0 -8.77382)
(-89.7895 0 -6.2234)
(-87.0685 0 -3.49275)
(-84.811 0 -1.19574)
(-82.9865 0 0.442031)
(-81.4316 0 1.40777)
(-79.8728 0 1.78235)
(-77.9514 0 1.63764)
(-75.2281 0 1.00527)
(-71.6201 0 28.0548)
(-78.7297 0 5.02421)
(-81.8011 0 -6.90116)
(-82.3516 0 -11.1328)
(-81.4609 0 -10.9068)
(-79.8351 0 -8.6433)
(-77.9056 0 -5.86439)
(-75.9157 0 -3.38638)
(-73.9684 0 -1.57815)
(-72.0521 0 -0.579576)
(-70.0323 0 -0.432933)
(-67.6468 0 -1.18014)
(-64.5113 0 -2.88245)
(-46.4725 0 37.8367)
(-53.7036 0 10.7153)
(-58.2966 0 -4.08283)
(-60.8799 0 -10.2302)
(-62.019 0 -11.2241)
(-62.15 0 -9.69863)
(-61.5994 0 -7.33107)
(-60.6107 0 -5.05879)
(-59.3514 0 -3.35816)
(-57.9092 0 -2.47633)
(-56.275 0 -2.58047)
(-54.3196 0 -3.84391)
(-51.779 0 -6.45591)
(-19.7107 0 45.8306)
(-25.9292 0 16.7367)
(-30.9996 0 0.147926)
(-34.8272 0 -7.50769)
(-37.5089 0 -9.70665)
(-39.2062 0 -9.11416)
(-40.0902 0 -7.44224)
(-40.33 0 -5.66593)
(-40.0834 0 -4.31015)
(-39.4826 0 -3.68807)
(-38.609 0 -4.06079)
(-37.4595 0 -5.7229)
(-35.9146 0 -8.99729)
(6.2031 0 51.0676)
(1.89991 0 21.9701)
(-2.66489 0 4.76109)
(-6.84058 0 -3.77663)
(-10.3316 0 -6.89483)
(-13.0617 0 -7.1593)
(-15.0495 0 -6.2422)
(-16.3629 0 -5.09499)
(-17.1036 0 -4.23174)
(-17.3976 0 -3.9753)
(-17.3717 0 -4.62919)
(-17.1123 0 -6.56905)
(-16.6238 0 -10.2301)
(29.5712 0 52.9187)
(27.7846 0 25.6083)
(24.361 0 8.89714)
(20.4784 0 0.159651)
(16.7843 0 -3.49323)
(13.584 0 -4.40844)
(10.985 0 -4.15203)
(8.9995 0 -3.61979)
(7.57826 0 -3.28065)
(6.61774 0 -3.4239)
(5.97583 0 -4.3499)
(5.51289 0 -6.47392)
(5.13299 0 -10.3042)
(48.8942 0 51.0284)
(49.9498 0 27.1793)
(48.033 0 12.0735)
(44.8036 0 3.81441)
(41.2742 0 0.0093019)
(37.9974 0 -1.35658)
(35.2186 0 -1.6614)
(33.0125 0 -1.69667)
(31.3547 0 -1.86019)
(30.1416 0 -2.38181)
(29.2021 0 -3.52924)
(28.3443 0 -5.72673)
(62.6415 0 45.4797)
(66.4156 0 26.4771)
(66.1391 0 14.039)
(63.7917 0 6.91778)
(60.7025 0 3.3144)
(57.6467 0 1.65299)
(55.0077 0 0.838248)
(52.9261 0 0.24492)
(51.397 0 -0.415851)
(50.3007 0 -1.28204)
(49.4069 0 -2.56075)
(48.443 0 -4.66548)
(68.9662 0 37.1017)
(74.7643 0 23.7838)
(75.9784 0 14.7681)
(74.6718 0 9.29926)
(72.3195 0 6.18723)
(69.8128 0 4.36214)
(67.604 0 3.07993)
(65.8695 0 1.93593)
(64.6273 0 0.787068)
(63.7617 0 -0.36986)
(62.9947 0 -1.63936)
(61.9817 0 -3.42573)
(65.3283 0 26.5354)
(71.9296 0 19.0446)
(74.2721 0 13.7511)
(74.1916 0 10.2522)
(73.0134 0 7.91504)
(71.5262 0 6.17139)
(70.1124 0 4.62809)
(68.9067 0 3.08809)
(67.929 0 1.54597)
(67.1048 0 0.17501)
(66.2281 0 -0.940277)
(65.0115 0 -2.18802)
(38.902 0 23.4046)
(49.3063 0 20.1061)
(55.5473 0 17.1055)
(58.9293 0 14.5096)
(60.6039 0 12.2629)
(61.3608 0 10.2617)
(61.6295 0 8.40755)
(61.5777 0 6.62969)
(61.2308 0 4.89715)
(60.5974 0 3.24735)
(59.714 0 1.8459)
(58.7364 0 0.799581)
(57.7479 0 -0.103595)
(19.7242 0 8.82564)
(27.1211 0 8.32102)
(33.4448 0 7.64093)
(38.8296 0 6.86553)
(43.3975 0 6.0573)
(47.2397 0 5.25092)
(50.4123 0 4.4552)
(52.9391 0 3.65829)
(54.8181 0 2.83664)
(56.0311 0 1.99126)
(56.5586 0 1.2216)
(56.5218 0 0.601955)
(56.0742 0 0.0311853)
(17.1251 0 4.02917)
(24.2047 0 3.94677)
(30.5501 0 3.8346)
(36.1189 0 3.70176)
(40.9207 0 3.55592)
(44.9893 0 3.40109)
(48.3629 0 3.23753)
(51.0731 0 3.06226)
(53.1392 0 2.87073)
(54.5742 0 2.66218)
(55.4229 0 2.44397)
(55.7915 0 2.20929)
(55.7552 0 1.93034)
)
;

boundaryField
{
    top
    {
        type            directionMixed;
        refValue        uniform (0 0 0);
        refGradient     uniform (0 0 0);
        valueFraction   uniform (0 0 0 0 0 1);
        value           nonuniform List<vector> 
13
(
(17.1251 0 0)
(24.2047 0 0)
(30.5501 0 0)
(36.1189 0 0)
(40.9207 0 0)
(44.9893 0 0)
(48.3629 0 0)
(51.0731 0 0)
(53.1392 0 0)
(54.5742 0 0)
(55.4229 0 0)
(55.7915 0 0)
(55.7552 0 0)
)
;
    }
    bottom
    {
        type            fixedValue;
        value           uniform (0 0 0);
    }
    frontAndBack
    {
        type            empty;
    }
    left_cyc
    {
        type            cyclic;
    }
    right_cyc
    {
        type            cyclic;
    }
    procBoundary1to0
    {
        type            processor;
        value           nonuniform List<vector> 
16
(
(-53.1935 0 4.78493)
(-80.4446 0 21.7804)
(-76.1745 0 44.435)
(-58.4214 0 63.8253)
(-35.9076 0 79.067)
(-12.7164 0 88.9682)
(8.97723 0 93.0016)
(27.7287 0 90.9946)
(42.4759 0 83.1581)
(52.34 0 70.3044)
(56.2493 0 54.0609)
(52.4691 0 35.8657)
(52.4691 0 35.8657)
(23.5274 0 26.5391)
(11.1992 0 9.09661)
(9.44309 0 4.07547)
)
;
    }
    procBoundary1to2
    {
        type            processor;
        value           nonuniform List<vector> 
16
(
(-59.8744 0 3.48253)
(-79.4017 0 3.96117)
(-71.1861 0 -0.110404)
(-60.1385 0 -5.57673)
(-48.2674 0 -10.5338)
(-33.7278 0 -14.1064)
(-15.8057 0 -15.9491)
(4.79129 0 -16.2568)
(27.393 0 -9.50762)
(27.393 0 -9.50762)
(47.145 0 -8.11484)
(60.3818 0 -6.22741)
(63.0766 0 -4.07681)
(56.4415 0 -1.05097)
(55.2222 0 -0.558619)
(55.3337 0 1.60302)
)
;
    }
}


// ************************************************************************* //
