/*--------------------------------*- C++ -*----------------------------------*\
| =========                 |                                                 |
| \\      /  F ield         | OpenFOAM: The Open Source CFD Toolbox           |
|  \\    /   O peration     | Version:  2.3.0                                 |
|   \\  /    A nd           | Web:      www.OpenFOAM.org                      |
|    \\/     M anipulation  |                                                 |
\*---------------------------------------------------------------------------*/
FoamFile
{
    version     2.0;
    format      ascii;
    class       volScalarField;
    location    "11000";
    object      p;
}
// * * * * * * * * * * * * * * * * * * * * * * * * * * * * * * * * * * * * * //

dimensions      [0 2 -2 0 0 0 0];

internalField   nonuniform List<scalar> 
191
(
-1582.35
-1562.5
-1538.1
-1506.95
-1465.49
-1409.71
-1342.92
-1265.41
-1173.37
-1110.3
-1125.46
-1206.43
-1295.33
-1432.94
-1418.98
-1402.83
-1384.01
-1361.2
-1332.7
-1299.41
-1274.45
-1281.35
-1282.46
-1282.87
-1277.18
-1280.26
-1317.69
-1310.99
-1304.32
-1297.83
-1284.74
-1268.36
-1248.34
-1212.92
-1204.32
-1203.24
-1203.65
-1205.2
-1224.02
-1212.61
-1209.34
-1205.87
-1201.94
-1187.39
-1161.84
-1139.5
-1130.06
-1123.08
-1117.65
-1119.02
-1125.57
-1132.99
-1104.38
-1101.71
-1098.14
-1093.92
-1084.13
-1063.38
-1030.61
-1022.77
-1022.96
-1021.62
-1022.04
-1022.98
-990.473
-988.296
-985.165
-981.276
-975.023
-962.251
-936.195
-931.821
-933.143
-932.697
-932.909
-932.405
-870.901
-869.652
-867.761
-865.427
-862.104
-857.488
-847.626
-846.96
-846.53
-845.853
-846.095
-846.538
-746.395
-746.381
-746.158
-745.99
-745.331
-748.59
-761.232
-765.931
-762.976
-761.216
-761.618
-764.743
-616.889
-618.481
-620.134
-622.06
-624.572
-626.875
-638.615
-674.94
-684.627
-679.394
-676.736
-677.312
-683.23
-485.629
-489.052
-492.907
-497.554
-503.355
-510.073
-533.055
-589.836
-600.175
-592.935
-590.705
-591.036
-596.828
-355.13
-361.092
-368.013
-376.459
-386.667
-399.426
-426.361
-491.925
-506.454
-502.111
-502.566
-502.243
-503.048
-230.627
-239.582
-249.28
-259.251
-267.493
-283.379
-318.831
-382.802
-402.438
-410.155
-415.344
-414.168
-407.41
-117.669
-127.654
-135.31
-140.961
-143.894
-157.452
-209.768
-275.442
-311.146
-333.227
-343.723
-341.391
-326.41
-15.1809
-15.9565
-15.4742
-20.067
-35.1469
-65.8159
-118.001
-169.445
-202.162
-223.501
-233.545
-231.327
-217.104
81.8981
71.768
53.6404
22.0768
-29.1761
-103.672
-192.921
-281.953
-353.623
-404.294
-428.7
-423.329
-389.121
)
;

boundaryField
{
    top
    {
        type            calculated;
        value           nonuniform List<scalar> 
13
(
-9.81
-9.81
-9.81
-9.81
-9.81
-9.81
-9.81
-9.81
-9.81
-9.81
-9.81
-9.81
-9.81
)
;
    }
    bottom
    {
        type            calculated;
        value           nonuniform List<scalar> 
13
(
-1668.37
-1646.89
-1620.46
-1586.82
-1542.37
-1482.9
-1412.72
-1332.69
-1238.88
-1175.04
-1190.39
-1272.47
-1363.42
)
;
    }
    frontAndBack
    {
        type            empty;
    }
    left_cyc
    {
        type            cyclic;
    }
    right_cyc
    {
        type            cyclic;
    }
    procBoundary2to1
    {
        type            processor;
        value           nonuniform List<scalar> 
16
(
-1599.16
-1445.34
-1324.36
-1215.87
-1106.52
-991.967
-871.615
-746.137
-746.137
-615.252
-482.462
-349.852
-222.593
-107.101
-11.6738
86.2954
)
;
    }
    procBoundary2to3
    {
        type            processor;
        value           nonuniform List<scalar> 
16
(
-1367.53
-1312.27
-1257.28
-1143.08
-1024.48
-1024.48
-933.038
-847.819
-766.801
-686.269
-599.155
-504.487
-399.371
-300.419
-192.033
-330.503
)
;
    }
}


// ************************************************************************* //
