/*--------------------------------*- C++ -*----------------------------------*\
| =========                 |                                                 |
| \\      /  F ield         | OpenFOAM: The Open Source CFD Toolbox           |
|  \\    /   O peration     | Version:  2.3.0                                 |
|   \\  /    A nd           | Web:      www.OpenFOAM.org                      |
|    \\/     M anipulation  |                                                 |
\*---------------------------------------------------------------------------*/
FoamFile
{
    version     2.0;
    format      ascii;
    class       surfaceScalarField;
    location    "11000";
    object      phi;
}
// * * * * * * * * * * * * * * * * * * * * * * * * * * * * * * * * * * * * * //

dimensions      [0 3 -1 0 0 0 0];

internalField   nonuniform List<scalar> 
353
(
-0.412141
0.0250588
-0.442958
0.0308169
-0.479348
0.0363905
-0.514901
0.035553
-0.527825
0.0129244
-0.488012
-0.0398131
-0.397366
-0.0906461
-0.272852
-0.124514
-0.125445
-0.147407
0.0264656
-0.151911
0.17776
-0.151294
0.319656
-0.141896
-0.113748
-0.521992
0.014064
-0.50135
0.0101748
-0.46748
0.00252005
-0.416636
-0.0152903
-0.345974
-0.0577382
-0.261334
-0.124452
-0.179288
-0.172693
-0.110222
-0.19358
-0.0508448
-0.206784
0.00997807
-0.212734
0.0702946
-0.211611
0.131585
-0.203187
-0.188206
-0.45566
-0.0188617
-0.409152
-0.0363333
-0.348409
-0.0582228
-0.278781
-0.084919
-0.215901
-0.120617
-0.170599
-0.169755
-0.130064
-0.213228
-0.0853004
-0.238343
-0.0391971
-0.252888
0.00757928
-0.25951
0.0541951
-0.258227
0.100065
-0.249057
-0.23164
-0.381293
-0.0536242
-0.334022
-0.0836048
-0.274591
-0.117654
-0.209995
-0.149515
-0.156444
-0.174169
-0.122389
-0.203809
-0.0937837
-0.241833
-0.0631146
-0.269012
-0.0295058
-0.286497
0.00564751
-0.294663
0.0404416
-0.293021
0.0730853
-0.281701
-0.30597
-0.0815669
-0.26769
-0.121885
-0.218872
-0.166472
-0.164246
-0.204141
-0.115973
-0.222441
-0.0853173
-0.234465
-0.0635862
-0.263564
-0.0425733
-0.290025
-0.0199726
-0.309097
0.00373811
-0.318374
0.0271822
-0.316465
-0.303706
-0.214677
-0.0992795
-0.189473
-0.147088
-0.155836
-0.200109
-0.115933
-0.244044
-0.0767794
-0.261595
-0.0517104
-0.259534
-0.0371964
-0.278078
-0.0247692
-0.302452
-0.0117046
-0.322162
0.00210823
-0.332187
0.0157318
-0.330089
-0.316419
-0.101086
-0.106381
-0.0898431
-0.158331
-0.0735797
-0.216372
-0.0529748
-0.264648
-0.0312768
-0.283293
-0.0187053
-0.272106
-0.0132492
-0.283534
-0.00911059
-0.306591
-0.0044794
-0.326793
0.000727475
-0.337394
0.00578471
-0.335146
-0.320755
0.0308769
-0.104162
0.0288116
-0.156266
0.0266745
-0.214235
0.0242205
-0.262194
0.0213733
-0.280446
0.0160011
-0.266733
0.0100074
-0.277541
0.00557265
-0.302156
0.00224379
-0.323464
-0.00054141
-0.334608
-0.00345988
-0.332227
-0.317053
0.17858
-0.0580664
0.168694
-0.0942757
0.154502
-0.142074
0.134202
-0.193935
0.107398
-0.23539
0.076921
-0.249969
0.0513569
-0.241169
0.0337326
-0.259916
0.0206391
-0.289063
0.00915942
-0.311985
-0.00191097
-0.323538
-0.0130726
-0.321066
-0.305188
0.30789
-0.0472809
0.291451
-0.0778362
0.266496
-0.117119
0.230176
-0.157615
0.181865
-0.18708
0.127491
-0.195594
0.0848867
-0.198566
0.0589752
-0.234005
0.0375646
-0.267652
0.0169946
-0.291415
-0.00364198
-0.302901
-0.0242917
-0.300416
-0.284423
0.393973
-0.033356
0.371702
-0.055565
0.337897
-0.0833147
0.289773
-0.109491
0.227212
-0.124518
0.164014
-0.132396
0.120076
-0.154627
0.0882182
-0.202147
0.0578572
-0.237291
0.0264236
-0.259981
-0.00576948
-0.270708
-0.0378328
-0.268353
-0.253252
0.410265
-0.0166066
0.383719
-0.0290189
0.345089
-0.0446844
0.295385
-0.0597877
0.240078
-0.0692107
0.193014
-0.0853321
0.159887
-0.121501
0.122558
-0.164817
0.0812926
-0.196026
0.0372611
-0.215949
-0.00812519
-0.225322
-0.0532174
-0.22326
-0.210054
0.369659
-0.00563798
0.352425
-0.0117845
0.326394
-0.0186535
0.293897
-0.0272913
0.263886
-0.039199
0.236699
-0.0581454
0.202492
-0.0872941
0.156936
-0.11926
0.104444
-0.143535
0.0479405
-0.159446
-0.010445
-0.166937
-0.06842
-0.165285
-0.154726
0.363736
0.00150846
0.353356
-0.00140486
0.339395
-0.00469237
0.321521
-0.00941687
0.299676
-0.0173538
0.272144
-0.0306142
0.233695
-0.0488442
0.18252
-0.0680862
0.122271
-0.0832851
0.0563332
-0.0935084
-0.012252
-0.0983514
-0.0802561
-0.0972812
-0.0904625
0.366163
0.359889
0.351323
0.339716
0.322869
0.296656
0.256866
0.202475
0.136629
0.0632214
-0.0137371
-0.0899113
)
;

boundaryField
{
    top
    {
        type            calculated;
        value           nonuniform List<scalar> 
13
(
0.00546437
0.00486918
0.00387374
0.00219019
-0.000507134
-0.00440161
-0.00905431
-0.0136943
-0.0174397
-0.0201006
-0.0213929
-0.021107
-0.0193022
)
;
    }
    bottom
    {
        type            calculated;
        value           uniform 0;
    }
    frontAndBack
    {
        type            empty;
        value           nonuniform 0();
    }
    left_cyc
    {
        type            cyclic;
        value           nonuniform 0();
    }
    right_cyc
    {
        type            cyclic;
        value           nonuniform 0();
    }
    procBoundary2to1
    {
        type            processor;
        value           nonuniform List<scalar> 
16
(
0.387082
0.532987
0.488586
0.416056
0.333912
0.232389
0.108188
-0.0330963
0.0653498
-0.185864
-0.318676
-0.407898
-0.427015
-0.380628
-0.370883
-0.370119
)
;
    }
    procBoundary2to3
    {
        type            processor;
        value           nonuniform List<scalar> 
16
(
0.433404
0.206044
0.143498
0.102531
-0.261086
0.0491879
0.0284442
0.0101213
-0.00716244
-0.0249376
-0.045057
-0.0690038
-0.0964155
-0.123747
-0.14452
-0.161072
)
;
    }
}


// ************************************************************************* //
