/*--------------------------------*- C++ -*----------------------------------*\
| =========                 |                                                 |
| \\      /  F ield         | OpenFOAM: The Open Source CFD Toolbox           |
|  \\    /   O peration     | Version:  2.3.0                                 |
|   \\  /    A nd           | Web:      www.OpenFOAM.org                      |
|    \\/     M anipulation  |                                                 |
\*---------------------------------------------------------------------------*/
FoamFile
{
    version     2.0;
    format      ascii;
    class       volScalarField;
    location    "18000";
    object      p;
}
// * * * * * * * * * * * * * * * * * * * * * * * * * * * * * * * * * * * * * //

dimensions      [0 2 -2 0 0 0 0];

internalField   nonuniform List<scalar> 
191
(
-1582.17
-1562.28
-1537.82
-1506.58
-1464.99
-1409.04
-1342.18
-1264.47
-1172.42
-1110.04
-1126.12
-1207.49
-1296.19
-1432.82
-1418.84
-1402.66
-1383.8
-1360.95
-1332.39
-1299.05
-1274.39
-1281.48
-1282.47
-1282.87
-1276.98
-1280.45
-1317.63
-1310.93
-1304.26
-1297.77
-1284.56
-1268.23
-1248.02
-1212.68
-1204.31
-1203.23
-1203.66
-1205.25
-1224.46
-1212.58
-1209.32
-1205.84
-1201.89
-1187.16
-1161.5
-1139.41
-1129.98
-1123
-1117.62
-1119.08
-1125.66
-1133.11
-1104.36
-1101.68
-1098.1
-1093.87
-1083.96
-1063.02
-1030.46
-1022.73
-1022.94
-1021.61
-1022.06
-1022.97
-990.457
-988.271
-985.127
-981.231
-974.904
-962.037
-936.061
-931.788
-933.139
-932.683
-932.91
-932.365
-870.89
-869.634
-867.736
-865.399
-862.047
-857.421
-847.585
-846.922
-846.515
-845.84
-846.096
-846.524
-746.392
-746.375
-746.151
-745.984
-745.321
-748.654
-761.416
-765.891
-762.919
-761.204
-761.626
-764.771
-616.897
-618.49
-620.144
-622.075
-624.591
-626.91
-638.797
-675.413
-684.616
-679.305
-676.731
-677.337
-683.328
-485.65
-489.077
-492.939
-497.6
-503.413
-510.198
-533.389
-590.423
-600.207
-592.875
-590.715
-591.064
-596.968
-355.172
-361.142
-368.076
-376.547
-386.774
-399.631
-426.827
-492.4
-506.509
-502.131
-502.592
-502.25
-503.135
-230.694
-239.66
-249.363
-259.337
-267.558
-283.617
-319.484
-383.309
-402.52
-410.244
-415.372
-414.119
-407.322
-117.75
-127.725
-135.344
-141.011
-143.862
-157.8
-210.482
-275.971
-311.439
-333.411
-343.765
-341.285
-326.162
-15.1681
-15.9201
-15.4399
-20.1516
-35.3537
-66.2387
-118.65
-169.895
-202.452
-223.676
-233.587
-231.228
-216.876
81.8937
71.6948
53.4626
21.7066
-29.7933
-104.512
-193.905
-282.815
-354.284
-404.7
-428.792
-423.084
-388.576
)
;

boundaryField
{
    top
    {
        type            calculated;
        value           nonuniform List<scalar> 
13
(
-9.81
-9.81
-9.81
-9.81
-9.81
-9.81
-9.81
-9.81
-9.81
-9.81
-9.81
-9.81
-9.81
)
;
    }
    bottom
    {
        type            calculated;
        value           nonuniform List<scalar> 
13
(
-1668.17
-1646.65
-1620.16
-1586.42
-1541.83
-1482.18
-1411.94
-1331.73
-1237.92
-1174.77
-1191.06
-1273.54
-1364.31
)
;
    }
    frontAndBack
    {
        type            empty;
    }
    left_cyc
    {
        type            cyclic;
    }
    right_cyc
    {
        type            cyclic;
    }
    procBoundary2to1
    {
        type            processor;
        value           nonuniform List<scalar> 
16
(
-1599.01
-1445.23
-1324.31
-1215.85
-1106.51
-991.957
-871.608
-746.136
-746.136
-615.26
-482.482
-349.887
-222.651
-107.183
-11.6912
86.3402
)
;
    }
    procBoundary2to3
    {
        type            processor;
        value           nonuniform List<scalar> 
16
(
-1368.24
-1312.6
-1257.51
-1143.28
-1024.56
-1024.56
-933.076
-847.801
-766.768
-686.308
-599.124
-504.386
-399.226
-300.023
-191.687
-329.722
)
;
    }
}


// ************************************************************************* //
