/*--------------------------------*- C++ -*----------------------------------*\
| =========                 |                                                 |
| \\      /  F ield         | OpenFOAM: The Open Source CFD Toolbox           |
|  \\    /   O peration     | Version:  2.3.0                                 |
|   \\  /    A nd           | Web:      www.OpenFOAM.org                      |
|    \\/     M anipulation  |                                                 |
\*---------------------------------------------------------------------------*/
FoamFile
{
    version     2.0;
    format      ascii;
    class       volScalarField;
    location    "18000";
    object      T;
}
// * * * * * * * * * * * * * * * * * * * * * * * * * * * * * * * * * * * * * //

dimensions      [0 0 0 1 0 0 0];

internalField   nonuniform List<scalar> 
191
(
37.8119
37.0965
36.2045
35.1118
33.7986
32.1812
30.7011
29.6003
28.8315
28.498
28.5878
29.0757
29.9787
28.9318
27.8203
26.456
24.7216
22.6358
20.6768
19.0742
17.7504
16.7291
16.1827
16.3307
17.0789
18.2307
23.7942
22.769
21.6259
20.3553
18.8938
17.2632
15.5785
13.9943
12.7203
12.0232
12.2089
13.1619
14.5876
22.8732
22.2023
21.3737
20.2944
18.8653
17.0808
15.0862
13.1122
11.4976
10.6207
10.8481
12.0533
13.8538
23.993
23.4818
22.7286
21.6071
19.9979
17.8899
15.4751
13.0502
11.0565
9.9856
10.2564
11.7358
25.5432
25.0711
24.291
23.063
21.2585
18.8367
16.0067
13.1398
10.7748
9.51313
9.82669
11.5744
26.9189
26.4332
25.5944
24.2581
22.2894
19.6184
16.4374
13.1819
10.4813
9.03939
9.39489
11.3907
27.9262
27.386
26.4719
25.0431
22.958
20.1242
16.6807
13.1159
10.1325
8.5202
8.91925
11.1372
28.8924
28.4842
27.8376
26.8305
25.3356
23.198
20.2636
16.632
12.8668
9.68758
7.92923
8.37035
10.7612
29.0727
28.5191
27.7229
26.5901
25.0176
22.8402
19.8504
16.141
12.3278
9.07678
7.23085
7.70185
10.1798
28.442
27.7186
26.7589
25.4985
23.8599
21.6583
18.682
15.0881
11.4204
8.25229
6.40128
6.88164
9.33229
26.3981
25.5286
24.4561
23.1303
21.4852
19.3392
16.5581
13.3427
10.0494
7.15214
5.41077
5.86962
8.14512
22.1348
21.23
20.2031
18.9923
17.5137
15.664
13.3847
10.7808
8.09597
5.69813
4.22134
4.6159
6.52516
15.23
14.5072
13.7302
12.8557
11.816
10.5376
8.99659
7.25524
5.45487
3.82437
2.79699
3.07462
4.38978
5.68041
5.3418
5.02188
4.69235
4.32499
3.89252
3.37783
2.78272
2.13749
1.5215
1.11523
1.22674
1.73824
)
;

boundaryField
{
    top
    {
        type            fixedValue;
        value           uniform 0;
    }
    bottom
    {
        type            fixedValue;
        value           uniform 43.8;
    }
    frontAndBack
    {
        type            empty;
    }
    left_cyc
    {
        type            cyclic;
    }
    right_cyc
    {
        type            cyclic;
    }
    procBoundary2to1
    {
        type            processor;
        value           nonuniform List<scalar> 
16
(
38.3825
29.8704
24.7246
23.4553
24.3654
25.8303
27.1871
28.231
28.231
29.1666
29.4703
28.9978
27.1197
22.9547
15.9452
6.04164
)
;
    }
    procBoundary2to3
    {
        type            processor;
        value           nonuniform List<scalar> 
16
(
31.204
19.6505
16.2358
15.878
13.9552
13.9552
14.2035
14.3856
14.432
14.2541
13.7262
12.7533
11.2467
9.07656
6.11335
2.37655
)
;
    }
}


// ************************************************************************* //
