/*--------------------------------*- C++ -*----------------------------------*\
| =========                 |                                                 |
| \\      /  F ield         | OpenFOAM: The Open Source CFD Toolbox           |
|  \\    /   O peration     | Version:  2.3.0                                 |
|   \\  /    A nd           | Web:      www.OpenFOAM.org                      |
|    \\/     M anipulation  |                                                 |
\*---------------------------------------------------------------------------*/
FoamFile
{
    version     2.0;
    format      ascii;
    class       volVectorField;
    location    "18000";
    object      U;
}
// * * * * * * * * * * * * * * * * * * * * * * * * * * * * * * * * * * * * * //

dimensions      [0 1 -1 0 0 0 0];

internalField   nonuniform List<vector> 
191
(
(-59.8477 0 3.47532)
(-64.0356 0 4.72785)
(-69.1666 0 6.25286)
(-75.0538 0 7.29133)
(-79.7462 0 5.62701)
(-78.1295 0 -0.633053)
(-67.8612 0 -9.49633)
(-50.9172 0 -18.3913)
(-29.1774 0 -24.6003)
(-7.00116 0 -25.7118)
(15.2303 0 -25.5415)
(37.3759 0 -22.9665)
(57.9869 0 -15.1371)
(-79.4188 0 3.96061)
(-77.1617 0 4.28896)
(-73.1631 0 4.14103)
(-66.9722 0 2.23104)
(-57.8132 0 -4.15653)
(-45.6059 0 -15.0571)
(-32.3176 0 -22.2319)
(-21.0801 0 -24.2885)
(-12.0096 0 -25.9904)
(-3.00504 0 -26.863)
(6.18899 0 -26.6748)
(15.1788 0 -25.4418)
(24.7143 0 -23.7422)
(-71.2303 0 -0.0968701)
(-65.3405 0 -1.72264)
(-57.2273 0 -4.02444)
(-47.2447 0 -7.54216)
(-36.0322 0 -13.5436)
(-28.5245 0 -22.4138)
(-22.5446 0 -29.4651)
(-16.1828 0 -33.2133)
(-9.30202 0 -35.1041)
(-2.30458 0 -35.8897)
(4.74663 0 -35.7307)
(11.7264 0 -34.5959)
(18.452 0 -32.1854)
(-60.1855 0 -5.54899)
(-54.0827 0 -9.14018)
(-45.9599 0 -13.3518)
(-36.4444 0 -17.7724)
(-26.2345 0 -22.4294)
(-20.383 0 -28.3306)
(-16.2053 0 -34.3798)
(-11.8534 0 -38.3352)
(-6.96244 0 -40.8158)
(-1.74687 0 -41.9607)
(3.56759 0 -41.7121)
(8.68058 0 -40.0849)
(13.368 0 -37.1291)
(-48.3061 0 -10.4931)
(-43.3961 0 -15.8568)
(-36.759 0 -21.8016)
(-28.8817 0 -26.9266)
(-20.2444 0 -29.8861)
(-14.2963 0 -32.9811)
(-11.0455 0 -38.2284)
(-8.00958 0 -42.3318)
(-4.70304 0 -45.099)
(-1.19005 0 -46.3994)
(2.39932 0 -46.1112)
(5.84373 0 -44.2669)
(-33.7524 0 -14.0552)
(-30.5971 0 -20.8089)
(-26.1395 0 -28.2453)
(-20.5587 0 -34.371)
(-14.1739 0 -36.8577)
(-8.71923 0 -37.4476)
(-6.51442 0 -40.9744)
(-4.65335 0 -44.7871)
(-2.74529 0 -47.7002)
(-0.704488 0 -49.1381)
(1.38891 0 -48.8136)
(3.38877 0 -46.7983)
(-15.8161 0 -15.8897)
(-14.4846 0 -23.5301)
(-12.4107 0 -32.0231)
(-9.63176 0 -39.0395)
(-6.19072 0 -41.6928)
(-3.15732 0 -40.48)
(-2.31197 0 -42.5562)
(-1.67509 0 -46.0387)
(-1.0379 0 -49.0045)
(-0.279022 0 -50.5318)
(0.5194 0 -50.1822)
(1.23945 0 -48.0611)
(4.79135 0 -16.1915)
(4.47613 0 -24.1796)
(4.18242 0 -33.1025)
(3.7825 0 -40.5114)
(3.64974 0 -43.3113)
(2.73396 0 -41.1577)
(1.8697 0 -42.5946)
(1.13364 0 -46.0332)
(0.553726 0 -49.0998)
(0.115712 0 -50.7064)
(-0.282149 0 -50.3343)
(-0.773291 0 -48.1051)
(27.3997 0 -9.45961)
(26.1668 0 -15.2261)
(24.43 0 -22.914)
(21.8945 0 -31.3832)
(18.2479 0 -38.2962)
(14.2657 0 -40.8072)
(8.69823 0 -38.8327)
(6.13487 0 -40.7576)
(4.00558 0 -44.7107)
(2.19322 0 -48.0084)
(0.518352 0 -49.6961)
(-1.1223 0 -49.3052)
(-2.8579 0 -46.9511)
(47.1494 0 -8.06685)
(45.2012 0 -13.199)
(42.2081 0 -19.8672)
(37.678 0 -26.9258)
(31.235 0 -32.3756)
(23.7195 0 -34.1583)
(14.2178 0 -33.6731)
(10.532 0 -37.4017)
(7.20276 0 -42.1269)
(4.05103 0 -45.6561)
(0.966777 0 -47.3837)
(-2.12405 0 -46.9817)
(-5.25835 0 -44.5361)
(60.3832 0 -6.18465)
(57.7803 0 -10.2707)
(53.6859 0 -15.4793)
(47.5679 0 -20.7311)
(39.2191 0 -24.3501)
(29.0058 0 -24.9904)
(19.9767 0 -25.9739)
(15.4598 0 -32.9454)
(11.0124 0 -38.2839)
(6.29293 0 -41.8277)
(1.50431 0 -43.4975)
(-3.34524 0 -43.1025)
(-8.11871 0 -40.7008)
(63.0757 0 -4.04409)
(59.9265 0 -6.7335)
(55.064 0 -9.98922)
(48.2502 0 -12.5223)
(40.4203 0 -12.9762)
(31.4434 0 -14.6556)
(26.2533 0 -20.5259)
(21.3505 0 -27.8111)
(15.376 0 -32.9547)
(8.88272 0 -36.1914)
(2.12564 0 -37.6968)
(-4.72363 0 -37.3377)
(-11.3894 0 -35.1621)
(56.4252 0 -1.03498)
(54.4025 0 -2.08632)
(51.2617 0 -3.37719)
(46.5503 0 -5.14274)
(41.5968 0 -7.45594)
(37.55 0 -10.7753)
(33.2465 0 -16.0119)
(27.2432 0 -21.7726)
(19.7076 0 -26.0295)
(11.4372 0 -28.7734)
(2.73702 0 -30.0538)
(-6.07851 0 -29.7489)
(-14.6469 0 -27.9022)
(55.1992 0 -0.548391)
(53.8944 0 -1.1605)
(52.0884 0 -1.8254)
(49.6888 0 -2.69807)
(46.7102 0 -4.10698)
(43.1194 0 -6.52927)
(38.3497 0 -9.91793)
(31.5541 0 -13.5601)
(23.0229 0 -16.4041)
(13.4345 0 -18.2929)
(3.22345 0 -19.1773)
(-7.14237 0 -18.9657)
(-17.168 0 -17.6891)
(55.3049 0 1.60641)
(54.5271 0 1.21705)
(53.4215 0 0.698602)
(51.9502 0 -0.115722)
(49.9206 0 -1.43867)
(46.8489 0 -3.44955)
(42.0042 0 -6.05539)
(34.8565 0 -8.72766)
(25.6659 0 -10.8857)
(15.0658 0 -12.3742)
(3.62646 0 -13.0808)
(-8.01869 0 -12.9125)
(-19.2087 0 -11.8979)
)
;

boundaryField
{
    top
    {
        type            directionMixed;
        refValue        uniform (0 0 0);
        refGradient     uniform (0 0 0);
        valueFraction   uniform (0 0 0 0 0 1);
        value           nonuniform List<vector> 
13
(
(55.3049 0 0)
(54.5271 0 0)
(53.4215 0 0)
(51.9502 0 0)
(49.9206 0 0)
(46.8489 0 0)
(42.0042 0 0)
(34.8565 0 0)
(25.6659 0 0)
(15.0658 0 0)
(3.62646 0 0)
(-8.01869 0 0)
(-19.2087 0 0)
)
;
    }
    bottom
    {
        type            fixedValue;
        value           uniform (0 0 0);
    }
    frontAndBack
    {
        type            empty;
    }
    left_cyc
    {
        type            cyclic;
    }
    right_cyc
    {
        type            cyclic;
    }
    procBoundary2to1
    {
        type            processor;
        value           nonuniform List<vector> 
16
(
(-56.4447 0 2.6075)
(-80.4791 0 3.5827)
(-75.2599 0 1.0135)
(-64.5468 0 -2.8646)
(-51.8079 0 -6.42967)
(-35.9314 0 -8.96402)
(-16.628 0 -10.1909)
(5.13729 0 -10.2597)
(5.13729 0 -10.2597)
(28.3537 0 -5.69714)
(48.4465 0 -4.63357)
(61.977 0 -3.39576)
(65.0003 0 -2.16404)
(57.7241 0 -0.0882121)
(56.044 0 0.0412995)
(55.7191 0 1.9331)
)
;
    }
    procBoundary2to3
    {
        type            processor;
        value           nonuniform List<vector> 
16
(
(72.6085 0 -6.11549)
(37.1411 0 -20.7309)
(24.6339 0 -27.4114)
(17.5578 0 -32.489)
(9.02787 0 -40.9982)
(9.02787 0 -40.9982)
(5.22082 0 -43.501)
(1.81669 0 -44.8522)
(-1.42835 0 -44.8415)
(-4.74981 0 -43.36)
(-8.43423 0 -40.4383)
(-12.7866 0 -36.3976)
(-17.757 0 -31.2205)
(-22.6917 0 -24.6115)
(-26.4127 0 -15.4381)
(-29.3407 0 -10.1456)
)
;
    }
}


// ************************************************************************* //
