/*--------------------------------*- C++ -*----------------------------------*\
| =========                 |                                                 |
| \\      /  F ield         | OpenFOAM: The Open Source CFD Toolbox           |
|  \\    /   O peration     | Version:  2.3.0                                 |
|   \\  /    A nd           | Web:      www.OpenFOAM.org                      |
|    \\/     M anipulation  |                                                 |
\*---------------------------------------------------------------------------*/
FoamFile
{
    version     2.0;
    format      ascii;
    class       volScalarField;
    location    "1000";
    object      p_rgh;
}
// * * * * * * * * * * * * * * * * * * * * * * * * * * * * * * * * * * * * * //

dimensions      [0 2 -2 0 0 0 0];

internalField   nonuniform List<scalar> 
191
(
-1767.62
-1777.32
-1794.18
-1813.64
-1833.29
-1852.33
-1871.18
-1890.65
-1910.96
-1931.21
-1948.4
-1956.93
-1748.78
-1757.77
-1772.11
-1788.31
-1805.14
-1822.2
-1839.67
-1858.32
-1878.97
-1901.65
-1924.39
-1939.93
-1727.03
-1740.37
-1758.2
-1774.56
-1788.98
-1802.23
-1815.36
-1830.5
-1850.53
-1877.32
-1909.82
-1936.03
-1709.18
-1731.31
-1758.73
-1779.97
-1794.42
-1804.37
-1812.14
-1821.33
-1836.67
-1863.72
-1903.56
-1938.65
-1700.86
-1689.54
-1723.99
-1766.05
-1795.99
-1812.51
-1819.93
-1822.54
-1825.32
-1835
-1860.99
-1905.9
-1946.01
-1682.21
-1666.74
-1715.7
-1774.61
-1815.05
-1834.37
-1839.28
-1836.9
-1834.41
-1840.65
-1866.83
-1914.97
-1955.58
-1658.68
-1639.57
-1703.61
-1776.54
-1827.76
-1851.84
-1856.48
-1852.32
-1849.2
-1856.05
-1881.54
-1926.23
-1963.61
-1620.98
-1600.68
-1677.49
-1765.27
-1830.25
-1863.26
-1872.68
-1871.36
-1870.21
-1877.74
-1900.39
-1937.99
-1969.5
-1547.49
-1525.87
-1621.26
-1728.87
-1815.73
-1866.08
-1886.93
-1892.17
-1893.64
-1901.03
-1919.42
-1948.48
-1972.78
-1397.96
-1379.89
-1506.17
-1648.94
-1769.79
-1847.9
-1888.23
-1905.47
-1911.84
-1919.71
-1933.99
-1954.73
-1971.17
-1199.56
-1184.42
-1326.35
-1510.1
-1671.75
-1785.7
-1852.4
-1888.69
-1906.82
-1919.66
-1932.68
-1946.77
-1953.58
-998.473
-983.831
-1128.68
-1303.9
-1485.29
-1635.97
-1731.15
-1789.76
-1831.8
-1859.78
-1878.09
-1887.59
-1877.17
-757.301
-747.77
-868.658
-1028.89
-1194.54
-1341.44
-1444.37
-1523
-1595.56
-1647.76
-1677.76
-1683.41
-1644.36
-492.262
-487.202
-566.936
-674.254
-798.07
-891.792
-985.834
-1079.02
-1153.01
-1204.25
-1231.45
-1231.74
-1183.16
-330.743
-329.558
-337.649
-335.019
-328.495
-335.765
-373.143
-423.055
-464.235
-499.183
-520.948
-520.381
-484.631
)
;

boundaryField
{
    top
    {
        type            fixedValue;
        value           uniform 0;
    }
    bottom
    {
        type            fixedFluxPressure;
        gradient        uniform 0;
        value           nonuniform List<scalar> 
12
(
-1767.62
-1777.32
-1794.18
-1813.64
-1833.29
-1852.33
-1871.18
-1890.65
-1910.96
-1931.21
-1948.4
-1956.93
)
;
    }
    frontAndBack
    {
        type            empty;
    }
    left_cyc
    {
        type            cyclic;
    }
    right_cyc
    {
        type            cyclic;
    }
    procBoundary3to0throughright_cyc
    {
        type            processorCyclic;
        value           nonuniform List<scalar> 
15
(
-1948.23
-1928.05
-1919.63
-1919.77
-1926.15
-1934.77
-1942.66
-1949.35
-1953.88
-1951.84
-1925.18
-1817.76
-1538.42
-1081.4
-422.637
)
;
    }
    procBoundary3to2
    {
        type            processor;
        value           nonuniform List<scalar> 
16
(
-1770.97
-1752.29
-1732.19
-1717.07
-1717.07
-1742.05
-1738.61
-1729.89
-1705.16
-1649.81
-1538.28
-1356.96
-1158.79
-893.807
-581.667
-341.293
)
;
    }
}


// ************************************************************************* //
