/*--------------------------------*- C++ -*----------------------------------*\
| =========                 |                                                 |
| \\      /  F ield         | OpenFOAM: The Open Source CFD Toolbox           |
|  \\    /   O peration     | Version:  2.3.0                                 |
|   \\  /    A nd           | Web:      www.OpenFOAM.org                      |
|    \\/     M anipulation  |                                                 |
\*---------------------------------------------------------------------------*/
FoamFile
{
    version     2.0;
    format      ascii;
    class       volScalarField;
    location    "24000";
    object      p_rgh;
}
// * * * * * * * * * * * * * * * * * * * * * * * * * * * * * * * * * * * * * //

dimensions      [0 2 -2 0 0 0 0];

internalField   nonuniform List<scalar> 
191
(
-1831.76
-1813.55
-1798.19
-1786.11
-1776.32
-1767.61
-1758.98
-1749.71
-1739.51
-1728.27
-1715.8
-1701.89
-1686.15
-1800.98
-1783.63
-1769.02
-1757.23
-1747.24
-1737.96
-1728.57
-1718.49
-1707.12
-1694.52
-1680.69
-1665.49
-1648.67
-1762.59
-1742.83
-1728.8
-1717.04
-1706.43
-1696.15
-1685.69
-1674.72
-1663.12
-1650.26
-1636.18
-1621.02
-1604.75
-1732.77
-1712.41
-1699.8
-1689.28
-1678.92
-1668.29
-1657.42
-1646.35
-1635.11
-1623.73
-1612.12
-1600.29
-1588.3
-1718.26
-1700.26
-1690.67
-1683.17
-1674.75
-1665.35
-1655.58
-1645.95
-1636.79
-1628.22
-1620.17
-1612.36
-1604.14
-1716.77
-1702.45
-1697.8
-1694.35
-1689.31
-1682.37
-1674.51
-1666.71
-1659.61
-1653.46
-1648.11
-1643
-1637
-1727.58
-1714.12
-1713.32
-1713.83
-1712.9
-1709.31
-1703.9
-1697.86
-1692.14
-1687.26
-1683.19
-1679.32
-1674.22
-1750.3
-1736.77
-1735.23
-1737.07
-1738.32
-1737.91
-1735.45
-1731.5
-1726.91
-1722.39
-1718.19
-1713.87
-1707.98
-1779.68
-1766.85
-1763.79
-1764.64
-1765.61
-1765.53
-1764.24
-1761.64
-1757.93
-1753.41
-1748.14
-1741.68
-1810.39
-1799.2
-1794.9
-1793.5
-1792.59
-1791.02
-1788.26
-1784.28
-1779.11
-1772.72
-1764.79
-1754.57
-1834.73
-1824.55
-1818.12
-1812.86
-1807.34
-1800.93
-1793.38
-1784.62
-1774.59
-1763.26
-1749.75
-1733.18
-1830.94
-1817.73
-1805.16
-1792.05
-1777.86
-1762.44
-1745.68
-1727.45
-1707.66
-1686.44
-1664.23
-1639.01
-1739.41
-1718.56
-1696.9
-1674.16
-1650.23
-1625.06
-1598.55
-1570.39
-1540.24
-1507.96
-1474.38
-1441.21
-1408.94
-1372.14
-1350.69
-1326.35
-1299.53
-1270.69
-1240.26
-1208.48
-1175.34
-1140.6
-1103.93
-1065.62
-1026.15
-985.46
-678.406
-646.81
-612.822
-578.455
-544.636
-511.688
-479.617
-448.311
-417.704
-387.767
-358.064
-329.099
-304.015
)
;

boundaryField
{
    top
    {
        type            fixedValue;
        value           uniform 0;
    }
    bottom
    {
        type            fixedFluxPressure;
        gradient        uniform 0;
        value           nonuniform List<scalar> 
13
(
-1831.76
-1813.55
-1798.19
-1786.11
-1776.32
-1767.61
-1758.98
-1749.71
-1739.51
-1728.27
-1715.8
-1701.89
-1686.15
)
;
    }
    frontAndBack
    {
        type            empty;
    }
    left_cyc
    {
        type            cyclic;
    }
    right_cyc
    {
        type            cyclic;
    }
    procBoundary1to0
    {
        type            processor;
        value           nonuniform List<scalar> 
16
(
-1851.22
-1821.39
-1789.77
-1765.38
-1753.59
-1753.54
-1765.35
-1785.32
-1809.34
-1833.5
-1852.03
-1846.67
-1846.67
-1759.42
-1390.13
-704.049
)
;
    }
    procBoundary1to2
    {
        type            processor;
        value           nonuniform List<scalar> 
16
(
-1667.99
-1629.81
-1587.45
-1575.72
-1594.32
-1628.25
-1665.5
-1697.75
-1732.64
-1732.64
-1740.45
-1711.77
-1609.11
-1372.67
-944.832
-284.591
)
;
    }
}


// ************************************************************************* //
