/*--------------------------------*- C++ -*----------------------------------*\
| =========                 |                                                 |
| \\      /  F ield         | OpenFOAM: The Open Source CFD Toolbox           |
|  \\    /   O peration     | Version:  2.3.0                                 |
|   \\  /    A nd           | Web:      www.OpenFOAM.org                      |
|    \\/     M anipulation  |                                                 |
\*---------------------------------------------------------------------------*/
FoamFile
{
    version     2.0;
    format      ascii;
    class       surfaceScalarField;
    location    "24000";
    object      phi;
}
// * * * * * * * * * * * * * * * * * * * * * * * * * * * * * * * * * * * * * //

dimensions      [0 3 -1 0 0 0 0];

internalField   nonuniform List<scalar> 
353
(
-0.406489
0.02578
-0.395744
-0.0107449
-0.369184
-0.0265598
-0.34187
-0.027314
-0.321603
-0.0202675
-0.310742
-0.0108611
-0.308553
-0.00218871
-0.313044
0.00449125
-0.322123
0.00907862
-0.334416
0.0122935
-0.349302
0.0148862
-0.366803
0.0175008
0.0207321
-0.640922
0.0846048
-0.648192
-0.00347482
-0.62944
-0.0453118
-0.602068
-0.0546866
-0.576213
-0.0461225
-0.556481
-0.0305929
-0.543928
-0.014742
-0.537699
-0.00173749
-0.536049
0.00742919
-0.53685
0.0130944
-0.538
0.0160359
-0.537418
0.0169185
0.0161665
-0.624939
0.153596
-0.647745
0.0193317
-0.644509
-0.0485482
-0.628779
-0.0704163
-0.608989
-0.065913
-0.589754
-0.0498274
-0.573107
-0.0313895
-0.559436
-0.0154077
-0.548137
-0.00387013
-0.537737
0.0026943
-0.526124
0.00442288
-0.510631
0.00142547
-0.00639741
-0.500901
0.221762
-0.53504
0.0534716
-0.547191
-0.0363974
-0.546142
-0.0714655
-0.537805
-0.0742497
-0.525963
-0.0616696
-0.512883
-0.04447
-0.499734
-0.0285561
-0.486823
-0.0167817
-0.473677
-0.0104516
-0.458973
-0.0102807
-0.440552
-0.0169963
-0.031445
-0.33355
0.281414
-0.373098
0.0930191
-0.397077
-0.0124183
-0.409568
-0.0589739
-0.413882
-0.0699359
-0.412535
-0.0630173
-0.407427
-0.0495774
-0.399938
-0.0360453
-0.390923
-0.025797
-0.380651
-0.0207234
-0.368664
-0.0222671
-0.353662
-0.031999
-0.0516286
-0.151766
0.325595
-0.189426
0.13068
-0.219129
0.0172845
-0.240878
-0.0372245
-0.255546
-0.0552679
-0.264217
-0.0543469
-0.268012
-0.0457823
-0.26802
-0.0360376
-0.265207
-0.0286091
-0.260293
-0.0256382
-0.253542
-0.0290175
-0.244558
-0.040983
-0.0640585
0.0272897
0.349141
-0.00222452
0.160194
-0.0313568
0.0464168
-0.0569351
-0.0116462
-0.0777102
-0.0344929
-0.0934895
-0.0385676
-0.104549
-0.0347223
-0.111443
-0.029144
-0.114924
-0.0251277
-0.115838
-0.024725
-0.114899
-0.0299556
-0.112423
-0.0434598
-0.068387
0.191319
0.348786
0.174057
0.177455
0.149762
0.0707119
0.124505
0.0136109
0.10151
-0.0114975
0.0821466
-0.0192042
0.066819
-0.0193948
0.0554149
-0.01774
0.0474348
-0.0171475
0.0420614
-0.0193517
0.0383488
-0.026243
0.0355043
-0.0406153
0.329439
0.323625
0.326737
0.180158
0.309676
0.0877732
0.287174
0.0361129
0.26448
0.0111959
0.244267
0.00100872
0.227612
-0.00273918
0.214688
-0.00481622
0.205079
-0.00753901
0.197873
-0.0121455
0.191847
-0.0202163
-0.0345387
0.429984
0.276406
0.441857
0.168284
0.433223
0.0964079
0.415143
0.0541926
0.394656
0.0316826
0.375643
0.0200217
0.359868
0.0130365
0.347787
0.00726417
0.339002
0.001246
0.332352
-0.00549562
0.326132
-0.0139955
-0.0269541
0.478768
0.214382
0.502362
0.14469
0.502166
0.0966042
0.490011
0.0663479
0.473809
0.0478846
0.458061
0.0357697
0.444877
0.0262204
0.434908
0.0172334
0.427851
0.00830307
0.422425
-7.02255e-05
0.416476
-0.00804599
-0.0182032
0.45712
0.149279
0.487096
0.114714
0.494716
0.0889849
0.490548
0.0705161
0.481659
0.0567728
0.471971
0.0454585
0.463216
0.0349746
0.455905
0.0245444
0.44989
0.0143181
0.444271
0.00554862
0.437291
-0.00106595
-0.00768832
0.293461
0.104893
0.349038
0.0937013
0.381182
0.0825705
0.398071
0.0720953
0.406197
0.0623905
0.40963
0.0533393
0.410366
0.0447231
0.409046
0.0362938
0.405761
0.02783
0.400734
0.019345
0.394639
0.0116435
0.388097
0.0054759
-2.19503e-05
0.155401
0.0517666
0.201158
0.0479448
0.240223
0.0435054
0.273444
0.0388741
0.30153
0.0343046
0.324967
0.0299021
0.344021
0.0256693
0.358766
0.021549
0.369123
0.0174731
0.374971
0.0134967
0.37664
0.00997457
0.375053
0.00706226
0.00429388
0.136904
0.18172
0.221501
0.256133
0.28576
0.310623
0.330954
0.346926
0.35865
0.366298
0.37037
0.37152
)
;

boundaryField
{
    top
    {
        type            calculated;
        value           nonuniform List<scalar> 
13
(
0.00249816
0.00312931
0.00372454
0.004242
0.00467722
0.00503917
0.00533801
0.00557719
0.00574959
0.00584836
0.00590247
0.00591266
0.00578677
)
;
    }
    bottom
    {
        type            calculated;
        value           uniform 0;
    }
    frontAndBack
    {
        type            empty;
        value           nonuniform 0();
    }
    left_cyc
    {
        type            cyclic;
        value           nonuniform 0();
    }
    right_cyc
    {
        type            cyclic;
        value           nonuniform 0();
    }
    procBoundary1to0
    {
        type            processor;
        value           nonuniform List<scalar> 
16
(
0.380709
0.582097
0.555947
0.432735
0.273898
0.107585
-0.0508355
-0.190964
-0.304278
-0.382765
-0.416745
-0.392017
-0.191097
-0.207257
-0.102275
-0.0876357
)
;
    }
    procBoundary1to2
    {
        type            processor;
        value           nonuniform List<scalar> 
16
(
-0.387535
-0.532852
-0.488067
-0.415504
-0.333478
-0.232128
-0.108094
0.0330592
-0.0659419
0.18577
0.318547
0.407725
0.426777
0.380431
0.370738
0.370027
)
;
    }
}


// ************************************************************************* //
