/*--------------------------------*- C++ -*----------------------------------*\
| =========                 |                                                 |
| \\      /  F ield         | OpenFOAM: The Open Source CFD Toolbox           |
|  \\    /   O peration     | Version:  2.3.0                                 |
|   \\  /    A nd           | Web:      www.OpenFOAM.org                      |
|    \\/     M anipulation  |                                                 |
\*---------------------------------------------------------------------------*/
FoamFile
{
    version     2.0;
    format      ascii;
    class       volScalarField;
    location    "13000";
    object      p_rgh;
}
// * * * * * * * * * * * * * * * * * * * * * * * * * * * * * * * * * * * * * //

dimensions      [0 2 -2 0 0 0 0];

internalField   nonuniform List<scalar> 
191
(
-1438.6
-1506.48
-1560.02
-1599.97
-1630.64
-1655.04
-1675.16
-1692.31
-1707.31
-1720.65
-1732.63
-1743.48
-1445.86
-1489.1
-1529.64
-1564.26
-1592.85
-1616.73
-1637.19
-1655.22
-1671.39
-1686.05
-1699.42
-1711.58
-1440.89
-1476
-1511.57
-1536.64
-1556.99
-1576.18
-1594.13
-1611.04
-1626.89
-1641.65
-1655.31
-1667.69
-1394.35
-1454.18
-1503.52
-1532.64
-1551.78
-1567.28
-1580.59
-1592.84
-1604.76
-1616.51
-1628
-1639.33
-1307.92
-1372.36
-1454.52
-1511.1
-1546.21
-1570.1
-1586.59
-1598.22
-1607.23
-1615.17
-1623
-1631.2
-1639.97
-1285.59
-1369.47
-1460.7
-1526.93
-1571.08
-1601.02
-1620.08
-1631.77
-1639.19
-1644.67
-1649.75
-1655.34
-1661.83
-1269.77
-1369.88
-1467.87
-1544.45
-1598.18
-1634.14
-1656.33
-1668.99
-1676
-1680.41
-1684.23
-1688.57
-1693.8
-1255.17
-1365.96
-1469.32
-1555.94
-1618.63
-1660.61
-1686.79
-1701.75
-1709.99
-1715.07
-1719.26
-1723.59
-1728.22
-1232.82
-1352.73
-1459.94
-1554.49
-1624.65
-1672.57
-1704.16
-1723.78
-1735.79
-1743.68
-1749.64
-1754.67
-1758.97
-1187.07
-1317.92
-1429.04
-1529.22
-1606.71
-1661.71
-1700.77
-1727.41
-1745.37
-1757.88
-1767.18
-1774.53
-1780.5
-1107.69
-1250.96
-1359.04
-1466.28
-1549.53
-1611.04
-1658.15
-1693.23
-1719.07
-1738.53
-1753.86
-1766.53
-1777.39
-981.056
-1117.95
-1219.19
-1327.29
-1417.74
-1487.69
-1542.34
-1585.01
-1619.04
-1647.09
-1671.16
-1692.8
-1713.5
-809.014
-916.01
-990.268
-1072.29
-1165.87
-1238.75
-1297.96
-1344.97
-1384.37
-1418.99
-1451.19
-1484.6
-1517.83
-559.101
-630.857
-677.574
-722.771
-771.648
-819.623
-869.287
-916.118
-958.367
-998.649
-1038.65
-1077.62
-1115.35
-477.806
-441.188
-386.662
-334.582
-294.727
-273.828
-269.049
-275.17
-290.148
-311.428
-337.947
-367.388
-397.027
)
;

boundaryField
{
    top
    {
        type            fixedValue;
        value           uniform 0;
    }
    bottom
    {
        type            fixedFluxPressure;
        gradient        uniform 0;
        value           nonuniform List<scalar> 
12
(
-1438.6
-1506.48
-1560.02
-1599.97
-1630.64
-1655.04
-1675.16
-1692.31
-1707.31
-1720.65
-1732.63
-1743.48
)
;
    }
    frontAndBack
    {
        type            empty;
    }
    left_cyc
    {
        type            cyclic;
    }
    right_cyc
    {
        type            cyclic;
    }
    procBoundary3to0throughright_cyc
    {
        type            processorCyclic;
        value           nonuniform List<scalar> 
15
(
-1753.32
-1722.44
-1679.03
-1650.49
-1649.31
-1669.24
-1699.74
-1732.72
-1762.37
-1785.28
-1786.97
-1732.71
-1549.35
-1151.28
-427.102
)
;
    }
    procBoundary3to2
    {
        type            processor;
        value           nonuniform List<scalar> 
16
(
-1363.66
-1404.1
-1388.89
-1351.89
-1351.89
-1260.87
-1219.03
-1179.75
-1140.48
-1094.44
-1031.19
-942.503
-826.426
-689.566
-478.05
-494.25
)
;
    }
}


// ************************************************************************* //
