/*--------------------------------*- C++ -*----------------------------------*\
| =========                 |                                                 |
| \\      /  F ield         | OpenFOAM: The Open Source CFD Toolbox           |
|  \\    /   O peration     | Version:  2.3.0                                 |
|   \\  /    A nd           | Web:      www.OpenFOAM.org                      |
|    \\/     M anipulation  |                                                 |
\*---------------------------------------------------------------------------*/
FoamFile
{
    version     2.0;
    format      ascii;
    class       volScalarField;
    location    "14000";
    object      p_rgh;
}
// * * * * * * * * * * * * * * * * * * * * * * * * * * * * * * * * * * * * * //

dimensions      [0 2 -2 0 0 0 0];

internalField   nonuniform List<scalar> 
191
(
-1668.29
-1646.79
-1620.33
-1586.65
-1542.13
-1482.59
-1412.38
-1332.26
-1238.44
-1174.92
-1190.7
-1272.96
-1363.82
-1630.12
-1608.55
-1583.05
-1552.35
-1515.25
-1473.29
-1428.99
-1395.09
-1395.07
-1392.34
-1393.71
-1393.02
-1404.16
-1587.73
-1569.33
-1549.62
-1528.64
-1498.82
-1463.86
-1424.51
-1371.02
-1347.96
-1338.87
-1341.34
-1353.75
-1389
-1575.93
-1561.95
-1545.25
-1524.09
-1486.66
-1432.56
-1378.46
-1337.46
-1304.62
-1285.12
-1290.06
-1315.8
-1351.98
-1594.49
-1581.33
-1562.32
-1535.1
-1492.26
-1428.15
-1345.87
-1288.24
-1247.39
-1223.91
-1229.74
-1260.94
-1628.42
-1614.42
-1591.75
-1557.09
-1505.57
-1432.01
-1334.96
-1258.6
-1200.42
-1168.08
-1175.93
-1219.13
-1665.67
-1650.05
-1623.33
-1581.43
-1519.78
-1436
-1331.8
-1234.47
-1153.74
-1109.99
-1120.46
-1179.9
-1697.94
-1679.48
-1648.04
-1599.05
-1527.13
-1433.53
-1328.39
-1210.86
-1105.54
-1048.23
-1061.88
-1140.67
-1732.79
-1718.58
-1695.19
-1658.13
-1602.74
-1522.25
-1420.36
-1316
-1179.27
-1050.39
-979.102
-996.282
-1094.68
-1740.66
-1720.12
-1689.51
-1645.12
-1582.83
-1495.31
-1388.91
-1285.05
-1129.67
-981.122
-898.37
-918.51
-1031.46
-1712.09
-1683.42
-1644.41
-1592.53
-1524.3
-1431.75
-1316.32
-1209.7
-1048.14
-891.66
-802.857
-824.848
-942.784
-1609.55
-1572.9
-1526.35
-1466.79
-1388.74
-1292.22
-1182.02
-1077.17
-923.632
-779.003
-692.209
-714.355
-826.68
-1373.17
-1331.55
-1280.63
-1217.25
-1135.86
-1044.16
-966.709
-883.745
-766.075
-651.064
-576.743
-596.175
-689.767
-945.399
-901.622
-853.266
-804.059
-755.182
-707.248
-664.645
-608.708
-530.36
-451.015
-397.329
-411.64
-478.19
-284.812
-272.545
-269.541
-279.39
-306.462
-352.468
-407.751
-457.358
-486.225
-495.955
-493.177
-494.806
-494.233
)
;

boundaryField
{
    top
    {
        type            fixedValue;
        value           uniform 0;
    }
    bottom
    {
        type            fixedFluxPressure;
        gradient        uniform 0;
        value           nonuniform List<scalar> 
13
(
-1668.29
-1646.79
-1620.33
-1586.65
-1542.13
-1482.59
-1412.38
-1332.26
-1238.44
-1174.92
-1190.7
-1272.96
-1363.82
)
;
    }
    frontAndBack
    {
        type            empty;
    }
    left_cyc
    {
        type            cyclic;
    }
    right_cyc
    {
        type            cyclic;
    }
    procBoundary2to1
    {
        type            processor;
        value           nonuniform List<scalar> 
16
(
-1686.41
-1648.95
-1605.02
-1588.49
-1604.28
-1637.11
-1674.32
-1708.08
-1708.08
-1741.77
-1754.72
-1733.42
-1639.36
-1409.37
-986.008
-304.314
)
;
    }
    procBoundary2to3
    {
        type            processor;
        value           nonuniform List<scalar> 
16
(
-1438.74
-1445.95
-1440.97
-1394.45
-1308.02
-1308.02
-1285.73
-1269.95
-1255.39
-1233.1
-1187.37
-1107.99
-981.346
-809.226
-559.244
-477.754
)
;
    }
}


// ************************************************************************* //
