/*--------------------------------*- C++ -*----------------------------------*\
| =========                 |                                                 |
| \\      /  F ield         | OpenFOAM: The Open Source CFD Toolbox           |
|  \\    /   O peration     | Version:  2.3.0                                 |
|   \\  /    A nd           | Web:      www.OpenFOAM.org                      |
|    \\/     M anipulation  |                                                 |
\*---------------------------------------------------------------------------*/
FoamFile
{
    version     2.0;
    format      ascii;
    class       surfaceScalarField;
    location    "14000";
    object      phi;
}
// * * * * * * * * * * * * * * * * * * * * * * * * * * * * * * * * * * * * * //

dimensions      [0 3 -1 0 0 0 0];

internalField   nonuniform List<scalar> 
353
(
-0.412276
0.0250824
-0.443119
0.0308435
-0.479525
0.0364053
-0.515033
0.0355088
-0.52777
0.0127362
-0.487643
-0.0401267
-0.396788
-0.0908548
-0.2721
-0.124688
-0.124612
-0.147488
0.027317
-0.151929
0.17859
-0.151273
0.32035
-0.14176
-0.113554
-0.52192
0.0140464
-0.501217
0.0101399
-0.467262
0.00245063
-0.416314
-0.0154394
-0.345542
-0.0580353
-0.260853
-0.124816
-0.178843
-0.172865
-0.109845
-0.193686
-0.0504796
-0.206854
0.0103437
-0.212752
0.0706477
-0.211577
0.131986
-0.203098
-0.188079
-0.455474
-0.0189409
-0.40889
-0.036445
-0.348071
-0.0583683
-0.278406
-0.0851041
-0.215576
-0.120866
-0.170345
-0.170048
-0.129784
-0.213425
-0.0850044
-0.238466
-0.0388984
-0.25296
0.00787832
-0.259529
0.0544914
-0.25819
0.100359
-0.248966
-0.231489
-0.381098
-0.0537605
-0.333758
-0.0837854
-0.274266
-0.11786
-0.209659
-0.149711
-0.156172
-0.174353
-0.122186
-0.204033
-0.0935782
-0.242033
-0.0628912
-0.269153
-0.0292706
-0.28658
0.00588554
-0.294685
0.0406733
-0.292978
0.0733035
-0.281596
-0.305804
-0.0817492
-0.267467
-0.122122
-0.218598
-0.16673
-0.163954
-0.204355
-0.115741
-0.222566
-0.0851511
-0.234623
-0.0634296
-0.263754
-0.0424102
-0.290172
-0.0198019
-0.309189
0.00391056
-0.318397
0.0273493
-0.316416
-0.303593
-0.214558
-0.0994929
-0.189314
-0.147366
-0.155639
-0.200405
-0.115718
-0.244275
-0.0765972
-0.261687
-0.0515795
-0.25964
-0.0370884
-0.278246
-0.0246631
-0.302598
-0.011594
-0.322258
0.00221965
-0.332211
0.0158388
-0.330036
-0.3163
-0.101017
-0.106611
-0.0897529
-0.15863
-0.0734679
-0.21669
-0.0528494
-0.264894
-0.0311607
-0.283376
-0.0186257
-0.272175
-0.0131949
-0.283676
-0.00905901
-0.306734
-0.00442424
-0.326893
0.000783074
-0.337418
0.00583645
-0.335089
-0.320632
0.0308994
-0.104393
0.0288325
-0.156564
0.0266887
-0.214546
0.0242245
-0.26243
0.0213651
-0.280516
0.0159799
-0.26679
0.00999842
-0.277695
0.00557061
-0.302306
0.0022458
-0.323568
-0.000538784
-0.334634
-0.00346034
-0.332167
-0.316924
0.178577
-0.0582135
0.168675
-0.0944909
0.154455
-0.142344
0.134115
-0.194206
0.107268
-0.235582
0.0767647
-0.250013
0.0512206
-0.241246
0.0336553
-0.26013
0.0205808
-0.289231
0.00910572
-0.312093
-0.00196313
-0.323565
-0.0131254
-0.321005
-0.305054
0.307864
-0.0474102
0.291392
-0.0780196
0.26639
-0.117342
0.230007
-0.157823
0.181639
-0.187215
0.127267
-0.195641
0.0847116
-0.19869
0.0588405
-0.234259
0.0374453
-0.267836
0.0168775
-0.291525
-0.00375722
-0.30293
-0.0244045
-0.300358
-0.284288
0.393919
-0.0334543
0.371599
-0.0557
0.33773
-0.083473
0.289527
-0.109619
0.226898
-0.124586
0.163766
-0.132509
0.119905
-0.15483
0.0880392
-0.202392
0.0576732
-0.23747
0.0262351
-0.260087
-0.00595789
-0.270737
-0.0380157
-0.2683
-0.253126
0.410181
-0.0166635
0.383575
-0.0290939
0.344877
-0.0447751
0.295117
-0.0598593
0.239796
-0.0692649
0.192783
-0.085496
0.159694
-0.121742
0.122334
-0.165032
0.0810422
-0.196178
0.0369967
-0.216041
-0.00839314
-0.225347
-0.0534786
-0.223215
-0.209942
0.369594
-0.0056677
0.352317
-0.011817
0.326234
-0.0186924
0.29372
-0.0273456
0.263735
-0.0392792
0.236519
-0.0582805
0.202258
-0.0874809
0.156651
-0.119424
0.104125
-0.143653
0.047602
-0.159518
-0.0107893
-0.166956
-0.0687557
-0.165248
-0.154637
0.363692
0.00149621
0.353293
-0.0014179
0.33931
-0.00470959
0.321411
-0.00944719
0.29954
-0.017408
0.27196
-0.0307006
0.233434
-0.0489549
0.182196
-0.0681858
0.121902
-0.0833591
0.0559374
-0.0935536
-0.0126552
-0.0983633
-0.0806462
-0.0972572
-0.0904056
0.366136
0.359849
0.351269
0.339639
0.322752
0.296473
0.256596
0.202126
0.136223
0.06278
-0.014188
-0.0903443
)
;

boundaryField
{
    top
    {
        type            calculated;
        value           nonuniform List<scalar> 
13
(
0.00546574
0.00486893
0.00387091
0.00218254
-0.000521089
-0.00442146
-0.00907815
-0.0137154
-0.0174561
-0.0201109
-0.0213953
-0.0211009
-0.0192886
)
;
    }
    bottom
    {
        type            calculated;
        value           uniform 0;
    }
    frontAndBack
    {
        type            empty;
        value           nonuniform 0();
    }
    left_cyc
    {
        type            cyclic;
        value           nonuniform 0();
    }
    right_cyc
    {
        type            cyclic;
        value           nonuniform 0();
    }
    procBoundary2to1
    {
        type            processor;
        value           nonuniform List<scalar> 
16
(
0.387194
0.532956
0.488462
0.415918
0.333793
0.232302
0.108135
-0.0331178
0.0655035
-0.185866
-0.318667
-0.407875
-0.426972
-0.380589
-0.370856
-0.370105
)
;
    }
    procBoundary2to3
    {
        type            processor;
        value           nonuniform List<scalar> 
16
(
0.433904
0.206511
0.143769
0.102734
-0.26092
0.0493465
0.0285458
0.0101684
-0.00716872
-0.0249952
-0.0451701
-0.0691786
-0.0966618
-0.124061
-0.144878
-0.161461
)
;
    }
}


// ************************************************************************* //
