/*--------------------------------*- C++ -*----------------------------------*\
| =========                 |                                                 |
| \\      /  F ield         | OpenFOAM: The Open Source CFD Toolbox           |
|  \\    /   O peration     | Version:  2.3.0                                 |
|   \\  /    A nd           | Web:      www.OpenFOAM.org                      |
|    \\/     M anipulation  |                                                 |
\*---------------------------------------------------------------------------*/
FoamFile
{
    version     2.0;
    format      ascii;
    class       volScalarField;
    location    "4000";
    object      p;
}
// * * * * * * * * * * * * * * * * * * * * * * * * * * * * * * * * * * * * * //

dimensions      [0 2 -2 0 0 0 0];

internalField   nonuniform List<scalar> 
191
(
-1598.35
-1580.49
-1559.12
-1532.47
-1497.91
-1451.13
-1388.62
-1317.3
-1228.92
-1139.06
-1107.7
-1156.7
-1243.86
-1445.99
-1433.13
-1418.53
-1401.59
-1381.78
-1357.65
-1327.65
-1294.27
-1284.6
-1289.56
-1280.89
-1273.55
-1262.79
-1326.46
-1319.82
-1313.16
-1306.64
-1299.49
-1282.1
-1263.68
-1232.9
-1206.14
-1204.34
-1202.97
-1203.47
-1209.51
-1218.14
-1214.86
-1211.46
-1207.72
-1202.38
-1181.33
-1148.67
-1133.88
-1125.66
-1119.89
-1117.39
-1122.18
-1130.4
-1108.02
-1105.72
-1102.74
-1098.79
-1094.17
-1079.36
-1047.57
-1024.74
-1021.2
-1021.86
-1021.48
-1023.16
-992.393
-990.718
-988.264
-984.803
-980.836
-971.653
-951.883
-932.837
-930.897
-932.601
-932.535
-933.399
-871.044
-870.199
-868.784
-866.753
-864.431
-860.22
-853.374
-847.537
-846.259
-846.009
-845.638
-846.282
-744.798
-745.011
-744.985
-744.883
-744.8
-745.092
-751.924
-767.147
-765.633
-761.859
-760.974
-761.95
-613.447
-615.093
-616.754
-618.573
-620.928
-623.64
-629.196
-651.208
-688.01
-685.348
-677.94
-676.574
-677.807
-480.422
-483.684
-487.302
-491.495
-496.838
-502.936
-516.023
-551.455
-601.341
-600.067
-591.897
-590.68
-591.434
-347.791
-353.299
-359.632
-367.091
-376.422
-386.995
-408.364
-459.242
-505.892
-506.264
-502.998
-502.696
-501.363
-220.762
-229.182
-238.632
-248.657
-258.832
-268.531
-294.221
-354.851
-400.026
-407.689
-414.027
-415.454
-410.35
-105.168
-115.91
-125.685
-132.217
-139.202
-141.727
-174.186
-243.884
-295.733
-323.528
-340.125
-344.019
-335.048
-6.98404
-9.41527
-9.30977
-9.30634
-19.6643
-41.9775
-83.265
-143.508
-186.467
-213.77
-229.911
-233.907
-225.656
97.0934
91.4527
78.6744
55.6495
14.817
-49.2486
-134.673
-231.094
-315.251
-379.319
-418.981
-429.74
-410.656
)
;

boundaryField
{
    top
    {
        type            calculated;
        value           nonuniform List<scalar> 
13
(
-9.81
-9.81
-9.81
-9.81
-9.81
-9.81
-9.81
-9.81
-9.81
-9.81
-9.81
-9.81
-9.81
)
;
    }
    bottom
    {
        type            calculated;
        value           nonuniform List<scalar> 
13
(
-1685.2
-1665.91
-1642.74
-1613.86
-1576.59
-1526.53
-1460.03
-1385.62
-1295
-1203.94
-1172.44
-1222.27
-1311.09
)
;
    }
    frontAndBack
    {
        type            empty;
    }
    left_cyc
    {
        type            cyclic;
    }
    right_cyc
    {
        type            cyclic;
    }
    procBoundary2to1
    {
        type            processor;
        value           nonuniform List<scalar> 
16
(
-1613.74
-1457.57
-1333.05
-1221.48
-1109.97
-993.551
-871.446
-744.326
-744.326
-611.726
-477.351
-342.835
-213.179
-94.2646
-1.58661
97.1932
)
;
    }
    procBoundary2to3
    {
        type            processor;
        value           nonuniform List<scalar> 
16
(
-1321.66
-1282.37
-1240.31
-1139.3
-1024.07
-1024.07
-932.304
-846.308
-764.604
-683.114
-598.351
-504.555
-401.613
-314.225
-206.243
-365.257
)
;
    }
}


// ************************************************************************* //
