/*--------------------------------*- C++ -*----------------------------------*\
| =========                 |                                                 |
| \\      /  F ield         | OpenFOAM: The Open Source CFD Toolbox           |
|  \\    /   O peration     | Version:  2.3.0                                 |
|   \\  /    A nd           | Web:      www.OpenFOAM.org                      |
|    \\/     M anipulation  |                                                 |
\*---------------------------------------------------------------------------*/
FoamFile
{
    version     2.0;
    format      ascii;
    class       volScalarField;
    location    "4000";
    object      p_rgh;
}
// * * * * * * * * * * * * * * * * * * * * * * * * * * * * * * * * * * * * * //

dimensions      [0 2 -2 0 0 0 0];

internalField   nonuniform List<scalar> 
191
(
-1685.2
-1665.91
-1642.74
-1613.86
-1576.59
-1526.53
-1460.03
-1385.62
-1295
-1203.94
-1172.44
-1222.27
-1311.09
-1647.64
-1627.86
-1604.99
-1577.77
-1545.08
-1506.14
-1463.79
-1419.93
-1401.67
-1400.87
-1390.67
-1386.6
-1382.27
-1605.37
-1587.79
-1569.11
-1549.27
-1526.92
-1491.6
-1453.31
-1402.43
-1357.81
-1343.44
-1338.3
-1345.19
-1364.23
-1592.44
-1579.74
-1565.11
-1546.91
-1522.04
-1474.77
-1410.02
-1360.85
-1321.17
-1293.24
-1284.32
-1300.35
-1331.69
-1610.49
-1600.02
-1585.14
-1562.98
-1530.85
-1476.88
-1395.84
-1319.41
-1266.51
-1232.7
-1222.97
-1242.76
-1643.78
-1633.76
-1616.97
-1589.5
-1547.88
-1484.34
-1395.13
-1299.42
-1226.74
-1179.45
-1166.88
-1194.56
-1680.2
-1669.69
-1650.33
-1617.41
-1566.46
-1491.88
-1393.86
-1285.93
-1190.22
-1124.83
-1108.44
-1146.23
-1712.14
-1699.67
-1676.71
-1638.11
-1578.51
-1493
-1387.09
-1274.1
-1153.45
-1067.26
-1046.26
-1096.21
-1744.26
-1734.17
-1717.28
-1688.99
-1644.37
-1577.35
-1483.09
-1371.58
-1254.83
-1109.46
-1002.29
-976.995
-1039.9
-1754.61
-1738.96
-1715.24
-1679.32
-1627.17
-1552.46
-1451.59
-1334.57
-1210.81
-1047.93
-924.939
-896.227
-970.224
-1730.88
-1707.38
-1675.07
-1630.47
-1570.85
-1489.63
-1383.24
-1267.78
-1131.13
-959.667
-831.425
-800.692
-881.049
-1634.85
-1602.66
-1562.29
-1509.83
-1441.81
-1351.65
-1243.52
-1137.7
-1003.28
-840.838
-720.306
-689.881
-769.05
-1402.98
-1364.66
-1319.55
-1262.3
-1191.8
-1097.43
-1007.88
-931.055
-824.371
-700.124
-600.902
-574.608
-643.069
-976.886
-934.394
-887.833
-836.614
-787.196
-736.297
-687.257
-641.161
-569.311
-485.417
-415.12
-395.683
-445.249
-291.835
-273.165
-263.147
-264.035
-281.228
-318.055
-370.925
-428.81
-469.657
-489.444
-492.857
-493.229
-498.499
)
;

boundaryField
{
    top
    {
        type            fixedValue;
        value           uniform 0;
    }
    bottom
    {
        type            fixedFluxPressure;
        gradient        uniform 0;
        value           nonuniform List<scalar> 
13
(
-1685.2
-1665.91
-1642.74
-1613.86
-1576.59
-1526.53
-1460.03
-1385.62
-1295
-1203.94
-1172.44
-1222.27
-1311.09
)
;
    }
    frontAndBack
    {
        type            empty;
    }
    left_cyc
    {
        type            cyclic;
    }
    right_cyc
    {
        type            cyclic;
    }
    procBoundary2to1
    {
        type            processor;
        value           nonuniform List<scalar> 
16
(
-1701.75
-1665.17
-1621.95
-1604.29
-1618.77
-1650.16
-1685.9
-1718.83
-1718.83
-1750.89
-1765.43
-1748.6
-1661.62
-1436.77
-1018.59
-316.866
)
;
    }
    procBoundary2to3
    {
        type            processor;
        value           nonuniform List<scalar> 
16
(
-1391.23
-1410.25
-1411.68
-1369.77
-1280.86
-1280.86
-1248.15
-1220.96
-1194.99
-1161.95
-1111.16
-1029.04
-905.554
-752.785
-521.411
-491.771
)
;
    }
}


// ************************************************************************* //
