/*--------------------------------*- C++ -*----------------------------------*\
| =========                 |                                                 |
| \\      /  F ield         | OpenFOAM: The Open Source CFD Toolbox           |
|  \\    /   O peration     | Version:  2.3.0                                 |
|   \\  /    A nd           | Web:      www.OpenFOAM.org                      |
|    \\/     M anipulation  |                                                 |
\*---------------------------------------------------------------------------*/
FoamFile
{
    version     2.0;
    format      ascii;
    class       volVectorField;
    location    "4000";
    object      U;
}
// * * * * * * * * * * * * * * * * * * * * * * * * * * * * * * * * * * * * * //

dimensions      [0 1 -1 0 0 0 0];

internalField   nonuniform List<vector> 
191
(
(-57.7615 0 2.90776)
(-61.4354 0 3.8798)
(-65.9 0 5.23406)
(-71.239 0 6.72487)
(-76.9589 0 7.16544)
(-80.0576 0 3.81013)
(-74.7483 0 -4.4333)
(-60.9462 0 -14.1374)
(-40.2549 0 -22.9955)
(-17.3732 0 -26.118)
(5.04336 0 -25.6405)
(26.9025 0 -24.0806)
(47.9453 0 -18.5739)
(-80.5068 0 3.75873)
(-79.0438 0 4.03693)
(-76.0857 0 4.14211)
(-71.0333 0 3.47735)
(-63.3575 0 0.311436)
(-52.3896 0 -8.17551)
(-38.5974 0 -19.8494)
(-25.0845 0 -24.2209)
(-15.1341 0 -25.8653)
(-6.20638 0 -26.9439)
(2.88187 0 -26.8172)
(11.945 0 -25.6492)
(20.9965 0 -23.7587)
(-74.3623 0 0.722457)
(-69.6804 0 -0.757886)
(-62.8404 0 -2.8955)
(-53.5777 0 -5.89628)
(-42.4017 0 -10.4397)
(-30.7023 0 -17.7905)
(-24.0831 0 -27.1071)
(-17.7455 0 -32.5968)
(-11.1449 0 -35.1214)
(-4.22497 0 -36.0312)
(2.77756 0 -35.8163)
(9.81746 0 -34.68)
(16.7755 0 -32.6288)
(-63.3075 0 -3.70583)
(-58.3065 0 -7.0163)
(-51.3002 0 -11.3415)
(-42.1582 0 -16.2733)
(-31.7898 0 -21.2524)
(-21.5082 0 -26.468)
(-16.66 0 -32.5948)
(-12.3931 0 -37.53)
(-7.81827 0 -40.4529)
(-2.78197 0 -41.9033)
(2.49574 0 -41.9048)
(7.76887 0 -40.5251)
(12.7543 0 -37.8938)
(-50.361 0 -7.77512)
(-46.3114 0 -12.7087)
(-40.6233 0 -19.0097)
(-33.0958 0 -25.6307)
(-24.6495 0 -30.7333)
(-15.7216 0 -33.3419)
(-11.2795 0 -36.8377)
(-8.05989 0 -41.4321)
(-4.92751 0 -44.5773)
(-1.52028 0 -46.2581)
(2.04387 0 -46.3533)
(5.59336 0 -44.868)
(-34.389 0 -10.7031)
(-31.8231 0 -16.854)
(-28.1142 0 -24.6951)
(-23.02 0 -32.7576)
(-17.1394 0 -38.4365)
(-10.5534 0 -39.5514)
(-6.53314 0 -40.5518)
(-4.39584 0 -44.0566)
(-2.56819 0 -47.0892)
(-0.586196 0 -48.9311)
(1.49034 0 -49.0961)
(3.54709 0 -47.5)
(-15.14 0 -12.1692)
(-14.12 0 -19.047)
(-12.5015 0 -27.8604)
(-10.1397 0 -36.9099)
(-7.30722 0 -43.1725)
(-4.00158 0 -43.763)
(-1.91624 0 -43.1312)
(-1.1703 0 -45.4638)
(-0.604125 0 -48.3413)
(0.0920911 0 -50.2813)
(0.878075 0 -50.4892)
(1.64543 0 -48.8166)
(6.42087 0 -12.3401)
(6.10832 0 -19.4816)
(5.79891 0 -28.6346)
(5.39287 0 -38.0042)
(4.82441 0 -44.4454)
(4.17432 0 -44.8178)
(2.69751 0 -43.4228)
(1.89945 0 -45.3939)
(1.18025 0 -48.3488)
(0.650606 0 -50.4128)
(0.242228 0 -50.6625)
(-0.180024 0 -48.9277)
(29.3318 0 -6.87417)
(28.3288 0 -11.5163)
(26.9426 0 -18.4216)
(24.9111 0 -27.1624)
(21.8385 0 -35.9408)
(17.8287 0 -41.8099)
(12.8732 0 -41.9218)
(7.37735 0 -40.9135)
(5.0357 0 -43.7842)
(3.03037 0 -47.1308)
(1.24708 0 -49.36)
(-0.398877 0 -49.6561)
(-2.04633 0 -47.8716)
(49.0456 0 -5.76095)
(47.5707 0 -9.94408)
(45.2407 0 -16.0296)
(41.6138 0 -23.5284)
(36.0895 0 -30.717)
(28.9466 0 -35.1762)
(19.6156 0 -35.129)
(12.2543 0 -35.4459)
(8.51974 0 -40.6502)
(5.23649 0 -44.6387)
(2.05356 0 -47.0163)
(-1.03348 0 -47.3539)
(-4.08988 0 -45.5658)
(62.1096 0 -4.34549)
(60.1844 0 -7.67389)
(56.9677 0 -12.4403)
(51.9462 0 -18.1901)
(44.5205 0 -23.2815)
(35.0685 0 -25.882)
(22.9589 0 -26.1958)
(17.2937 0 -29.7602)
(12.697 0 -36.365)
(7.98517 0 -40.7472)
(3.17558 0 -43.1296)
(-1.66439 0 -43.4809)
(-6.43645 0 -41.7758)
(64.59 0 -2.86363)
(62.2296 0 -5.03287)
(58.3466 0 -8.08887)
(52.539 0 -11.5205)
(44.7578 0 -13.3964)
(36.2239 0 -13.3971)
(27.8633 0 -17.5146)
(23.0537 0 -24.6643)
(17.6863 0 -31.0719)
(11.2658 0 -35.1832)
(4.58081 0 -37.3628)
(-2.26666 0 -37.6873)
(-9.01862 0 -36.1555)
(56.8505 0 -0.351933)
(55.2571 0 -1.32593)
(52.7648 0 -2.45186)
(48.9967 0 -3.95198)
(43.4877 0 -6.09625)
(39.0542 0 -8.9317)
(34.8463 0 -13.2388)
(29.6843 0 -19.3291)
(22.7306 0 -24.4847)
(14.6447 0 -27.8983)
(6.05034 0 -29.7605)
(-2.77082 0 -30.0462)
(-11.4598 0 -28.7519)
(55.139 0 -0.123047)
(54.1058 0 -0.717853)
(52.5837 0 -1.35395)
(50.5353 0 -2.10721)
(47.8031 0 -3.23098)
(44.4999 0 -5.13976)
(40.3575 0 -8.1868)
(34.4988 0 -11.9985)
(26.5742 0 -15.3523)
(17.2931 0 -17.6796)
(7.23733 0 -18.9708)
(-3.13551 0 -19.1718)
(-13.327 0 -18.2799)
(54.9137 0 2.05629)
(54.3688 0 1.71377)
(53.4692 0 1.2795)
(52.2363 0 0.646343)
(50.5421 0 -0.417317)
(48.0609 0 -2.10727)
(44.1588 0 -4.51464)
(38.0543 0 -7.36268)
(29.6138 0 -9.88528)
(19.4605 0 -11.7482)
(8.2432 0 -12.8498)
(-3.40888 0 -13.0941)
(-14.8279 0 -12.4642)
)
;

boundaryField
{
    top
    {
        type            directionMixed;
        refValue        uniform (0 0 0);
        refGradient     uniform (0 0 0);
        valueFraction   uniform (0 0 0 0 0 1);
        value           nonuniform List<vector> 
13
(
(54.9137 0 0)
(54.3688 0 0)
(53.4692 0 0)
(52.2363 0 0)
(50.5421 0 0)
(48.0609 0 0)
(44.1588 0 0)
(38.0543 0 0)
(29.6138 0 0)
(19.4605 0 0)
(8.2432 0 0)
(-3.40888 0 0)
(-14.8279 0 0)
)
;
    }
    bottom
    {
        type            fixedValue;
        value           uniform (0 0 0);
    }
    frontAndBack
    {
        type            empty;
    }
    left_cyc
    {
        type            cyclic;
    }
    right_cyc
    {
        type            cyclic;
    }
    procBoundary2to1
    {
        type            processor;
        value           nonuniform List<vector> 
16
(
(-54.6754 0 2.25824)
(-80.9949 0 3.44593)
(-77.4784 0 1.59473)
(-66.8411 0 -1.55776)
(-53.2429 0 -4.52703)
(-36.1709 0 -6.64316)
(-15.7573 0 -7.63088)
(6.76205 0 -7.60488)
(6.76205 0 -7.60488)
(30.1728 0 -4.14449)
(50.0501 0 -3.20669)
(63.2563 0 -2.24709)
(66.0333 0 -1.47226)
(58.0309 0 0.54908)
(55.7458 0 0.443953)
(55.083 0 2.34265)
)
;
    }
    procBoundary2to3
    {
        type            processor;
        value           nonuniform List<vector> 
16
(
(65.0033 0 -10.5213)
(31.542 0 -21.8672)
(23.2415 0 -29.1639)
(17.2028 0 -33.977)
(8.94828 0 -41.9549)
(8.94828 0 -41.9549)
(5.47865 0 -44.4064)
(2.3043 0 -45.6368)
(-0.721066 0 -45.6497)
(-3.80031 0 -44.4332)
(-7.17878 0 -41.9951)
(-11.1029 0 -38.2575)
(-15.4767 0 -32.9583)
(-19.6984 0 -26.0449)
(-22.8742 0 -16.4167)
(-25.392 0 -11.0659)
)
;
    }
}


// ************************************************************************* //
