/*--------------------------------*- C++ -*----------------------------------*\
| =========                 |                                                 |
| \\      /  F ield         | OpenFOAM: The Open Source CFD Toolbox           |
|  \\    /   O peration     | Version:  2.3.0                                 |
|   \\  /    A nd           | Web:      www.OpenFOAM.org                      |
|    \\/     M anipulation  |                                                 |
\*---------------------------------------------------------------------------*/
FoamFile
{
    version     2.0;
    format      ascii;
    class       surfaceScalarField;
    location    "4000";
    object      phi;
}
// * * * * * * * * * * * * * * * * * * * * * * * * * * * * * * * * * * * * * //

dimensions      [0 3 -1 0 0 0 0];

internalField   nonuniform List<scalar> 
356
(
0.307678
0.00725081
0.305164
0.00251398
0.30952
-0.00435549
0.322645
-0.0131252
0.344967
-0.0223227
0.37354
-0.0285727
0.399724
-0.0261839
0.407653
-0.00792939
0.376256
0.0313972
0.283619
0.0926374
0.119482
0.164137
-0.0893099
0.208792
0.172647
0.537268
0.00437384
0.545094
-0.00531186
0.559445
-0.0187075
0.580961
-0.0346404
0.608189
-0.0495508
0.635892
-0.0562754
0.653084
-0.0433761
0.641479
0.00367571
0.574872
0.0980041
0.424912
0.242597
0.177085
0.411964
-0.130181
0.516058
0.431922
0.564133
-0.00724115
0.578438
-0.0196167
0.595826
-0.0360949
0.615673
-0.0544882
0.635652
-0.069529
0.65072
-0.0713442
0.651879
-0.0445347
0.624874
0.0306804
0.549016
0.173862
0.400518
0.391095
0.165909
0.646573
-0.120156
0.802123
0.676489
0.506297
-0.0199036
0.519385
-0.0327049
0.532382
-0.049092
0.543946
-0.0660527
0.551644
-0.0772261
0.55148
-0.071181
0.537252
-0.0303059
0.49978
0.0681516
0.42674
0.246903
0.303866
0.513968
0.123819
0.82662
-0.0886825
1.01462
0.862716
0.406687
-0.0282507
0.413541
-0.0395587
0.417905
-0.0534566
0.418317
-0.0664642
0.412823
-0.0717319
0.398857
-0.057215
0.373027
-0.00447602
0.331185
0.109993
0.268755
0.309334
0.181617
0.601106
0.070575
0.937663
-0.050993
1.13619
0.975351
0.274138
-0.0300246
0.272986
-0.0384062
0.267902
-0.0483726
0.257806
-0.0563687
0.241621
-0.0555467
0.218328
-0.0339217
0.187142
0.02671
0.148184
0.148951
0.103108
0.354409
0.0565694
0.647645
0.016705
0.977527
-0.0143925
1.16729
1.01266
0.115892
-0.0252166
0.107485
-0.029999
0.0947924
-0.0356805
0.0773483
-0.0389246
0.0549781
-0.0331765
0.0280053
-0.00694893
-0.00208972
0.056805
-0.0318832
0.178744
-0.0545874
0.377113
-0.0586519
0.651709
-0.0316451
0.95052
0.0178819
1.11776
0.9802
-0.0534681
-0.0157187
-0.0665779
-0.0168892
-0.0836518
-0.0186066
-0.104673
-0.0179032
-0.129103
-0.00874701
-0.155378
0.0193261
-0.179968
0.0813954
-0.196377
0.195153
-0.193494
0.374231
-0.155722
0.613937
-0.0706822
0.865481
0.0444607
1.00262
0.888396
-0.215197
-0.00450703
-0.229881
-0.00220587
-0.248248
-0.000239157
-0.269965
0.00381337
-0.293785
0.0150733
-0.316772
0.0423127
-0.333309
0.0979325
-0.333961
0.195805
-0.304774
0.345044
-0.229325
0.538488
-0.0985108
0.734666
0.0649293
0.83918
0.750829
-0.349897
0.00581896
-0.363641
0.0115375
-0.380953
0.0170732
-0.401196
0.0240567
-0.422408
0.0362848
-0.440395
0.0602999
-0.44768
0.105218
-0.432706
0.18083
-0.380378
0.292717
-0.275748
0.433858
-0.114164
0.573082
0.0790433
0.645972
0.583335
-0.437588
0.0140292
-0.448788
0.0227372
-0.463041
0.0313268
-0.479545
0.0405602
-0.495973
0.0527132
-0.507484
0.0718107
-0.505708
0.103442
-0.478391
0.153513
-0.410825
0.225151
-0.290474
0.313507
-0.116469
0.399076
0.0859836
0.44352
0.4046
-0.458519
0.0201328
-0.46597
0.0301887
-0.474796
0.0401524
-0.484401
0.0501658
-0.492862
0.0611737
-0.495931
0.0748803
-0.486121
0.0936313
-0.452502
0.119894
-0.382314
0.154963
-0.265493
0.196686
-0.102882
0.236466
0.0834839
0.257154
-0.40811
0.0235619
-0.409753
0.0318314
-0.409561
0.0399607
-0.407478
0.048082
-0.402735
0.0564311
-0.393104
0.0652492
-0.374213
0.0747399
-0.339311
0.0849927
-0.280192
0.095844
-0.190128
0.106622
-0.0694452
0.115783
0.120175
-0.367757
0.0151819
-0.355039
0.019113
-0.338152
0.0230742
-0.317153
0.0270826
-0.291935
0.0312135
-0.262202
0.0355167
-0.227441
0.0399781
-0.186926
0.0444777
-0.139826
0.0487441
-0.0855423
0.0523385
-0.024499
0.0547399
0.0555513
-0.356587
-0.342623
-0.32454
-0.302238
-0.275547
-0.244237
-0.208084
-0.166974
-0.121073
-0.0710302
-0.0181259
)
;

boundaryField
{
    top
    {
        type            calculated;
        value           nonuniform List<scalar> 
12
(
0.00524798
0.00514875
0.00499059
0.00478092
0.00452208
0.00420729
0.00382524
0.00336773
0.00284227
0.00229612
0.00183565
0.00167861
)
;
    }
    bottom
    {
        type            calculated;
        value           uniform 0;
    }
    frontAndBack
    {
        type            empty;
        value           nonuniform 0();
    }
    left_cyc
    {
        type            cyclic;
        value           nonuniform 0();
    }
    right_cyc
    {
        type            cyclic;
        value           nonuniform 0();
    }
    procBoundary0to1
    {
        type            processor;
        value           nonuniform List<scalar> 
16
(
-0.261957
-0.389456
-0.364723
-0.27491
-0.163628
-0.0516977
0.0503377
0.136265
0.202496
0.246538
0.264718
0.249594
0.23849
0.0675337
0.0401246
0.0357468
)
;
    }
    procBoundary0to3throughleft_cyc
    {
        type            processorCyclic;
        value           nonuniform List<scalar> 
15
(
-0.314929
-0.534391
-0.552518
-0.493634
-0.39834
-0.272364
-0.1207
0.0439702
0.203986
0.339571
0.429378
0.452415
0.404681
0.376137
0.366521
)
;
    }
}


// ************************************************************************* //
