/*--------------------------------*- C++ -*----------------------------------*\
| =========                 |                                                 |
| \\      /  F ield         | OpenFOAM: The Open Source CFD Toolbox           |
|  \\    /   O peration     | Version:  2.3.0                                 |
|   \\  /    A nd           | Web:      www.OpenFOAM.org                      |
|    \\/     M anipulation  |                                                 |
\*---------------------------------------------------------------------------*/
FoamFile
{
    version     2.0;
    format      ascii;
    class       volScalarField;
    location    "4000";
    object      T;
}
// * * * * * * * * * * * * * * * * * * * * * * * * * * * * * * * * * * * * * //

dimensions      [0 0 0 1 0 0 0];

internalField   nonuniform List<scalar> 
192
(
39.8922
40.047
40.1042
40.0549
39.9444
39.8438
39.8512
40.0608
40.3464
40.7063
41.1993
41.6295
41.2751
32.7923
33.1146
33.2913
33.3544
33.3433
33.337
33.455
33.8363
34.5294
35.739
37.4574
38.9031
37.714
27.7576
28.1495
28.4606
28.6974
28.8854
29.0717
29.3346
29.7916
30.8127
32.6078
35.1388
37.226
35.5288
25.5088
25.9156
26.2889
26.6298
26.9412
27.2304
27.5344
28.0113
29.0533
30.9873
33.8322
36.1775
34.2862
25.4753
25.8106
26.1553
26.4969
26.8131
27.0794
27.308
27.6803
28.5436
30.3572
33.2009
35.5329
33.6609
26.4364
26.7068
27.0001
27.2905
27.5386
27.7077
27.8274
28.0214
28.6796
30.3199
33.0057
35.1489
33.4294
27.6457
27.8742
28.1114
28.323
28.4677
28.5194
28.5348
28.6369
29.2271
30.6932
33.0236
34.8666
33.3737
28.7817
28.9698
29.1375
29.2591
29.3197
29.3398
29.348
29.4935
30.0366
31.2442
33.1049
34.6216
33.3683
29.6746
29.8292
29.9561
30.0516
30.1169
30.1604
30.2252
30.418
30.8956
31.8286
33.2177
34.4048
33.3975
30.2299
30.4122
30.5682
30.6984
30.8089
30.9143
31.0467
31.2671
31.6685
32.3541
33.3316
34.2067
33.4415
30.1737
30.4543
30.7107
30.9463
31.1659
31.3777
31.5986
31.8607
32.2149
32.7188
33.381
33.9845
33.4415
28.9136
29.3746
29.807
30.2168
30.6096
30.9903
31.3641
31.7412
32.1397
32.5817
33.0662
33.4726
33.1011
25.3934
26.0618
26.696
27.3042
27.8955
28.4765
29.0496
29.613
30.1614
30.6844
31.154
31.467
18.4679
19.1812
19.8686
20.5361
21.1899
21.834
22.4678
23.0859
23.6759
24.2149
24.6582
24.8987
7.30687
7.69196
8.07288
8.45088
8.82785
9.20377
9.57541
9.93535
10.2709
10.5631
10.7845
10.8895
)
;

boundaryField
{
    top
    {
        type            fixedValue;
        value           uniform 0;
    }
    bottom
    {
        type            fixedValue;
        value           uniform 43.8;
    }
    frontAndBack
    {
        type            empty;
    }
    left_cyc
    {
        type            cyclic;
    }
    right_cyc
    {
        type            cyclic;
    }
    procBoundary0to1
    {
        type            processor;
        value           nonuniform List<scalar> 
16
(
40.7663
35.9356
32.9333
31.38
30.7627
30.7032
31.0135
31.4817
31.9872
32.45
32.7732
32.6184
31.1849
31.1849
24.6863
10.7993
)
;
    }
    procBoundary0to3throughleft_cyc
    {
        type            processorCyclic;
        value           nonuniform List<scalar> 
15
(
39.6822
32.3346
27.2619
25.0684
25.1543
26.2
27.446
28.5961
29.5005
30.0215
29.8655
28.4201
24.6903
17.7311
6.92133
)
;
    }
}


// ************************************************************************* //
