/*--------------------------------*- C++ -*----------------------------------*\
| =========                 |                                                 |
| \\      /  F ield         | OpenFOAM: The Open Source CFD Toolbox           |
|  \\    /   O peration     | Version:  2.3.0                                 |
|   \\  /    A nd           | Web:      www.OpenFOAM.org                      |
|    \\/     M anipulation  |                                                 |
\*---------------------------------------------------------------------------*/
FoamFile
{
    version     2.0;
    format      ascii;
    class       volVectorField;
    location    "4000";
    object      U;
}
// * * * * * * * * * * * * * * * * * * * * * * * * * * * * * * * * * * * * * //

dimensions      [0 1 -1 0 0 0 0];

internalField   nonuniform List<vector> 
192
(
(46.5625 0 0.909625)
(45.7645 0 0.556978)
(45.8325 0 0.026281)
(47.1012 0 -0.705605)
(49.7987 0 -1.56023)
(53.8101 0 -2.29186)
(58.3371 0 -2.44275)
(61.5349 0 -1.40192)
(60.5508 0 1.19408)
(51.8792 0 5.36831)
(32.5376 0 10.2751)
(2.43631 0 13.3893)
(-28.495 0 10.8701)
(80.2345 0 1.26501)
(80.9709 0 0.134909)
(82.5873 0 -1.47437)
(85.2812 0 -3.46753)
(89.0436 0 -5.46503)
(93.441 0 -6.65967)
(97.3235 0 -5.73651)
(98.5618 0 -1.0451)
(93.7323 0 8.76293)
(78.451 0 23.8968)
(48.7333 0 41.5327)
(3.80774 0 52.4242)
(-42.357 0 43.6172)
(83.6684 0 -0.0860414)
(85.5818 0 -1.83784)
(87.9576 0 -4.21331)
(90.7963 0 -6.95285)
(93.9085 0 -9.36866)
(96.7849 0 -10.1345)
(98.4157 0 -7.16872)
(97.1032 0 2.18606)
(90.2504 0 20.4677)
(74.3119 0 48.3544)
(45.8177 0 81.072)
(3.70981 0 101.055)
(-39.538 0 84.91)
(74.9766 0 -2.10557)
(76.913 0 -4.06716)
(78.9009 0 -6.62742)
(80.8093 0 -9.38536)
(82.3691 0 -11.4476)
(83.1193 0 -11.1811)
(82.3127 0 -6.0563)
(78.8132 0 7.19741)
(71.0457 0 31.8569)
(56.9167 0 69.0589)
(34.34 0 112.811)
(2.81793 0 139.313)
(-29.4288 0 117.911)
(60.4181 0 -3.81154)
(61.5855 0 -5.68075)
(62.4722 0 -8.02221)
(62.8941 0 -10.3352)
(62.5975 0 -11.6089)
(61.248 0 -10.0519)
(58.3987 0 -2.91018)
(53.4702 0 13.3543)
(45.8299 0 42.2662)
(34.7745 0 85.0723)
(19.8387 0 134.916)
(1.52178 0 164.64)
(-16.9821 0 140.606)
(41.0785 0 -4.63217)
(41.1598 0 -6.14816)
(40.7321 0 -7.97089)
(39.6358 0 -9.55941)
(37.7058 0 -9.87119)
(34.7799 0 -7.08197)
(30.7079 0 1.59206)
(25.4098 0 19.6644)
(19.0082 0 50.5507)
(11.919 0 95.2192)
(5.18345 0 146.194)
(0.10807 0 175.909)
(-4.66992 0 151.783)
(17.8638 0 -4.36914)
(16.9021 0 -5.36645)
(15.3427 0 -6.53673)
(13.0962 0 -7.35535)
(10.1089 0 -6.80793)
(6.37962 0 -3.11361)
(2.01254 0 6.40342)
(-2.65632 0 25.0228)
(-6.92695 0 55.7834)
(-9.43837 0 99.0428)
(-8.01792 0 146.935)
(-1.17645 0 174.087)
(6.28117 0 151.87)
(-7.18237 0 -3.19518)
(-8.85774 0 -3.63725)
(-11.1144 0 -4.17882)
(-13.9804 0 -4.34013)
(-17.4243 0 -3.1638)
(-21.3152 0 1.01569)
(-25.3073 0 10.6363)
(-28.6946 0 28.6085)
(-30.2181 0 57.3481)
(-27.7901 0 96.4378)
(-18.7861 0 138.149)
(-2.14307 0 161.147)
(15.2424 0 142.114)
(-31.3174 0 -1.53037)
(-33.2428 0 -1.44265)
(-35.7227 0 -1.41685)
(-38.755 0 -1.04047)
(-42.2414 0 0.537817)
(-45.9038 0 4.78534)
(-49.1376 0 13.7881)
(-50.8571 0 29.9325)
(-49.311 0 54.9019)
(-42.0493 0 87.7132)
(-26.6195 0 121.461)
(-2.69006 0 139.603)
(21.9563 0 124.375)
(-51.5935 0 0.165001)
(-53.3813 0 0.770979)
(-55.7172 0 1.34021)
(-58.5768 0 2.1847)
(-61.7925 0 3.98688)
(-64.9408 0 7.91167)
(-67.1843 0 15.5884)
(-67.1102 0 28.7909)
(-62.6619 0 48.5785)
(-51.3546 0 73.7966)
(-31.2538 0 98.9186)
(-2.77905 0 112.143)
(26.3008 0 100.863)
(-64.9238 0 1.58696)
(-66.3641 0 2.70106)
(-68.2836 0 3.80027)
(-70.6415 0 5.06145)
(-73.2353 0 6.93989)
(-75.5677 0 10.2303)
(-76.6791 0 16.0352)
(-75.0124 0 25.5192)
(-68.4478 0 39.3008)
(-54.6845 0 56.4387)
(-32.3446 0 73.1186)
(-2.39794 0 81.7852)
(28.0153 0 74.2595)
(-68.2815 0 2.50732)
(-69.2893 0 4.0035)
(-70.5168 0 5.45704)
(-71.9383 0 6.92214)
(-73.3984 0 8.6325)
(-74.4722 0 11.0086)
(-74.3062 0 14.6336)
(-71.5016 0 20.1244)
(-64.1789 0 27.8099)
(-50.3853 0 37.1843)
(-29.1343 0 46.2111)
(-1.53435 0 50.9088)
(26.4014 0 46.7443)
(-61.0315 0 4.1049)
(-61.4156 0 5.75992)
(-61.5205 0 7.45139)
(-61.3587 0 9.17732)
(-60.8954 0 10.9824)
(-59.9323 0 12.9438)
(-57.9942 0 15.1618)
(-54.2399 0 17.7356)
(-47.4845 0 20.705)
(-36.4486 0 23.9307)
(-20.4502 0 26.8984)
(-0.188989 0 28.4416)
(-55.9579 0 2.4308)
(-54.3676 0 3.24188)
(-52.1441 0 4.01991)
(-49.3041 0 4.78086)
(-45.8455 0 5.54637)
(-41.739 0 6.32398)
(-36.9237 0 7.10087)
(-31.3043 0 7.83861)
(-24.758 0 8.47198)
(-17.1567 0 8.9214)
(-8.46514 0 9.13522)
(1.17004 0 9.15244)
(-54.3812 0 2.58933)
(-52.594 0 2.79157)
(-50.1929 0 2.97966)
(-47.1689 0 3.156)
(-43.5022 0 3.32457)
(-39.1614 0 3.48734)
(-34.1095 0 3.64322)
(-28.3161 0 3.7876)
(-21.7781 0 3.91244)
(-14.5479 0 4.00866)
(-6.76961 0 4.07052)
(1.3257 0 4.10536)
)
;

boundaryField
{
    top
    {
        type            directionMixed;
        refValue        uniform (0 0 0);
        refGradient     uniform (0 0 0);
        valueFraction   uniform (0 0 0 0 0 1);
        value           nonuniform List<vector> 
12
(
(-54.3812 0 0)
(-52.594 0 0)
(-50.1929 0 0)
(-47.1689 0 0)
(-43.5022 0 0)
(-39.1614 0 0)
(-34.1095 0 0)
(-28.3161 0 0)
(-21.7781 0 0)
(-14.5479 0 0)
(-6.76961 0 0)
(1.3257 0 0)
)
;
    }
    bottom
    {
        type            fixedValue;
        value           uniform (0 0 0);
    }
    frontAndBack
    {
        type            empty;
    }
    left_cyc
    {
        type            cyclic;
    }
    right_cyc
    {
        type            cyclic;
    }
    procBoundary0to1
    {
        type            processor;
        value           nonuniform List<vector> 
16
(
(-49.3631 0 5.99509)
(-74.1503 0 26.1158)
(-69.8404 0 52.4236)
(-53.1503 0 74.4648)
(-32.261 0 91.1758)
(-11.0082 0 101.34)
(8.64137 0 104.604)
(25.4624 0 101.047)
(38.6373 0 91.1982)
(47.5261 0 76.1708)
(51.2757 0 57.8288)
(48.342 0 37.7987)
(20.2708 0 26.9517)
(20.2708 0 26.9517)
(10.8177 0 9.08861)
(9.4039 0 4.11117)
)
;
    }
    procBoundary0to3throughleft_cyc
    {
        type            processorCyclic;
        value           nonuniform List<vector> 
15
(
(47.9302 0 1.16116)
(80.0992 0 1.99789)
(82.0969 0 1.01886)
(73.1163 0 -0.876123)
(59.0843 0 -2.64197)
(40.6301 0 -3.70463)
(18.3453 0 -3.82714)
(-6.00867 0 -3.09667)
(-29.8794 0 -1.86637)
(-50.2836 0 -0.583985)
(-63.9027 0 0.459017)
(-67.4602 0 1.09014)
(-60.3913 0 2.59255)
(-56.8818 0 1.63791)
(-55.5737 0 2.37734)
)
;
    }
}


// ************************************************************************* //
