/*--------------------------------*- C++ -*----------------------------------*\
| =========                 |                                                 |
| \\      /  F ield         | OpenFOAM: The Open Source CFD Toolbox           |
|  \\    /   O peration     | Version:  2.3.0                                 |
|   \\  /    A nd           | Web:      www.OpenFOAM.org                      |
|    \\/     M anipulation  |                                                 |
\*---------------------------------------------------------------------------*/
FoamFile
{
    version     2.0;
    format      ascii;
    class       volScalarField;
    location    "16000";
    object      p_rgh;
}
// * * * * * * * * * * * * * * * * * * * * * * * * * * * * * * * * * * * * * //

dimensions      [0 2 -2 0 0 0 0];

internalField   nonuniform List<scalar> 
191
(
-1668.23
-1646.72
-1620.25
-1586.54
-1541.98
-1482.39
-1412.16
-1332
-1238.19
-1174.85
-1190.88
-1273.25
-1364.06
-1630.06
-1608.48
-1582.97
-1552.25
-1515.13
-1473.16
-1428.86
-1395.04
-1395.07
-1392.34
-1393.72
-1393
-1404.25
-1587.68
-1569.28
-1549.56
-1528.57
-1498.72
-1463.76
-1424.37
-1370.91
-1347.93
-1338.86
-1341.37
-1353.81
-1389.17
-1575.89
-1561.91
-1545.2
-1524.02
-1486.51
-1432.38
-1378.34
-1337.36
-1304.54
-1285.1
-1290.11
-1315.9
-1352.1
-1594.46
-1581.29
-1562.26
-1535.01
-1492.1
-1427.92
-1345.69
-1288.09
-1247.29
-1223.88
-1229.8
-1261.05
-1628.39
-1614.37
-1591.66
-1556.97
-1505.39
-1431.77
-1334.71
-1258.4
-1200.28
-1168.04
-1176.02
-1219.29
-1665.64
-1649.99
-1623.24
-1581.29
-1519.57
-1435.73
-1331.5
-1234.2
-1153.55
-1109.94
-1120.57
-1180.12
-1697.9
-1679.42
-1647.93
-1598.89
-1526.89
-1433.23
-1328.08
-1210.52
-1105.28
-1048.16
-1062.03
-1140.97
-1732.76
-1718.53
-1695.12
-1658.01
-1602.56
-1521.99
-1420.05
-1315.7
-1178.87
-1050.07
-979.015
-996.466
-1095.05
-1740.62
-1720.06
-1689.42
-1644.98
-1582.64
-1495.04
-1388.59
-1284.72
-1129.22
-980.766
-898.27
-918.727
-1031.9
-1712.03
-1683.34
-1644.29
-1592.37
-1524.09
-1431.47
-1316
-1209.32
-1047.67
-891.294
-802.747
-825.083
-943.24
-1609.46
-1572.79
-1526.21
-1466.61
-1388.5
-1291.93
-1181.74
-1076.81
-923.174
-778.651
-692.094
-714.585
-827.092
-1373.08
-1331.43
-1280.47
-1217.06
-1135.6
-1043.93
-966.495
-883.444
-765.723
-650.771
-576.639
-596.373
-690.093
-945.288
-901.499
-853.131
-803.932
-755.048
-707.12
-664.527
-608.51
-530.124
-450.808
-397.252
-411.784
-478.417
-284.768
-272.523
-269.546
-279.439
-306.563
-352.608
-407.908
-457.465
-486.274
-495.955
-493.163
-494.815
-494.208
)
;

boundaryField
{
    top
    {
        type            fixedValue;
        value           uniform 0;
    }
    bottom
    {
        type            fixedFluxPressure;
        gradient        uniform 0;
        value           nonuniform List<scalar> 
13
(
-1668.23
-1646.72
-1620.25
-1586.54
-1541.98
-1482.39
-1412.16
-1332
-1238.19
-1174.85
-1190.88
-1273.25
-1364.06
)
;
    }
    frontAndBack
    {
        type            empty;
    }
    left_cyc
    {
        type            cyclic;
    }
    right_cyc
    {
        type            cyclic;
    }
    procBoundary2to1
    {
        type            processor;
        value           nonuniform List<scalar> 
16
(
-1686.36
-1648.89
-1604.97
-1588.45
-1604.25
-1637.09
-1674.3
-1708.07
-1708.07
-1741.76
-1754.69
-1733.37
-1639.29
-1409.29
-985.9
-304.254
)
;
    }
    procBoundary2to3
    {
        type            processor;
        value           nonuniform List<scalar> 
16
(
-1438.94
-1446.07
-1441.09
-1394.6
-1308.19
-1308.19
-1285.96
-1270.23
-1255.75
-1233.54
-1187.85
-1108.48
-981.811
-809.568
-559.473
-477.674
)
;
    }
}


// ************************************************************************* //
