/*--------------------------------*- C++ -*----------------------------------*\
| =========                 |                                                 |
| \\      /  F ield         | OpenFOAM: The Open Source CFD Toolbox           |
|  \\    /   O peration     | Version:  2.3.0                                 |
|   \\  /    A nd           | Web:      www.OpenFOAM.org                      |
|    \\/     M anipulation  |                                                 |
\*---------------------------------------------------------------------------*/
FoamFile
{
    version     2.0;
    format      ascii;
    class       volScalarField;
    location    "16000";
    object      T;
}
// * * * * * * * * * * * * * * * * * * * * * * * * * * * * * * * * * * * * * //

dimensions      [0 0 0 1 0 0 0];

internalField   nonuniform List<scalar> 
191
(
37.8138
37.0988
36.2073
35.1153
33.8027
32.1862
30.7048
29.603
28.8331
28.4985
28.5869
29.0734
29.9754
28.9349
27.8241
26.4606
24.7276
22.6427
20.6822
19.0785
17.7539
16.7315
16.1834
16.3291
17.0758
18.2267
23.7973
22.7724
21.6297
20.3594
18.8986
17.2683
15.5835
13.9987
12.7234
12.024
12.2069
13.158
14.5826
22.8752
22.2046
21.3766
20.2982
18.8702
17.0866
15.0923
13.1177
11.5015
10.6218
10.8456
12.0484
13.8477
23.9944
23.4837
22.7314
21.6111
20.0035
17.8968
15.4825
13.057
11.0613
9.9869
10.2535
11.7298
25.5444
25.073
24.294
23.0675
21.2648
18.8445
16.0153
13.1479
10.7805
9.51466
9.82329
11.5674
26.92
26.4351
25.5976
24.2629
22.2962
19.6271
16.4471
13.1911
10.4877
9.04113
9.39104
11.3828
27.9273
27.388
26.4752
25.0481
22.9651
20.1335
16.6913
13.1259
10.1397
8.52219
8.91495
11.1285
28.8932
28.4856
27.8398
26.8339
25.3406
23.2051
20.2732
16.6432
12.8774
9.69532
7.93145
8.36566
10.7519
29.0739
28.5208
27.7254
26.5937
25.0227
22.8474
19.86
16.1522
12.3385
9.08477
7.23324
7.6969
10.1704
28.4437
27.7209
26.7618
25.5025
23.8651
21.6656
18.6915
15.0987
11.4307
8.26016
6.40373
6.87665
9.32306
26.4002
25.5312
24.4594
23.1344
21.4903
19.3462
16.5669
13.3523
10.0587
7.15941
5.41311
5.86489
8.13668
22.1371
21.2326
20.2062
18.996
17.5184
15.6699
13.3919
10.7886
8.10362
5.7042
4.22336
4.61187
6.51817
15.2319
14.5093
13.7324
12.8584
11.8193
10.5417
9.00138
7.26047
5.46003
3.82855
2.79842
3.07181
4.38503
5.68138
5.34269
5.02277
4.69332
4.32611
3.89387
3.37944
2.78454
2.13938
1.52312
1.11581
1.22562
1.73644
)
;

boundaryField
{
    top
    {
        type            fixedValue;
        value           uniform 0;
    }
    bottom
    {
        type            fixedValue;
        value           uniform 43.8;
    }
    frontAndBack
    {
        type            empty;
    }
    left_cyc
    {
        type            cyclic;
    }
    right_cyc
    {
        type            cyclic;
    }
    procBoundary2to1
    {
        type            processor;
        value           nonuniform List<scalar> 
16
(
38.384
29.8731
24.7274
23.4571
24.3665
25.831
27.1878
28.2316
28.2316
29.1672
29.4712
28.9991
27.1214
22.9567
15.9473
6.04264
)
;
    }
    procBoundary2to3
    {
        type            processor;
        value           nonuniform List<scalar> 
16
(
31.1996
19.6456
16.2305
15.8717
13.9477
13.9477
14.1947
14.3757
14.4212
14.2428
13.7147
12.7424
11.237
9.06862
6.10805
2.37464
)
;
    }
}


// ************************************************************************* //
