/*--------------------------------*- C++ -*----------------------------------*\
| =========                 |                                                 |
| \\      /  F ield         | OpenFOAM: The Open Source CFD Toolbox           |
|  \\    /   O peration     | Version:  2.3.0                                 |
|   \\  /    A nd           | Web:      www.OpenFOAM.org                      |
|    \\/     M anipulation  |                                                 |
\*---------------------------------------------------------------------------*/
FoamFile
{
    version     2.0;
    format      ascii;
    class       volVectorField;
    location    "16000";
    object      U;
}
// * * * * * * * * * * * * * * * * * * * * * * * * * * * * * * * * * * * * * //

dimensions      [0 1 -1 0 0 0 0];

internalField   nonuniform List<vector> 
191
(
(-59.8363 0 3.47211)
(-64.0215 0 4.72342)
(-69.1496 0 6.24816)
(-75.0359 0 7.29053)
(-79.7378 0 5.63862)
(-78.1484 0 -0.607613)
(-67.9032 0 -9.46977)
(-50.9776 0 -18.3671)
(-29.2425 0 -24.5916)
(-7.06694 0 -25.7104)
(15.1641 0 -25.5429)
(37.3097 0 -22.9844)
(57.9346 0 -15.1647)
(-79.4234 0 3.9595)
(-77.1708 0 4.28837)
(-73.1783 0 4.14314)
(-66.9951 0 2.2417)
(-57.8455 0 -4.1291)
(-45.6455 0 -15.0221)
(-32.3551 0 -22.2231)
(-21.1078 0 -24.2839)
(-12.0357 0 -25.9865)
(-3.03154 0 -26.8619)
(6.16345 0 -26.6768)
(15.1533 0 -25.4468)
(24.6827 0 -23.7471)
(-71.2446 0 -0.092679)
(-65.3611 0 -1.71675)
(-57.2546 0 -4.01602)
(-47.277 0 -7.52882)
(-36.064 0 -13.5215)
(-28.5407 0 -22.3869)
(-22.5617 0 -29.4506)
(-16.2017 0 -33.2061)
(-9.32187 0 -35.1005)
(-2.32465 0 -35.8888)
(4.72679 0 -35.7325)
(11.7066 0 -34.6008)
(18.4338 0 -32.1955)
(-60.2002 0 -5.53939)
(-54.1031 0 -9.12815)
(-45.9859 0 -13.3385)
(-36.4735 0 -17.7589)
(-26.2613 0 -22.414)
(-20.3948 0 -28.3122)
(-16.2164 0 -34.3661)
(-11.8662 0 -38.3262)
(-6.97666 0 -40.8106)
(-1.76182 0 -41.9594)
(3.55284 0 -41.7148)
(8.66669 0 -40.0917)
(13.3557 0 -37.1401)
(-48.3172 0 -10.4789)
(-43.4117 0 -15.8393)
(-36.7794 0 -21.784)
(-28.9041 0 -26.9138)
(-20.2681 0 -29.8791)
(-14.3056 0 -32.9693)
(-11.0538 0 -38.2149)
(-8.01814 0 -42.3217)
(-4.71247 0 -45.093)
(-1.19997 0 -46.3979)
(2.3896 0 -46.1144)
(5.83459 0 -44.2745)
(-33.7585 0 -14.0376)
(-30.6061 0 -20.7875)
(-26.1519 0 -28.2242)
(-20.5726 0 -34.3571)
(-14.1903 0 -36.8556)
(-8.72687 0 -37.4421)
(-6.52013 0 -40.9625)
(-4.65814 0 -44.777)
(-2.75061 0 -47.6937)
(-0.710068 0 -49.1365)
(1.38354 0 -48.8172)
(3.38377 0 -46.8064)
(-15.8177 0 -15.8705)
(-14.4875 0 -23.5064)
(-12.4153 0 -31.9997)
(-9.63734 0 -39.0241)
(-6.19868 0 -41.6918)
(-3.16186 0 -40.4774)
(-2.3142 0 -42.5467)
(-1.67632 0 -46.029)
(-1.03956 0 -48.9977)
(-0.280874 0 -50.5301)
(0.517729 0 -50.1862)
(1.23819 0 -48.0696)
(4.7933 0 -16.1719)
(4.47838 0 -24.1552)
(4.18519 0 -33.0783)
(3.78596 0 -40.4952)
(3.65267 0 -43.31)
(2.73916 0 -41.1572)
(1.87235 0 -42.5864)
(1.13598 0 -46.0236)
(0.555608 0 -49.0927)
(0.117296 0 -50.7047)
(-0.280439 0 -50.3386)
(-0.771111 0 -48.114)
(27.403 0 -9.44667)
(26.1713 0 -15.2075)
(24.4364 0 -22.891)
(21.9039 0 -31.3609)
(18.2602 0 -38.2818)
(14.2805 0 -40.8068)
(8.71481 0 -38.8309)
(6.14294 0 -40.7454)
(4.01169 0 -44.6997)
(2.19889 0 -48.0009)
(0.523579 0 -49.6943)
(-1.1171 0 -49.3096)
(-2.85234 0 -46.9605)
(47.1537 0 -8.05523)
(45.2078 0 -13.1826)
(42.2179 0 -19.8476)
(37.6925 0 -26.9078)
(31.2536 0 -32.3649)
(23.7432 0 -34.158)
(14.2348 0 -33.6682)
(10.5438 0 -37.3837)
(7.21297 0 -42.1139)
(4.061 0 -45.6482)
(0.9764 0 -47.3817)
(-2.11466 0 -46.9861)
(-5.24873 0 -44.5459)
(60.3888 0 -6.17521)
(57.7892 0 -10.2575)
(53.6993 0 -15.4638)
(47.5874 0 -20.7178)
(39.2437 0 -24.343)
(29.0365 0 -24.9886)
(19.9896 0 -25.9626)
(15.4734 0 -32.9263)
(11.027 0 -38.2702)
(6.30773 0 -41.8196)
(1.51922 0 -43.4954)
(-3.33065 0 -43.1066)
(-8.10431 0 -40.7105)
(63.0829 0 -4.03773)
(59.938 0 -6.72487)
(55.0806 0 -9.97987)
(48.2722 0 -12.518)
(40.4437 0 -12.9771)
(31.4672 0 -14.642)
(26.2677 0 -20.5064)
(21.3659 0 -27.7936)
(15.3951 0 -32.9422)
(8.9028 0 -36.184)
(2.1464 0 -37.6948)
(-4.70305 0 -37.3413)
(-11.3696 0 -35.1709)
(56.4307 0 -1.03229)
(54.4106 0 -2.08321)
(51.2734 0 -3.37301)
(46.5671 0 -5.13688)
(41.609 0 -7.4482)
(37.5629 0 -10.7631)
(33.2625 0 -15.9943)
(27.2637 0 -21.7579)
(19.7315 0 -26.0193)
(11.4627 0 -28.7673)
(2.76357 0 -30.0521)
(-6.05209 0 -29.752)
(-14.6216 0 -27.9098)
(55.2033 0 -0.546763)
(53.8999 0 -1.15878)
(52.0953 0 -1.82337)
(49.6976 0 -2.69499)
(46.7204 0 -4.10173)
(43.132 0 -6.52087)
(38.3673 0 -9.90718)
(31.5775 0 -13.5505)
(23.0502 0 -16.3972)
(13.4643 0 -18.2887)
(3.25456 0 -19.1762)
(-7.11148 0 -18.9679)
(-17.1387 0 -17.6945)
(55.3077 0 1.60737)
(54.5308 0 1.21825)
(53.4261 0 0.700355)
(51.9561 0 -0.112752)
(49.9286 0 -1.43398)
(46.8608 0 -3.44288)
(42.0224 0 -6.04741)
(34.8814 0 -8.72058)
(25.6957 0 -10.8803)
(15.099 0 -12.371)
(3.66132 0 -13.0801)
(-7.98414 0 -12.9144)
(-19.1764 0 -11.9021)
)
;

boundaryField
{
    top
    {
        type            directionMixed;
        refValue        uniform (0 0 0);
        refGradient     uniform (0 0 0);
        valueFraction   uniform (0 0 0 0 0 1);
        value           nonuniform List<vector> 
13
(
(55.3077 0 0)
(54.5308 0 0)
(53.4261 0 0)
(51.9561 0 0)
(49.9286 0 0)
(46.8608 0 0)
(42.0224 0 0)
(34.8814 0 0)
(25.6957 0 0)
(15.099 0 0)
(3.66132 0 0)
(-7.98414 0 0)
(-19.1764 0 0)
)
;
    }
    bottom
    {
        type            fixedValue;
        value           uniform (0 0 0);
    }
    frontAndBack
    {
        type            empty;
    }
    left_cyc
    {
        type            cyclic;
    }
    right_cyc
    {
        type            cyclic;
    }
    procBoundary2to1
    {
        type            processor;
        value           nonuniform List<vector> 
16
(
(-56.4353 0 2.60538)
(-80.4807 0 3.58165)
(-75.2694 0 1.01621)
(-64.5571 0 -2.85793)
(-51.8157 0 -6.41972)
(-35.9356 0 -8.95185)
(-16.6288 0 -10.1777)
(5.13902 0 -10.2463)
(5.13902 0 -10.2463)
(28.3564 0 -5.68922)
(48.4495 0 -4.62624)
(61.9805 0 -3.38968)
(65.0049 0 -2.15987)
(57.7282 0 -0.0857631)
(56.047 0 0.0428498)
(55.721 0 1.93392)
)
;
    }
    procBoundary2to3
    {
        type            processor;
        value           nonuniform List<vector> 
16
(
(72.5752 0 -6.1428)
(37.1016 0 -20.748)
(24.6168 0 -27.4307)
(17.5465 0 -32.5067)
(9.01972 0 -41.01)
(9.01972 0 -41.01)
(5.21633 0 -43.5119)
(1.81571 0 -44.8622)
(-1.42562 0 -44.8516)
(-4.74348 0 -43.3709)
(-8.42444 0 -40.4515)
(-12.773 0 -36.413)
(-17.7382 0 -31.2354)
(-22.6682 0 -24.6237)
(-26.3864 0 -15.4464)
(-29.3125 0 -10.1519)
)
;
    }
}


// ************************************************************************* //
