/*--------------------------------*- C++ -*----------------------------------*\
| =========                 |                                                 |
| \\      /  F ield         | OpenFOAM: The Open Source CFD Toolbox           |
|  \\    /   O peration     | Version:  2.3.0                                 |
|   \\  /    A nd           | Web:      www.OpenFOAM.org                      |
|    \\/     M anipulation  |                                                 |
\*---------------------------------------------------------------------------*/
FoamFile
{
    version     2.0;
    format      ascii;
    class       volScalarField;
    location    "5000";
    object      NUEff;
}
// * * * * * * * * * * * * * * * * * * * * * * * * * * * * * * * * * * * * * //

dimensions      [0 2 -1 0 0 0 0];

internalField   nonuniform List<scalar> 
765
(
0.149287
0.149469
0.150401
0.152612
0.155426
0.158144
0.160767
0.163344
0.165915
0.168497
0.17113
0.17389
0.176885
0.180245
0.184141
0.188699
0.194139
0.200713
0.208692
0.21833
0.229788
0.24299
0.257394
0.271731
0.283897
0.291235
0.291237
0.283902
0.271736
0.2574
0.242995
0.229792
0.218333
0.208696
0.200716
0.194141
0.188701
0.184143
0.180246
0.176886
0.17389
0.17113
0.168497
0.165915
0.163344
0.160766
0.158144
0.155425
0.152612
0.150401
0.149469
0.14959
0.150398
0.153642
0.161871
0.173884
0.18956
0.20997
0.238152
0.279511
0.34241
0.437092
0.562103
0.684791
0.772704
0.830137
0.868689
0.895606
0.915052
0.929463
0.940322
0.948572
0.954833
0.959514
0.962887
0.965113
0.966256
0.966257
0.965113
0.962888
0.959516
0.954835
0.948575
0.940325
0.929467
0.915058
0.895613
0.8687
0.830151
0.772722
0.684809
0.562113
0.437096
0.34241
0.279508
0.238148
0.209967
0.189558
0.173881
0.161869
0.15364
0.150398
0.150311
0.151836
0.157946
0.173481
0.20245
0.257985
0.380564
0.614774
0.790087
0.865823
0.902502
0.923698
0.937662
0.947777
0.955594
0.961892
0.967086
0.97142
0.975049
0.978084
0.980601
0.982659
0.984296
0.985536
0.986386
0.986833
0.986833
0.986386
0.985536
0.984296
0.982659
0.980602
0.978085
0.97505
0.971421
0.967088
0.961894
0.955596
0.947779
0.937664
0.923699
0.902503
0.865822
0.790078
0.614744
0.380536
0.257971
0.202441
0.173476
0.157943
0.151835
0.151521
0.153811
0.163036
0.186478
0.242128
0.404104
0.717001
0.859667
0.91059
0.934794
0.948697
0.957746
0.964241
0.969283
0.973389
0.976836
0.979781
0.98232
0.984514
0.986407
0.988027
0.989391
0.990507
0.991372
0.991976
0.992297
0.992297
0.991976
0.991372
0.990507
0.989391
0.988027
0.986408
0.984515
0.98232
0.979782
0.976837
0.97339
0.969284
0.964241
0.957746
0.948697
0.934793
0.910587
0.859655
0.716955
0.404045
0.242107
0.186468
0.163032
0.153809
0.153111
0.156072
0.167625
0.197761
0.282546
0.568048
0.826876
0.903387
0.934042
0.950086
0.95991
0.96659
0.971493
0.975365
0.978567
0.981294
0.983659
0.985733
0.987562
0.989173
0.990584
0.991799
0.992813
0.993611
0.994174
0.994474
0.994474
0.994174
0.993611
0.992813
0.991799
0.990585
0.989174
0.987562
0.985733
0.98366
0.981294
0.978567
0.975365
0.971493
0.96659
0.959909
0.950085
0.934039
0.903379
0.826846
0.567945
0.282504
0.197746
0.167618
0.156069
0.154888
0.158201
0.170832
0.203649
0.300731
0.618388
0.844328
0.910021
0.937406
0.952138
0.961358
0.967743
0.972492
0.976228
0.979323
0.981976
0.984299
0.986363
0.988211
0.989868
0.991342
0.992629
0.993714
0.994574
0.995181
0.995502
0.995502
0.995181
0.994574
0.993714
0.992629
0.991342
0.989868
0.988211
0.986363
0.984299
0.981976
0.979323
0.976228
0.972492
0.967742
0.961357
0.952136
0.937402
0.910011
0.844298
0.618268
0.300671
0.20363
0.170824
0.158197
0.156735
0.16014
0.172453
0.202734
0.28692
0.563279
0.819117
0.897802
0.929667
0.946543
0.957052
0.964336
0.969762
0.97403
0.977528
0.980522
0.983154
0.985508
0.987632
0.989548
0.991261
0.992758
0.994018
0.995011
0.995706
0.996071
0.996071
0.995706
0.995011
0.994018
0.992758
0.991261
0.989548
0.987632
0.985508
0.983154
0.980522
0.977527
0.974029
0.969762
0.964335
0.95705
0.94654
0.929661
0.897787
0.819071
0.563136
0.286858
0.202714
0.172444
0.160137
0.158617
0.16193
0.173208
0.19867
0.259503
0.438032
0.734255
0.860973
0.908803
0.932631
0.946932
0.956664
0.96375
0.969284
0.97375
0.977529
0.980824
0.983752
0.986374
0.988721
0.990797
0.99259
0.994079
0.99524
0.996043
0.99646
0.99646
0.996043
0.99524
0.994079
0.99259
0.990797
0.988721
0.986374
0.983751
0.980824
0.977528
0.973749
0.969283
0.963749
0.956661
0.946928
0.932625
0.908791
0.860944
0.734164
0.437901
0.259456
0.198651
0.173199
0.161927
0.160604
0.163683
0.173511
0.193723
0.235058
0.332555
0.562961
0.778084
0.867071
0.907454
0.929952
0.944402
0.954591
0.962322
0.968501
0.973585
0.977907
0.981655
0.984935
0.987803
0.990284
0.992384
0.994099
0.995418
0.996324
0.996792
0.996792
0.996324
0.995418
0.994099
0.992384
0.990284
0.987803
0.984934
0.981654
0.977905
0.973583
0.968499
0.962319
0.954588
0.944397
0.929944
0.907441
0.867044
0.778014
0.562815
0.332474
0.235025
0.193708
0.173503
0.16368
0.163109
0.165907
0.174325
0.190315
0.219345
0.276472
0.403798
0.630593
0.794897
0.869476
0.907272
0.929688
0.944571
0.9553
0.96356
0.970163
0.975596
0.980155
0.984022
0.987308
0.990082
0.992383
0.994236
0.995651
0.996623
0.997129
0.997129
0.996623
0.995651
0.994236
0.992383
0.990081
0.987308
0.984021
0.980154
0.975594
0.97016
0.963556
0.955296
0.944564
0.929678
0.907256
0.869446
0.794833
0.630458
0.403685
0.276422
0.21932
0.190302
0.174318
0.165903
0.16785
0.170529
0.178277
0.192373
0.216589
0.260656
0.35094
0.535088
0.736728
0.842622
0.893981
0.922713
0.940872
0.953408
0.962661
0.96987
0.975692
0.980475
0.98445
0.98777
0.990535
0.99281
0.994636
0.996032
0.996998
0.997509
0.997509
0.996998
0.996032
0.994635
0.99281
0.990535
0.98777
0.984449
0.980473
0.975689
0.969866
0.962656
0.953402
0.940863
0.922699
0.893956
0.842574
0.736624
0.534932
0.350851
0.260614
0.216567
0.192361
0.17827
0.170526
0.18256
0.185964
0.195841
0.214297
0.247613
0.312624
0.450777
0.66514
0.810776
0.879922
0.916022
0.937525
0.951654
0.961625
0.969052
0.974814
0.979516
0.983436
0.986729
0.989507
0.991846
0.993794
0.995381
0.996613
0.997482
0.997949
0.997949
0.997482
0.996613
0.99538
0.993794
0.991845
0.989506
0.986728
0.983435
0.979514
0.974811
0.969048
0.961619
0.951646
0.937513
0.916002
0.879887
0.810704
0.664992
0.450634
0.312555
0.24758
0.214279
0.195831
0.18596
0.282482
0.296773
0.342928
0.4433
0.611824
0.764953
0.851443
0.898184
0.925825
0.943585
0.955738
0.964472
0.971003
0.976057
0.980085
0.983372
0.98608
0.988437
0.990507
0.992329
0.993925
0.995306
0.996469
0.997403
0.998082
0.998457
0.998457
0.998081
0.997403
0.996469
0.995305
0.993925
0.992329
0.990506
0.988436
0.986079
0.98337
0.980083
0.976054
0.970999
0.964466
0.955731
0.943574
0.925808
0.898158
0.851396
0.764862
0.611683
0.443192
0.342875
0.29675
0.932304
0.934843
0.940724
0.947882
0.954959
0.961351
0.966922
0.971725
0.975842
0.979342
0.982296
0.984787
0.986893
0.988691
0.990243
0.991597
0.992785
0.993812
0.994731
0.995601
0.996412
0.997153
0.997812
0.998367
0.998787
0.999028
0.999028
0.998787
0.998367
0.997812
0.997153
0.996412
0.995601
0.994731
0.993812
0.992785
0.991596
0.990242
0.98869
0.986892
0.984785
0.982294
0.97934
0.97584
0.971722
0.966918
0.961346
0.954953
0.947876
0.940719
0.934839
0.990318
0.990459
0.990814
0.991307
0.99188
0.992493
0.993123
0.993754
0.994369
0.994956
0.995501
0.996
0.996453
0.996862
0.997234
0.997573
0.997885
0.998169
0.99843
0.998659
0.998872
0.999073
0.999264
0.999435
0.999573
0.999655
0.999655
0.999573
0.999435
0.999264
0.999073
0.998871
0.998659
0.99843
0.998169
0.997884
0.997573
0.997233
0.996862
0.996452
0.996
0.995501
0.994955
0.994369
0.993753
0.993123
0.992492
0.991879
0.991307
0.990813
0.990459
)
;

boundaryField
{
    top
    {
        type            calculated;
        value           uniform 1;
    }
    bottom
    {
        type            calculated;
        value           uniform 0.148957;
    }
    frontAndBack
    {
        type            empty;
    }
    left_cyc
    {
        type            cyclic;
    }
    right_cyc
    {
        type            cyclic;
    }
}


// ************************************************************************* //
