/*--------------------------------*- C++ -*----------------------------------*\
| =========                 |                                                 |
| \\      /  F ield         | OpenFOAM: The Open Source CFD Toolbox           |
|  \\    /   O peration     | Version:  2.3.0                                 |
|   \\  /    A nd           | Web:      www.OpenFOAM.org                      |
|    \\/     M anipulation  |                                                 |
\*---------------------------------------------------------------------------*/
FoamFile
{
    version     2.0;
    format      ascii;
    class       volScalarField;
    location    "5000";
    object      NUEff;
}
// * * * * * * * * * * * * * * * * * * * * * * * * * * * * * * * * * * * * * //

dimensions      [0 2 -1 0 0 0 0];

internalField   nonuniform List<scalar> 
765
(
0.0165309
0.0164784
0.0165023
0.0165666
0.0166176
0.0165833
0.016408
0.0162217
0.0159765
0.0156629
0.0155069
0.0158043
0.0161133
0.0163452
0.0165396
0.0166707
0.0166673
0.0165967
0.0165268
0.016505
0.0165626
0.0166848
0.0168497
0.0170582
0.0173207
0.0176563
0.0180944
0.0186772
0.0194623
0.0205252
0.021974
0.0240509
0.0265482
0.0288117
0.0307622
0.0319208
0.03216
0.0312124
0.0292216
0.026809
0.024112
0.0219735
0.0204997
0.0194293
0.0186442
0.0180629
0.0176256
0.0172899
0.0170267
0.0168175
0.0166522
0.0232931
0.0230104
0.0228887
0.0228622
0.0228136
0.022578
0.0220488
0.0210793
0.0196584
0.0180655
0.0173555
0.018683
0.0203152
0.0216196
0.0224354
0.0229202
0.0230695
0.0230702
0.02308
0.023203
0.0234938
0.0240273
0.0247919
0.0257758
0.0270162
0.0285964
0.0306741
0.0335661
0.0379632
0.0455564
0.0605234
0.0898355
0.145291
0.273963
0.532712
0.699919
0.709757
0.550469
0.276593
0.14227
0.0868465
0.0587848
0.0447615
0.0374819
0.0332203
0.0303866
0.0283347
0.0267684
0.0255382
0.0245647
0.0238118
0.0329844
0.0320621
0.0313813
0.0308458
0.0303162
0.0295838
0.0283528
0.026089
0.023023
0.0199788
0.0187406
0.0210832
0.0243733
0.0273409
0.0293441
0.0303553
0.0309953
0.0314996
0.0320483
0.0327686
0.0337512
0.0350587
0.0368788
0.0393588
0.0426397
0.0470477
0.0531392
0.0620299
0.0763067
0.102625
0.164952
0.391057
0.778864
0.897021
0.934689
0.948557
0.948967
0.934558
0.8929
0.746383
0.315901
0.14182
0.0928713
0.071364
0.0590212
0.0510435
0.0454447
0.0413441
0.0382656
0.0359303
0.0342127
0.0402384
0.0386965
0.0373891
0.036274
0.0352899
0.0342571
0.0325683
0.0295206
0.0253393
0.0213001
0.0197239
0.022709
0.0271553
0.0312091
0.0338951
0.0352765
0.0362915
0.0373542
0.0385845
0.0400319
0.0417435
0.0437771
0.0462074
0.0491317
0.0526959
0.05704
0.0625936
0.0703883
0.0828789
0.107004
0.169955
0.435444
0.827332
0.92315
0.953235
0.964192
0.964534
0.953388
0.920844
0.803661
0.340711
0.140934
0.093539
0.0746469
0.0646419
0.0582798
0.0536477
0.0499223
0.0468074
0.0442195
0.0420609
0.0402456
0.0388931
0.037647
0.0365789
0.0357341
0.0349666
0.0336021
0.0308061
0.0264489
0.0220681
0.0203762
0.0235572
0.028365
0.0324412
0.0347519
0.0358487
0.0366227
0.0376003
0.0388299
0.0402441
0.0417712
0.0433636
0.0449992
0.0466843
0.048472
0.0505076
0.0531372
0.0570889
0.06393
0.0775914
0.111482
0.247065
0.767704
0.921519
0.957375
0.969121
0.969585
0.958251
0.921607
0.746211
0.210509
0.0990762
0.0704997
0.0589008
0.053136
0.0498557
0.0476982
0.0460208
0.0445208
0.0430762
0.0416501
0.0366959
0.0357828
0.0349332
0.0342633
0.0338467
0.033506
0.0327809
0.0306052
0.0266116
0.0224021
0.0207792
0.0237947
0.0283841
0.0319851
0.0336082
0.0340993
0.0344287
0.0349632
0.0357738
0.0367591
0.0377982
0.0387977
0.0397068
0.0405245
0.0413126
0.0422247
0.0435596
0.045866
0.0502062
0.0589961
0.0795891
0.14987
0.633835
0.914954
0.959319
0.972205
0.9728
0.961039
0.918802
0.635179
0.141179
0.0747782
0.0556007
0.0475173
0.0435975
0.0415739
0.0404483
0.0397031
0.0390563
0.0383651
0.0375756
0.033125
0.0325475
0.0320652
0.0317737
0.0317067
0.0316853
0.0312405
0.0294545
0.0261259
0.0225319
0.0210844
0.0236974
0.0275538
0.0305498
0.0318605
0.0320328
0.0320511
0.0321915
0.0325845
0.0331666
0.0338339
0.0344919
0.0350786
0.0355785
0.036037
0.0365856
0.0374806
0.0391737
0.0424863
0.0491694
0.0642238
0.110787
0.471429
0.909222
0.961285
0.974955
0.975642
0.963758
0.9176
0.518709
0.110546
0.0624708
0.0475187
0.0410156
0.0378515
0.0362779
0.0354832
0.0350216
0.0346414
0.0342153
0.0337029
0.0304337
0.0301007
0.0298785
0.0297867
0.0297573
0.0297282
0.0292724
0.0278826
0.0254035
0.0226033
0.0213563
0.0235028
0.0264343
0.0286702
0.0297534
0.0300232
0.0300281
0.0300584
0.0301957
0.0304789
0.0308749
0.0313261
0.0317791
0.0322063
0.0326268
0.0331373
0.0339559
0.0354811
0.038417
0.044204
0.056857
0.0939543
0.372011
0.907366
0.963724
0.977656
0.97839
0.966713
0.919668
0.453334
0.0971349
0.0565982
0.0434891
0.0376308
0.0347026
0.0332088
0.0324324
0.0319694
0.0315989
0.0312234
0.0308254
0.0286225
0.0283903
0.0282225
0.0281065
0.0280276
0.0278725
0.0274147
0.0263843
0.0246595
0.0226295
0.0216023
0.0232711
0.0253514
0.0269179
0.0277729
0.0281202
0.0282343
0.0283219
0.0284553
0.0286509
0.0289181
0.0292509
0.0296362
0.030069
0.0305717
0.031225
0.0322139
0.0338889
0.0368825
0.0424967
0.0544172
0.0890826
0.35985
0.912514
0.966832
0.980347
0.981192
0.970192
0.92664
0.474937
0.0946326
0.054979
0.0422625
0.0364458
0.0333951
0.0317149
0.0307452
0.0301231
0.0296571
0.029263
0.028917
0.0275112
0.0272207
0.0269828
0.026785
0.0265928
0.0263394
0.0259118
0.0251661
0.0240148
0.0226311
0.021832
0.0230525
0.0244547
0.0255159
0.0261713
0.0265435
0.026775
0.0269679
0.0271779
0.027434
0.0277463
0.0281202
0.0285637
0.0290973
0.0297652
0.0306642
0.0319856
0.0340807
0.0375904
0.0438801
0.0570924
0.0977222
0.480118
0.926258
0.971042
0.98319
0.984071
0.974318
0.938676
0.625859
0.10678
0.0583522
0.0439672
0.0373657
0.0337533
0.0316286
0.0303101
0.0294288
0.0287844
0.0282766
0.0278599
0.0274619
0.0269681
0.0265328
0.026142
0.0257753
0.0253984
0.0249553
0.0243715
0.0235909
0.0226807
0.0220976
0.0229389
0.0238664
0.0246103
0.0251603
0.0255871
0.0259636
0.0263401
0.0267458
0.0271985
0.0277115
0.0282984
0.0289763
0.029791
0.0308175
0.0321886
0.03415
0.0371432
0.0419885
0.0505415
0.0692842
0.139141
0.745665
0.944577
0.976155
0.986176
0.986996
0.978933
0.953144
0.815495
0.160273
0.0718087
0.0509545
0.0419004
0.0368946
0.0338476
0.0318745
0.0305077
0.02949
0.0286843
0.028028
0.0298068
0.0288098
0.0279328
0.0271486
0.0264362
0.0257762
0.0251442
0.0245081
0.0238412
0.0231729
0.0227489
0.0233431
0.0240492
0.0247255
0.025371
0.0260182
0.0266977
0.0274313
0.0282367
0.0291348
0.0301533
0.0313275
0.0326944
0.0342788
0.0362328
0.0388015
0.0424079
0.0478756
0.0569472
0.0742413
0.120846
0.429084
0.898845
0.962489
0.981803
0.989265
0.989942
0.983842
0.967349
0.915979
0.536303
0.129327
0.0753489
0.0568939
0.0475384
0.0419962
0.038379
0.0358154
0.0338658
0.0323014
0.0309583
0.0403935
0.0377221
0.035491
0.0335802
0.0319116
0.030438
0.0291326
0.027981
0.0269831
0.0261794
0.0257677
0.0263704
0.0272711
0.0283391
0.0295516
0.0309129
0.0324382
0.0341548
0.0361119
0.0383907
0.0411159
0.0444583
0.0486157
0.0538035
0.060252
0.069085
0.08236
0.104949
0.152846
0.30568
0.732309
0.907066
0.956826
0.977411
0.987564
0.992399
0.99288
0.988824
0.979695
0.961069
0.916411
0.758822
0.31535
0.151416
0.102999
0.0806786
0.0676614
0.0590028
0.0527839
0.0477485
0.0436717
0.154475
0.119948
0.0983099
0.0835183
0.0727756
0.064656
0.0583787
0.0535036
0.0498066
0.0472715
0.0462694
0.0478733
0.050864
0.054972
0.0602722
0.0670309
0.0757358
0.0872421
0.103117
0.126463
0.164053
0.232086
0.36607
0.577162
0.746448
0.833603
0.881333
0.911931
0.933515
0.950084
0.963455
0.974224
0.982572
0.988718
0.99299
0.995486
0.995755
0.993592
0.989548
0.983553
0.975209
0.964134
0.950059
0.932409
0.9093
0.876368
0.82456
0.729539
0.546523
0.33882
0.216303
0.982562
0.980851
0.979004
0.976997
0.974814
0.972461
0.969981
0.967487
0.965192
0.963444
0.962789
0.963916
0.965946
0.968363
0.970868
0.973295
0.975564
0.977651
0.979564
0.981325
0.982961
0.984484
0.985885
0.987152
0.988303
0.989348
0.990276
0.991091
0.991872
0.99268
0.993563
0.994545
0.995607
0.99669
0.997687
0.998405
0.998488
0.997841
0.996846
0.995727
0.994608
0.993564
0.992623
0.991772
0.990959
0.990119
0.989168
0.988101
0.986919
0.985607
0.984151
)
;

boundaryField
{
    top
    {
        type            calculated;
        value           uniform 1;
    }
    bottom
    {
        type            calculated;
        value           uniform 0.0143123;
    }
    frontAndBack
    {
        type            empty;
    }
    left_cyc
    {
        type            cyclic;
    }
    right_cyc
    {
        type            cyclic;
    }
}


// ************************************************************************* //
