/*--------------------------------*- C++ -*----------------------------------*\
| =========                 |                                                 |
| \\      /  F ield         | OpenFOAM: The Open Source CFD Toolbox           |
|  \\    /   O peration     | Version:  2.3.0                                 |
|   \\  /    A nd           | Web:      www.OpenFOAM.org                      |
|    \\/     M anipulation  |                                                 |
\*---------------------------------------------------------------------------*/
FoamFile
{
    version     2.0;
    format      ascii;
    class       volScalarField;
    location    "5000";
    object      p;
}
// * * * * * * * * * * * * * * * * * * * * * * * * * * * * * * * * * * * * * //

dimensions      [0 2 -2 0 0 0 0];

internalField   nonuniform List<scalar> 
765
(
-1663.91
-1672.82
-1681.51
-1690.65
-1701.15
-1713.97
-1729.63
-1747.53
-1765.57
-1779.84
-1784.45
-1774.93
-1758.31
-1739.42
-1721.61
-1706.45
-1694.19
-1684.09
-1675.15
-1666.52
-1657.58
-1647.94
-1637.41
-1625.83
-1613
-1598.63
-1582.21
-1562.91
-1539.31
-1509.33
-1469.69
-1416.45
-1351.61
-1278.01
-1189
-1116.91
-1116.39
-1190.61
-1283.9
-1359.53
-1425.87
-1478.41
-1517.21
-1546.62
-1569.88
-1589.01
-1605.33
-1619.63
-1632.38
-1643.89
-1654.34
-1498.66
-1507.15
-1515.86
-1525.13
-1535.28
-1546.53
-1558.78
-1571.48
-1583.1
-1591.47
-1594.19
-1588.5
-1578.4
-1565.74
-1552.66
-1540.38
-1529.21
-1519.17
-1509.97
-1501.28
-1492.77
-1484.14
-1475.16
-1465.63
-1455.41
-1444.32
-1432.09
-1418.35
-1402.49
-1383.97
-1361.54
-1333.52
-1300.54
-1271.34
-1273.68
-1279.96
-1285.46
-1285.6
-1282.44
-1311.47
-1343.27
-1369.88
-1391.39
-1409.42
-1424.97
-1438.52
-1450.61
-1461.61
-1471.74
-1481.18
-1490.09
-1360.79
-1367.76
-1375.15
-1383
-1391.34
-1400.11
-1409.08
-1417.53
-1424.25
-1428.32
-1429.65
-1426.88
-1421.65
-1413.86
-1404.81
-1395.6
-1386.71
-1378.3
-1370.4
-1362.97
-1355.93
-1349.21
-1342.65
-1336.14
-1329.57
-1322.94
-1316.25
-1309.53
-1302.82
-1296.32
-1284.61
-1268.96
-1252.96
-1218.26
-1204.79
-1203.32
-1203.55
-1204.34
-1217.14
-1253.23
-1272.55
-1291.28
-1301.73
-1308.11
-1314.82
-1321.52
-1328.16
-1334.73
-1341.21
-1347.65
-1354.13
-1237.88
-1242.77
-1247.96
-1253.38
-1258.94
-1264.55
-1269.97
-1274.45
-1277.14
-1277.97
-1278.19
-1277.71
-1276.23
-1272.65
-1267.55
-1261.81
-1256.02
-1250.33
-1244.8
-1239.51
-1234.53
-1229.91
-1225.65
-1221.72
-1218.05
-1214.61
-1211.34
-1208.12
-1204.76
-1201.06
-1188.75
-1165.65
-1142.67
-1132.87
-1125.1
-1118.46
-1118.07
-1123.55
-1129.89
-1139.03
-1169
-1194.01
-1204.43
-1208.16
-1211.66
-1214.96
-1218.25
-1221.66
-1225.28
-1229.15
-1233.33
-1118.51
-1121.26
-1124.12
-1127.01
-1129.89
-1132.72
-1135.27
-1136.96
-1137.18
-1136.15
-1135.66
-1136.64
-1137.33
-1136.48
-1134.29
-1131.47
-1128.51
-1125.52
-1122.53
-1119.57
-1116.75
-1114.13
-1111.76
-1109.64
-1107.7
-1105.79
-1103.7
-1101.14
-1097.76
-1093.63
-1085.44
-1067.24
-1034.78
-1024.63
-1023.83
-1022.1
-1021.74
-1022.54
-1022.5
-1032.5
-1070.03
-1088.57
-1095.76
-1099.86
-1103.22
-1105.76
-1107.83
-1109.7
-1111.59
-1113.66
-1115.96
-996.869
-997.837
-998.769
-999.634
-1000.43
-1001.12
-1001.53
-1001.29
-1000.02
-997.977
-997.105
-998.918
-1000.85
-1001.74
-1001.66
-1001.08
-1000.3
-999.455
-998.544
-997.565
-996.555
-995.565
-994.64
-993.775
-992.901
-991.866
-990.446
-988.378
-985.377
-981.477
-975.984
-964.008
-939.283
-932.934
-933.425
-933.077
-932.825
-932.702
-932.066
-939.033
-966.286
-977.636
-982.479
-986.123
-988.972
-990.964
-992.341
-993.344
-994.189
-995.024
-995.918
-870.901
-870.523
-870.042
-869.472
-868.811
-867.971
-866.828
-865.161
-862.815
-860.137
-859.104
-861.357
-864.148
-866.335
-867.832
-868.873
-869.666
-870.334
-870.926
-871.426
-871.815
-872.098
-872.291
-872.392
-872.357
-872.088
-871.444
-870.269
-868.425
-865.99
-862.847
-857.438
-847.947
-847.68
-846.855
-846.166
-846.047
-846.623
-847.689
-849.273
-858.756
-862.93
-865.587
-867.722
-869.41
-870.521
-871.145
-871.412
-871.453
-871.36
-871.176
-740.396
-739.052
-737.596
-736.031
-734.312
-732.327
-729.96
-727.11
-723.859
-720.768
-719.689
-722.129
-725.561
-728.861
-731.66
-733.974
-735.954
-737.71
-739.339
-740.867
-742.278
-743.553
-744.686
-745.668
-746.47
-747.045
-747.349
-747.359
-747.096
-746.771
-746.087
-747.094
-756.068
-766.484
-764.202
-761.553
-761.474
-763.878
-766.919
-759.736
-747.729
-744.866
-745.186
-745.209
-745.319
-745.254
-744.945
-744.393
-743.629
-742.694
-741.613
-606.002
-603.916
-601.705
-599.322
-596.686
-593.691
-590.229
-586.332
-582.314
-578.962
-577.865
-580.379
-584.279
-588.544
-592.502
-595.97
-598.992
-601.68
-604.141
-606.448
-608.635
-610.716
-612.701
-614.596
-616.385
-618.058
-619.654
-621.269
-623.068
-625.41
-627.623
-635.812
-663.507
-685.147
-681.81
-677.063
-676.944
-680.818
-685.469
-670.052
-636.143
-625.343
-622.902
-620.291
-618.334
-616.661
-615.061
-613.423
-611.696
-609.881
-607.986
-468.652
-465.819
-462.843
-459.626
-456.059
-452.033
-447.503
-442.629
-437.916
-434.324
-433.185
-435.758
-440.079
-445.211
-450.26
-454.862
-458.941
-462.572
-465.874
-468.955
-471.906
-474.797
-477.699
-480.674
-483.729
-486.885
-490.245
-493.977
-498.355
-503.866
-509.741
-527.357
-572.165
-598.857
-595.144
-590.779
-590.767
-594.054
-600.509
-583.577
-528.792
-507.159
-500.771
-494.981
-490.4
-486.582
-483.199
-480.072
-477.085
-474.212
-471.424
-329.995
-326.159
-322.175
-317.901
-313.199
-307.972
-302.244
-296.295
-290.784
-286.809
-285.563
-288.273
-293.143
-299.221
-305.455
-311.322
-316.634
-321.416
-325.783
-329.88
-333.844
-337.809
-341.925
-346.352
-351.137
-356.327
-362.117
-368.78
-376.734
-386.484
-397.357
-419.647
-478.416
-504.601
-502.204
-502.201
-502.463
-502.309
-506.577
-487.742
-421.241
-395.381
-383.11
-373.01
-364.746
-357.93
-352.065
-346.868
-342.135
-337.811
-333.826
-193.916
-188.538
-183.077
-177.334
-171.137
-164.384
-157.141
-149.781
-143.104
-138.382
-136.896
-139.972
-145.778
-153.162
-160.908
-168.351
-175.221
-181.511
-187.351
-192.921
-198.416
-204.028
-209.99
-216.546
-223.736
-231.605
-240.333
-249.882
-259.73
-268.604
-280.21
-306.979
-369.097
-400.106
-408.09
-414.571
-415.143
-409.534
-402.119
-378.378
-312.399
-279.065
-264.248
-255.529
-245.501
-235.79
-226.925
-218.983
-211.775
-205.273
-199.413
-66.5851
-58.7754
-50.7599
-42.3764
-33.4966
-24.0769
-14.2654
-4.54917
4.11466
10.2375
12.2173
8.40498
0.991523
-8.51578
-18.708
-28.7726
-38.3313
-47.3062
-55.7784
-63.8934
-71.823
-79.7766
-88.2317
-97.8629
-108.368
-118.872
-128.929
-137.182
-142.596
-146.641
-152.064
-194.301
-261.847
-304.142
-328.751
-342.348
-343.275
-331.412
-308.198
-270.002
-201.916
-152.185
-141.588
-137.196
-131.563
-123.362
-113.165
-102.487
-91.9766
-82.5916
-74.3827
25.6996
35.2308
44.8718
54.8062
65.2946
76.5747
88.6918
101.217
112.93
121.571
124.455
118.887
108.455
95.6891
82.6496
70.2934
58.8796
48.2731
38.2009
28.3945
18.681
9.15082
0.0523139
-8.1724
-14.8311
-18.9921
-20.3828
-20.1372
-22.7376
-35.0114
-60.1071
-105.265
-159.534
-195.806
-219.444
-232.266
-233.064
-221.614
-198.885
-164.115
-109.744
-58.6082
-29.0431
-14.4599
-11.0764
-11.6846
-10.7502
-6.9611
-0.648897
7.34909
16.3222
83.6877
78.6082
72.414
65.1236
56.6097
46.6811
35.2428
22.5599
9.69498
-1.09061
-5.78442
-2.14528
6.79375
17.234
27.3828
36.4391
44.2696
51.0015
56.8151
61.8152
65.973
69.3326
72.681
76.257
77.0393
73.3019
64.3751
48.3765
20.9855
-24.3432
-91.9152
-175.549
-265.039
-339.976
-395.243
-425.851
-427.473
-399.422
-345.337
-270.361
-178.293
-88.2875
-14.0542
35.9559
66.1308
83.3724
92.674
96.2149
94.9704
91.1516
87.6413
)
;

boundaryField
{
    top
    {
        type            calculated;
        value           uniform -9.81;
    }
    bottom
    {
        type            calculated;
        value           nonuniform List<scalar> 
51
(
-1754.91
-1764
-1772.6
-1781.53
-1791.87
-1804.8
-1821.05
-1839.59
-1858.5
-1873.93
-1879.13
-1868.49
-1850.75
-1831.05
-1812.59
-1796.99
-1784.74
-1774.87
-1766.16
-1757.61
-1748.47
-1738.43
-1727.36
-1715.12
-1701.48
-1686.11
-1668.45
-1647.58
-1622.03
-1589.65
-1547.13
-1490.39
-1422.09
-1345.89
-1254.96
-1181.84
-1181.11
-1256.16
-1351.36
-1429.69
-1499.72
-1555.85
-1597.58
-1629.42
-1654.63
-1675.33
-1692.9
-1708.2
-1721.77
-1733.95
-1744.94
)
;
    }
    frontAndBack
    {
        type            empty;
    }
    left_cyc
    {
        type            cyclic;
    }
    right_cyc
    {
        type            cyclic;
    }
}


// ************************************************************************* //
