/*--------------------------------*- C++ -*----------------------------------*\
| =========                 |                                                 |
| \\      /  F ield         | OpenFOAM: The Open Source CFD Toolbox           |
|  \\    /   O peration     | Version:  2.3.0                                 |
|   \\  /    A nd           | Web:      www.OpenFOAM.org                      |
|    \\/     M anipulation  |                                                 |
\*---------------------------------------------------------------------------*/
FoamFile
{
    version     2.0;
    format      ascii;
    class       volScalarField;
    location    "5000";
    object      p_rgh;
}
// * * * * * * * * * * * * * * * * * * * * * * * * * * * * * * * * * * * * * //

dimensions      [0 2 -2 0 0 0 0];

internalField   nonuniform List<scalar> 
765
(
-1754.91
-1764
-1772.6
-1781.53
-1791.87
-1804.8
-1821.05
-1839.59
-1858.5
-1873.93
-1879.13
-1868.49
-1850.75
-1831.05
-1812.59
-1796.99
-1784.74
-1774.87
-1766.16
-1757.61
-1748.47
-1738.43
-1727.36
-1715.12
-1701.48
-1686.11
-1668.45
-1647.58
-1622.03
-1589.65
-1547.13
-1490.39
-1422.09
-1345.89
-1254.96
-1181.84
-1181.11
-1256.16
-1351.36
-1429.69
-1499.72
-1555.85
-1597.58
-1629.42
-1654.63
-1675.33
-1692.9
-1708.2
-1721.77
-1733.95
-1744.94
-1724.09
-1733.99
-1743.32
-1752.73
-1763.13
-1775.6
-1790.69
-1809
-1829.86
-1850.4
-1859.31
-1842.46
-1820.72
-1800.06
-1782.48
-1767.68
-1755.76
-1745.71
-1736.47
-1727.16
-1717.23
-1706.09
-1693.69
-1680.08
-1665.15
-1648.65
-1630.2
-1609.11
-1584.26
-1554.37
-1517.96
-1476.06
-1431.96
-1393.61
-1388.62
-1390.42
-1395.57
-1400.13
-1404.6
-1443.29
-1486.8
-1527.55
-1562.8
-1592.08
-1616.55
-1637.44
-1655.8
-1672.25
-1687.14
-1700.7
-1713.04
-1681.01
-1691.79
-1702.13
-1712.4
-1723.21
-1735.55
-1750.96
-1772.88
-1802.22
-1835.91
-1852.17
-1822.7
-1788.93
-1761.48
-1741.46
-1727.29
-1715.43
-1704.76
-1694.48
-1684.06
-1673.16
-1661.63
-1648.97
-1635.05
-1620.05
-1603.95
-1586.78
-1568.5
-1548.86
-1527.9
-1499.96
-1466.3
-1431.67
-1379.14
-1350.74
-1339.98
-1339.89
-1350.35
-1379.15
-1434.43
-1473.67
-1511.08
-1537.73
-1558.05
-1577.31
-1595.37
-1612.4
-1628.37
-1643.27
-1657.07
-1669.62
-1653
-1663.89
-1674.56
-1684.97
-1695.2
-1706
-1720.65
-1744.52
-1781.65
-1829.09
-1852.89
-1810.61
-1764.43
-1731.5
-1710.91
-1698.13
-1687.53
-1677.08
-1666.37
-1655.4
-1644.24
-1632.9
-1621.39
-1609.7
-1597.76
-1585.63
-1573.02
-1559.19
-1542.98
-1522.85
-1489.11
-1439.26
-1385.94
-1345.25
-1310.88
-1287.73
-1286.72
-1309.14
-1343.66
-1386
-1448.68
-1502
-1534.36
-1554.37
-1570.31
-1583.74
-1595.93
-1607.71
-1619.34
-1630.75
-1641.95
-1652.21
-1661.68
-1671.17
-1680.12
-1688.04
-1695.67
-1707.31
-1730.2
-1772.67
-1831.58
-1861.42
-1809.1
-1752.6
-1716.86
-1698.62
-1688.92
-1681.35
-1672.83
-1663.27
-1653.27
-1643.39
-1633.94
-1625.07
-1616.74
-1608.67
-1600.33
-1590.67
-1578.06
-1560.21
-1534.83
-1496.23
-1437.73
-1358.09
-1298.96
-1255.51
-1227.3
-1225.65
-1252.59
-1296.77
-1358.69
-1446.72
-1508.12
-1546.97
-1572.61
-1590.2
-1602.31
-1611.4
-1619.19
-1626.75
-1634.66
-1643.14
-1672.05
-1679.65
-1687.08
-1693.3
-1697.53
-1701.1
-1707.83
-1728.41
-1774.49
-1841.31
-1874.75
-1816.68
-1752.62
-1715.33
-1700.77
-1696.08
-1692.62
-1687.53
-1680.43
-1672.3
-1664.16
-1656.68
-1650.14
-1644.44
-1639.09
-1633.1
-1624.79
-1611.78
-1590.95
-1559.03
-1512.17
-1443.84
-1351.54
-1274.04
-1212.08
-1172.84
-1170.3
-1207.12
-1269.85
-1351.16
-1450.15
-1521.46
-1569.8
-1602.35
-1623.13
-1635.71
-1643.45
-1648.87
-1653.68
-1658.91
-1665.02
-1702.03
-1707.72
-1712.48
-1715.16
-1715.25
-1714.65
-1718.61
-1739.01
-1786.11
-1853.82
-1888.19
-1829.79
-1764.73
-1726.34
-1712.54
-1711.67
-1712.26
-1711.38
-1707.73
-1702.13
-1695.79
-1689.7
-1684.41
-1679.99
-1675.92
-1670.96
-1662.96
-1648.8
-1624.61
-1586.36
-1530.03
-1451.44
-1352.3
-1256.16
-1170.43
-1116.43
-1112.79
-1162.42
-1248.15
-1348.81
-1452.97
-1534.99
-1593.85
-1633.37
-1657.98
-1672
-1679.59
-1684.05
-1687.64
-1691.61
-1696.45
-1734.34
-1737.77
-1739.56
-1739.35
-1738.07
-1736.51
-1741.03
-1760.6
-1803.62
-1865.45
-1898.99
-1844.21
-1784.99
-1749.37
-1735.47
-1733.82
-1735.73
-1737.04
-1736.69
-1734.18
-1730.07
-1725.23
-1720.41
-1715.92
-1711.49
-1705.9
-1696.7
-1680.21
-1651.93
-1607.46
-1541.86
-1453.47
-1350.72
-1239.68
-1128.71
-1056.71
-1051.74
-1116.47
-1226.47
-1343.85
-1449.59
-1541.68
-1610.68
-1657.11
-1686.41
-1703.26
-1712.37
-1717.66
-1721.7
-1725.75
-1730.09
-1763.44
-1765.62
-1766.54
-1766.34
-1765.2
-1765.17
-1770.66
-1788.09
-1823.91
-1875.5
-1906.29
-1858.48
-1809.22
-1779.05
-1765.9
-1762.73
-1763.6
-1764.66
-1764.65
-1763.37
-1760.75
-1756.97
-1752.33
-1747
-1740.65
-1732.16
-1719.17
-1698.06
-1664.5
-1614.18
-1541
-1444.9
-1339.43
-1215.38
-1080.85
-990.262
-982.859
-1062.73
-1195.81
-1329.12
-1435.59
-1535.98
-1613.58
-1666.51
-1701.58
-1723.42
-1736.59
-1744.94
-1750.97
-1755.92
-1760.12
-1785.82
-1789.47
-1791.91
-1793.28
-1794.23
-1796.26
-1802.24
-1816.56
-1843.91
-1883.34
-1909.63
-1871.11
-1833.46
-1809.99
-1798.58
-1794.2
-1792.83
-1791.99
-1790.49
-1787.84
-1783.93
-1778.82
-1772.51
-1764.79
-1755
-1741.78
-1722.79
-1694.71
-1653.9
-1596.8
-1516.54
-1415.37
-1308
-1169.92
-1016.74
-912.022
-902.187
-993.68
-1146.14
-1297.02
-1402.53
-1507.8
-1592.97
-1653.16
-1695.83
-1724.98
-1744.43
-1757.74
-1767.42
-1774.95
-1780.99
-1787.02
-1795.51
-1802.78
-1808.94
-1814.33
-1819.78
-1827.04
-1838.94
-1858.74
-1886.54
-1907.09
-1878.73
-1851.97
-1834.46
-1824.18
-1817.74
-1812.54
-1807.13
-1800.83
-1793.42
-1784.81
-1774.97
-1763.85
-1750.91
-1735.15
-1715
-1688.15
-1651.79
-1603.31
-1540.19
-1454.65
-1345.31
-1239.66
-1091.19
-928.742
-818.273
-806.65
-903.452
-1064.27
-1223.39
-1329.12
-1443.54
-1533.92
-1600.5
-1651.06
-1688.74
-1716.35
-1736.93
-1752.99
-1766.2
-1777.27
-1731.88
-1749.9
-1766.45
-1781.63
-1795.54
-1808.45
-1821.03
-1834.69
-1851.29
-1871.3
-1886.28
-1866.45
-1846.56
-1830.76
-1817.56
-1805.09
-1792.12
-1778.12
-1762.94
-1746.48
-1728.62
-1709.24
-1688.42
-1666.67
-1642.43
-1613.88
-1579.06
-1535.25
-1479.37
-1407.59
-1316.06
-1207.19
-1106.79
-966.023
-814.593
-708.216
-695.908
-789.666
-938.612
-1089.8
-1193.02
-1303.97
-1399.33
-1475.49
-1533.8
-1579.1
-1614.85
-1644.1
-1669.02
-1691.16
-1712.27
-1547.1
-1577.22
-1605.33
-1631.8
-1656.84
-1680.56
-1702.97
-1724.25
-1744.66
-1763.6
-1775.09
-1759.34
-1739.16
-1718.3
-1696.75
-1674.22
-1650.59
-1625.83
-1599.84
-1572.34
-1542.95
-1511.47
-1478.53
-1445.57
-1413.42
-1378.45
-1338.46
-1290.38
-1230.22
-1155.25
-1062.79
-983.462
-908.21
-798.73
-680.669
-591.124
-579.893
-659.418
-776.745
-893.509
-974.361
-1053.7
-1147.35
-1226.2
-1288.67
-1338.33
-1379.27
-1415.07
-1447.39
-1480.92
-1514.8
-1147.26
-1182.23
-1215.62
-1247.58
-1278.06
-1306.71
-1333.09
-1356.72
-1377.18
-1393.53
-1401.3
-1390.04
-1371.97
-1350.68
-1326.67
-1300.31
-1272.03
-1242.25
-1211.21
-1178.9
-1145.08
-1109.34
-1071.84
-1033.15
-993.283
-953.016
-910.404
-863.403
-814.343
-766.326
-718.039
-674.112
-625.444
-552.307
-471.911
-407.983
-399.618
-456.826
-537.351
-614.945
-668.38
-711.903
-760.47
-809.305
-859.319
-907.521
-950.909
-991.502
-1032.25
-1071.92
-1110.44
-416.887
-448.323
-480.59
-513.744
-547.857
-582.837
-618.198
-652.733
-684.006
-707.835
-717.217
-705.447
-681.029
-650.623
-617.769
-584.476
-551.675
-519.692
-488.524
-458.037
-428.126
-398.728
-369.455
-340.593
-315.172
-295.01
-281.34
-276.353
-282.566
-304.753
-345.458
-397.189
-449.383
-482.984
-496.827
-495.38
-493.156
-494.294
-482.079
-450.304
-397.791
-341.818
-296.118
-270.37
-262.072
-266.253
-279.849
-300.441
-326.68
-356.278
-386.299
)
;

boundaryField
{
    top
    {
        type            fixedValue;
        value           uniform 0;
    }
    bottom
    {
        type            fixedFluxPressure;
        gradient        uniform 0;
        value           nonuniform List<scalar> 
51
(
-1754.91
-1764
-1772.6
-1781.53
-1791.87
-1804.8
-1821.05
-1839.59
-1858.5
-1873.93
-1879.13
-1868.49
-1850.75
-1831.05
-1812.59
-1796.99
-1784.74
-1774.87
-1766.16
-1757.61
-1748.47
-1738.43
-1727.36
-1715.12
-1701.48
-1686.11
-1668.45
-1647.58
-1622.03
-1589.65
-1547.13
-1490.39
-1422.09
-1345.89
-1254.96
-1181.84
-1181.11
-1256.16
-1351.36
-1429.69
-1499.72
-1555.85
-1597.58
-1629.42
-1654.63
-1675.33
-1692.9
-1708.2
-1721.77
-1733.95
-1744.94
)
;
    }
    frontAndBack
    {
        type            empty;
    }
    left_cyc
    {
        type            cyclic;
    }
    right_cyc
    {
        type            cyclic;
    }
}


// ************************************************************************* //
