/*--------------------------------*- C++ -*----------------------------------*\
| =========                 |                                                 |
| \\      /  F ield         | OpenFOAM: The Open Source CFD Toolbox           |
|  \\    /   O peration     | Version:  2.3.0                                 |
|   \\  /    A nd           | Web:      www.OpenFOAM.org                      |
|    \\/     M anipulation  |                                                 |
\*---------------------------------------------------------------------------*/
FoamFile
{
    version     2.0;
    format      ascii;
    class       surfaceScalarField;
    location    "5000";
    object      phi;
}
// * * * * * * * * * * * * * * * * * * * * * * * * * * * * * * * * * * * * * //

dimensions      [0 3 -1 0 0 0 0];

internalField   nonuniform List<scalar> 
1464
(
0.307471
0.00324863
0.31148
-0.00400864
0.324515
-0.0130356
0.346586
-0.022071
0.373882
-0.0272959
0.396436
-0.0225538
0.397056
-0.000620026
0.353502
0.0435533
0.244605
0.108898
0.0656403
0.178965
-0.141859
0.2075
-0.299051
0.157192
-0.384728
0.0856765
-0.411171
0.0264429
-0.400555
-0.0106158
-0.373531
-0.0270234
-0.345326
-0.028206
-0.323965
-0.0213608
-0.312
-0.0119652
-0.308813
-0.00318706
-0.312455
0.00364204
-0.320823
0.00836879
-0.332463
0.0116395
-0.346696
0.0142328
-0.363521
0.0168254
-0.383551
0.0200294
-0.407997
0.0244462
-0.438332
0.0303354
-0.474759
0.0364267
-0.511998
0.0372393
-0.530716
0.0187184
-0.501279
-0.0294377
-0.420083
-0.0811961
-0.304783
-0.1153
-0.163618
-0.141165
-0.0135161
-0.150102
0.139632
-0.153148
0.28871
-0.149078
0.411945
-0.123235
0.498097
-0.0861525
0.525455
-0.0273576
0.505685
0.0197703
0.469839
0.0358457
0.435364
0.0344748
0.406413
0.0289508
0.38259
0.0238231
0.362611
0.0199795
0.345528
0.0170829
0.330957
0.0145712
0.319078
0.0118786
0.00835844
0.544575
-0.00401574
0.558507
-0.0179412
0.579521
-0.0340495
0.605646
-0.0481965
0.630713
-0.0523625
0.642307
-0.0341477
0.620373
0.0213144
0.537197
0.126729
0.365041
0.281053
0.0971614
0.446844
-0.208476
0.513137
-0.446783
0.395498
-0.587137
0.226031
-0.646853
0.086159
-0.65447
-0.00299867
-0.635488
-0.0460058
-0.607424
-0.0562695
-0.580605
-0.0481799
-0.559814
-0.0327565
-0.546234
-0.0167669
-0.539089
-0.00350359
-0.536693
0.00597355
-0.536991
0.0119372
-0.537943
0.0151848
-0.537576
0.0164589
-0.533803
0.0162564
-0.524228
0.0148707
-0.505968
0.0120755
-0.475616
0.00607465
-0.429423
-0.00895395
-0.364196
-0.0465081
-0.283829
-0.109805
-0.2027
-0.162325
-0.131876
-0.186123
-0.0715113
-0.20153
-0.0107116
-0.210901
0.0497146
-0.213574
0.109308
-0.208672
0.182038
-0.195965
0.268896
-0.17301
0.35541
-0.113871
0.424804
-0.049624
0.473842
-0.0131921
0.50594
0.00237634
0.524967
0.00992457
0.534569
0.0142209
0.537896
0.0166525
0.537593
0.017386
0.535959
0.0162047
0.535142
0.0126956
0.00619039
0.574755
-0.0179925
0.591715
-0.0349007
0.610846
-0.0531805
0.629419
-0.0667704
0.641723
-0.0646658
0.637725
-0.0301499
0.601596
0.057443
0.511474
0.216851
0.343795
0.448733
0.0918831
0.698756
-0.192916
0.797936
-0.419416
0.621998
-0.559724
0.366338
-0.629668
0.156103
-0.653014
0.0203477
-0.649894
-0.0491259
-0.633936
-0.0722278
-0.613685
-0.0684311
-0.593863
-0.0525781
-0.576587
-0.0340425
-0.562321
-0.0177699
-0.550526
-0.00582165
-0.539859
0.00127084
-0.528359
0.00368406
-0.513526
0.00162618
-0.492367
-0.00490228
-0.461525
-0.0159712
-0.417996
-0.0314541
-0.360872
-0.0510494
-0.294538
-0.0752876
-0.232821
-0.108225
-0.187207
-0.155419
-0.14802
-0.201512
-0.104078
-0.230066
-0.0579657
-0.247642
-0.0111788
-0.257688
0.035361
-0.260114
0.0811134
-0.254425
0.125416
-0.240267
0.166148
-0.213742
0.218687
-0.16641
0.288368
-0.119305
0.359767
-0.0845914
0.419231
-0.0570873
0.463442
-0.0342865
0.494073
-0.0164108
0.514593
-0.00386695
0.528634
0.00334521
0.53937
0.00546825
0.549413
0.00265259
-0.00517488
0.513487
-0.0308861
0.526064
-0.0474781
0.536852
-0.063969
0.543162
-0.0730796
0.540593
-0.0620972
0.522345
-0.0119023
0.478451
0.101338
0.39593
0.299372
0.260767
0.583897
0.0700752
0.889447
-0.141809
1.00982
-0.316966
0.797155
-0.434667
0.484039
-0.503786
0.225222
-0.538587
0.055149
-0.551118
-0.0365946
-0.550225
-0.0731207
-0.541879
-0.0767773
-0.529908
-0.0645496
-0.51662
-0.0473308
-0.503234
-0.0311556
-0.490123
-0.0189322
-0.476917
-0.0119355
-0.46245
-0.0107828
-0.444751
-0.0160728
-0.421127
-0.0285268
-0.388439
-0.0486589
-0.344042
-0.075851
-0.287823
-0.107269
-0.225584
-0.137526
-0.172065
-0.161744
-0.136964
-0.190521
-0.10879
-0.229685
-0.0787814
-0.260075
-0.0455734
-0.28085
-0.010553
-0.292709
0.0243487
-0.295015
0.0573459
-0.287422
0.0873472
-0.270269
0.116548
-0.242942
0.156701
-0.206564
0.216643
-0.179248
0.283591
-0.151539
0.342398
-0.115894
0.387871
-0.0797593
0.420707
-0.0492472
0.444015
-0.0271744
0.46122
-0.0138603
0.475176
-0.00848737
0.487916
-0.0100876
-0.0178521
0.405705
-0.0377908
0.409879
-0.0516519
0.409786
-0.0638759
0.403347
-0.0666407
0.387825
-0.0465757
0.359642
0.0162812
0.314535
0.146444
0.247955
0.365952
0.15636
0.675492
0.0424196
1.00339
-0.0791628
1.1314
-0.188802
0.906794
-0.27392
0.569157
-0.334456
0.285759
-0.374714
0.0954064
-0.399261
-0.0120472
-0.412213
-0.0601694
-0.416898
-0.0720917
-0.415839
-0.0656089
-0.41094
-0.0522299
-0.403598
-0.0384977
-0.394711
-0.0278188
-0.384627
-0.0220197
-0.373013
-0.0223967
-0.358751
-0.0303349
-0.339896
-0.0473816
-0.313875
-0.0746796
-0.278208
-0.111519
-0.232179
-0.153297
-0.179369
-0.190336
-0.130302
-0.210811
-0.0978263
-0.222997
-0.0758957
-0.251616
-0.0551295
-0.280841
-0.032823
-0.303156
-0.00922713
-0.316305
0.0143352
-0.318578
0.0366019
-0.309689
0.0574795
-0.291146
0.0800537
-0.265517
0.11467
-0.24118
0.16697
-0.231548
0.222823
-0.207391
0.271264
-0.164336
0.308458
-0.116953
0.335253
-0.0760427
0.354401
-0.0463219
0.368703
-0.0281629
0.38024
-0.0200237
0.390171
-0.0200193
-0.0264811
0.264041
-0.0371144
0.259271
-0.046882
0.24929
-0.0538948
0.232976
-0.0503265
0.209313
-0.022913
0.177685
0.0479099
0.138534
0.185595
0.0941905
0.410295
0.0502693
0.719413
0.0143279
1.03933
-0.0172279
1.16296
-0.05864
0.948206
-0.105848
0.616365
-0.15074
0.330651
-0.189057
0.133723
-0.2194
0.0182961
-0.241797
-0.0377719
-0.257117
-0.056772
-0.266419
-0.0563065
-0.270798
-0.0478512
-0.271324
-0.0379719
-0.26897
-0.0301726
-0.264493
-0.0264968
-0.258248
-0.0286414
-0.24999
-0.0385929
-0.238709
-0.058663
-0.222637
-0.0907517
-0.199637
-0.134519
-0.168328
-0.184605
-0.129911
-0.228754
-0.0899713
-0.25075
-0.062287
-0.250681
-0.0465397
-0.267363
-0.0339985
-0.293382
-0.021166
-0.315989
-0.0074521
-0.330018
0.0062949
-0.332325
0.0192202
-0.322614
0.0318162
-0.303742
0.0473882
-0.281089
0.074196
-0.267987
0.114339
-0.271691
0.154359
-0.247411
0.187768
-0.197745
0.212609
-0.141794
0.230015
-0.0934495
0.242181
-0.0584877
0.251014
-0.0369953
0.257629
-0.0266393
0.262318
-0.0247077
-0.028881
0.0993207
-0.0297023
0.0875516
-0.0351129
0.0709232
-0.0372663
0.0492663
-0.0286696
0.0230488
0.00330449
-0.00581473
0.0767734
-0.033196
0.212976
-0.0511513
0.428251
-0.0471392
0.715401
-0.0114438
1.00363
0.0373952
1.11412
0.0607744
0.924827
0.0539341
0.623205
0.0299805
0.354604
-1.88189e-05
0.163722
-0.0297347
0.048012
-0.0560055
-0.011501
-0.0775614
-0.0352162
-0.0941761
-0.0396918
-0.10608
-0.0359475
-0.11378
-0.0302722
-0.117996
-0.0259564
-0.119568
-0.0249249
-0.119257
-0.028952
-0.117482
-0.0403682
-0.114079
-0.0620655
-0.108213
-0.0966183
-0.0985404
-0.144191
-0.0838715
-0.199274
-0.0642726
-0.248353
-0.04206
-0.272963
-0.0265941
-0.266147
-0.0193281
-0.274629
-0.015
-0.29771
-0.0105785
-0.32041
-0.00545973
-0.335137
-0.000283968
-0.3375
0.00425853
-0.327156
0.00844982
-0.307934
0.0144772
-0.287116
0.0272067
-0.280717
0.0478726
-0.292357
0.0678647
-0.267403
0.0840336
-0.213914
0.0954833
-0.153243
0.102941
-0.100907
0.107622
-0.0631684
0.110395
-0.0397683
0.111483
-0.027728
0.11051
-0.0237343
-0.0251041
-0.0722296
-0.0180172
-0.0879409
-0.0194016
-0.107681
-0.0175258
-0.130818
-0.00553307
-0.155466
0.0279523
-0.177482
0.0987894
-0.189346
0.22484
-0.178717
0.417622
-0.129503
0.666187
-0.0334346
0.907565
0.0809456
0.999739
0.161237
0.844536
0.194754
0.589688
0.195137
0.354221
0.177662
0.181198
0.152922
0.0727522
0.127023
0.0143976
0.103233
-0.0114264
0.0829653
-0.0194237
0.0666705
-0.0196527
0.0542933
-0.017895
0.045395
-0.0170581
0.0392052
-0.0187351
0.0347833
-0.0245301
0.031302
-0.0368869
0.0282487
-0.0590123
0.0254432
-0.0938128
0.0229247
-0.141673
0.0207212
-0.197071
0.0187687
-0.246401
0.0171365
-0.271331
0.0135131
-0.262524
0.0076451
-0.268761
0.00299721
-0.293062
-0.000549827
-0.316863
-0.00341171
-0.332275
-0.00622921
-0.334683
-0.00969484
-0.323691
-0.0144968
-0.303132
-0.021474
-0.280139
-0.0280544
-0.274136
-0.03241
-0.288001
-0.0353842
-0.264429
-0.0372218
-0.212077
-0.0385891
-0.151876
-0.0399943
-0.099502
-0.0416743
-0.0614884
-0.0439062
-0.0375364
-0.0472255
-0.0244087
-0.0524621
-0.0184977
-0.0170217
-0.232664
-0.00493317
-0.249538
-0.0025275
-0.26982
0.00275539
-0.29202
0.0166671
-0.312717
0.0486493
-0.325562
0.111634
-0.320054
0.219333
-0.281291
0.378858
-0.193078
0.577974
-0.050931
0.765418
0.111764
0.837044
0.2375
0.7188
0.307848
0.519339
0.333527
0.328542
0.330946
0.183779
0.313632
0.0900655
0.290584
0.0374458
0.267131
0.0120267
0.246013
0.00169427
0.22836
-0.00199917
0.214404
-0.00393911
0.203805
-0.006459
0.195734
-0.010665
0.189029
-0.0178243
0.182506
-0.0303639
0.175064
-0.0515704
0.165487
-0.0842358
0.15231
-0.128496
0.133967
-0.178728
0.109807
-0.222241
0.0818827
-0.243406
0.0559241
-0.236565
0.035329
-0.248166
0.0214355
-0.279169
0.00977044
-0.305198
-0.00135542
-0.321149
-0.0124816
-0.323557
-0.0241598
-0.312013
-0.0379957
-0.289296
-0.057889
-0.260245
-0.0857857
-0.24624
-0.11764
-0.256147
-0.14452
-0.237548
-0.164076
-0.19252
-0.177233
-0.138719
-0.186051
-0.0906844
-0.192365
-0.055174
-0.197623
-0.0322789
-0.203071
-0.0189601
-0.209991
-0.0115781
-0.00743236
-0.364675
0.00734777
-0.380649
0.0134468
-0.399537
0.0216435
-0.419012
0.0361419
-0.434304
0.0639412
-0.437145
0.114475
-0.415078
0.197266
-0.352505
0.316285
-0.235353
0.460822
-0.0634545
0.59352
0.129069
0.644521
0.285778
0.56209
0.385017
0.4201
0.433168
0.280391
0.445483
0.171464
0.436808
0.0987406
0.41831
0.0559446
0.397144
0.0331924
0.377286
0.0215523
0.360563
0.0147234
0.347495
0.00912895
0.33777
0.00326667
0.330356
-0.00325143
0.323662
-0.0111305
0.316012
-0.022714
0.305682
-0.0412402
0.290497
-0.0690508
0.267792
-0.105791
0.234805
-0.145741
0.190135
-0.177571
0.137684
-0.190955
0.0932588
-0.19214
0.0642586
-0.219166
0.0419788
-0.256889
0.0213898
-0.284609
0.000751088
-0.300511
-0.0199536
-0.302852
-0.0407219
-0.291244
-0.0628304
-0.267187
-0.0903854
-0.23269
-0.135743
-0.200882
-0.192153
-0.199738
-0.240542
-0.189159
-0.276047
-0.157016
-0.299941
-0.114826
-0.315272
-0.0753528
-0.325035
-0.0454112
-0.331702
-0.0256116
-0.337259
-0.0134032
-0.343596
-0.00524091
0.00136532
-0.449998
0.0176048
-0.463398
0.0268465
-0.478923
0.0371686
-0.493834
0.0510524
-0.502679
0.0727863
-0.496341
0.108137
-0.46188
0.162805
-0.384474
0.238879
-0.252878
0.329227
-0.070218
0.410859
0.131627
0.442676
0.30128
0.392438
0.416424
0.304956
0.479589
0.217226
0.503833
0.14722
0.503784
0.0987898
0.491383
0.0683456
0.47468
0.049896
0.458283
0.0379492
0.444371
0.0286352
0.433646
0.0198543
0.42589
0.0110221
0.419994
0.00264485
0.413985
-0.00512171
0.40574
-0.0144692
0.393005
-0.0285053
0.372901
-0.0489464
0.342267
-0.0751574
0.298247
-0.10172
0.239451
-0.118775
0.17457
-0.126074
0.127333
-0.144903
0.0961068
-0.187939
0.0660265
-0.226809
0.0349411
-0.253524
0.00286849
-0.268438
-0.0293693
-0.270614
-0.060913
-0.259701
-0.0915364
-0.236564
-0.123671
-0.200556
-0.170489
-0.154064
-0.236861
-0.133365
-0.29951
-0.126509
-0.346909
-0.109618
-0.37981
-0.0819241
-0.401085
-0.0540775
-0.414088
-0.0324082
-0.421986
-0.0177142
-0.427337
-0.00805215
-0.43255
-2.73609e-05
0.00855624
-0.469277
0.0251834
-0.478197
0.0357663
-0.487645
0.046617
-0.495322
0.0587296
-0.496448
0.0739121
-0.4829
0.0945885
-0.443237
0.123143
-0.364775
0.160416
-0.238796
0.203248
-0.0694419
0.241505
0.116411
0.256823
0.275424
0.233425
0.387727
0.192653
0.453899
0.151054
0.484561
0.116557
0.492478
0.0908734
0.488321
0.0725023
0.479287
0.0589298
0.469395
0.0478416
0.460432
0.0375975
0.452932
0.0273545
0.446796
0.0171583
0.441274
0.00816707
0.434804
0.00134851
0.425416
-0.00508143
0.410541
-0.0136308
0.386883
-0.0252883
0.351856
-0.0401306
0.305715
-0.0555792
0.252527
-0.0655869
0.203799
-0.0773459
0.168107
-0.109211
0.132824
-0.152657
0.0931292
-0.187114
0.0499514
-0.210346
0.00485974
-0.223346
-0.0405261
-0.225228
-0.0845519
-0.215675
-0.125709
-0.195406
-0.162931
-0.163335
-0.197717
-0.119278
-0.246965
-0.0841181
-0.303412
-0.0700616
-0.353227
-0.0598033
-0.391308
-0.0438424
-0.417058
-0.0283281
-0.433153
-0.016313
-0.443157
-0.00771036
-0.449864
-0.0013453
-0.455473
0.0055824
0.0147811
-0.415793
0.0285496
-0.417098
0.0370715
-0.416129
0.0456484
-0.411905
0.0545054
-0.401877
0.0638839
-0.38127
0.0739816
-0.342988
0.0848612
-0.278858
0.0962868
-0.183055
0.107444
-0.0580877
0.116538
0.078547
0.120189
0.19683
0.115142
0.283853
0.10563
0.340217
0.0946899
0.37301
0.0837642
0.39042
0.073463
0.399008
0.0639149
0.402926
0.0550117
0.404229
0.0465381
0.403584
0.038243
0.40105
0.029888
0.396795
0.021414
0.39145
0.0135115
0.385713
0.00708584
0.379119
0.0015128
0.369645
-0.00415722
0.354556
-0.0101995
0.33123
-0.0168047
0.300406
-0.0247552
0.270184
-0.035365
0.244372
-0.0515332
0.212826
-0.0776647
0.170271
-0.110102
0.119804
-0.136647
0.0645221
-0.155064
0.00657437
-0.165399
-0.0518037
-0.16685
-0.108315
-0.159164
-0.160767
-0.142954
-0.206042
-0.11806
-0.239864
-0.0854557
-0.267139
-0.0568432
-0.298734
-0.0384662
-0.331862
-0.0266751
-0.357523
-0.0181819
-0.374458
-0.0113922
-0.385466
-0.00530545
-0.393505
0.000328219
-0.400635
0.00578517
-0.407182
0.0121291
0.0200257
-0.362819
0.0180535
-0.347909
0.0221613
-0.328604
0.0263434
-0.304766
0.0306674
-0.276057
0.0351751
-0.241912
0.0398369
-0.20156
0.0445083
-0.154159
0.0488866
-0.0992236
0.0525083
-0.0375434
0.0548577
0.0270657
0.0555796
0.0876289
0.0545787
0.141246
0.0520128
0.187642
0.0482938
0.227464
0.0439422
0.261543
0.0393842
0.290581
0.0348772
0.315063
0.0305291
0.335256
0.0263449
0.351232
0.0222671
0.362899
0.0182211
0.370079
0.0142341
0.372966
0.0106246
0.372435
0.00761722
0.369148
0.00479922
0.363056
0.00193506
0.353827
-0.000970327
0.341125
-0.00410312
0.324643
-0.0082726
0.30436
-0.0150829
0.279402
-0.0265742
0.245003
-0.0432661
0.197593
-0.0626924
0.14006
-0.0791138
0.0758199
-0.0908239
0.00783732
-0.0974162
-0.0607429
-0.09827
-0.126691
-0.0932153
-0.186912
-0.0827336
-0.237836
-0.0671356
-0.275773
-0.0475187
-0.303207
-0.02941
-0.325263
-0.0164093
-0.34323
-0.00870889
-0.357257
-0.00415463
-0.367719
-0.000930077
-0.374974
0.00194918
-0.379377
0.00473162
-0.381034
0.00744253
-0.379306
0.010401
0.0140345
-0.351023
-0.334892
-0.314299
-0.289033
-0.258836
-0.223469
-0.182832
-0.137139
-0.0871268
-0.0341733
0.0197617
0.0725031
0.122198
0.167618
0.208156
0.243673
0.274293
0.300242
0.321739
0.338942
0.35194
0.360854
0.366101
0.368313
0.367805
0.36472
0.359261
0.351554
0.341143
0.326312
0.303526
0.268411
0.21853
0.156141
0.0849388
0.00876175
-0.06818
-0.14155
-0.207276
-0.261321
-0.300548
-0.32636
-0.343053
-0.354682
-0.36337
-0.369788
-0.373886
-0.375493
-0.37449
-0.370509
)
;

boundaryField
{
    top
    {
        type            calculated;
        value           nonuniform List<scalar> 
51
(
0.00623847
0.00603096
0.00575013
0.0054011
0.00497815
0.00447039
0.00387122
0.00319369
0.00249586
0.00190422
0.00164461
0.00183725
0.00231803
0.00287363
0.00340451
0.00386741
0.00425651
0.00457996
0.00484776
0.00506423
0.00522374
0.00531982
0.00537753
0.00540502
0.00530748
0.00502017
0.00448835
0.00360429
0.00213787
-0.000252136
-0.00378821
-0.00815029
-0.0128122
-0.0167242
-0.0196219
-0.0212392
-0.0213282
-0.0198457
-0.0170073
-0.01309
-0.00829186
-0.00359853
0.000284223
0.00291943
0.0045339
0.00548782
0.00604726
0.00633892
0.00643926
0.00642034
0.00636257
)
;
    }
    bottom
    {
        type            calculated;
        value           uniform 0;
    }
    frontAndBack
    {
        type            empty;
        value           nonuniform 0();
    }
    left_cyc
    {
        type            cyclic;
        value           nonuniform List<scalar> 
15
(
-0.31072
-0.53731
-0.560778
-0.500593
-0.3988
-0.264718
-0.106733
0.0605445
0.21958
0.352394
0.439741
0.461698
0.412426
0.373315
0.362838
)
;
    }
    right_cyc
    {
        type            cyclic;
        value           nonuniform List<scalar> 
15
(
0.31072
0.53731
0.560778
0.500593
0.3988
0.264718
0.106733
-0.0605445
-0.21958
-0.352394
-0.439741
-0.461698
-0.412426
-0.373315
-0.362838
)
;
    }
}


// ************************************************************************* //
