/*--------------------------------*- C++ -*----------------------------------*\
| =========                 |                                                 |
| \\      /  F ield         | OpenFOAM: The Open Source CFD Toolbox           |
|  \\    /   O peration     | Version:  2.3.0                                 |
|   \\  /    A nd           | Web:      www.OpenFOAM.org                      |
|    \\/     M anipulation  |                                                 |
\*---------------------------------------------------------------------------*/
FoamFile
{
    version     2.0;
    format      ascii;
    class       surfaceScalarField;
    location    "5000";
    object      phi;
}
// * * * * * * * * * * * * * * * * * * * * * * * * * * * * * * * * * * * * * //

dimensions      [0 3 -1 0 0 0 0];

internalField   nonuniform List<scalar> 
1464
(
0.0241349
-0.0215395
0.0446287
-0.0204938
0.0631442
-0.0185155
0.0787484
-0.0156041
0.0904602
-0.0117119
0.0971109
-0.00665071
0.0972029
-9.19343e-05
0.0893116
0.00789126
0.0738041
0.0155075
0.0529119
0.0208922
0.0307817
0.0221302
0.0112469
0.0195348
-0.00634316
0.01759
-0.0250861
0.0187429
-0.0466585
0.0215724
-0.068487
0.0218285
-0.0856608
0.0171738
-0.0957766
0.0101158
-0.0977194
0.00194275
-0.0926497
-0.00506966
-0.0821333
-0.0105164
-0.06743
-0.0147033
-0.0495616
-0.0178684
-0.0294714
-0.0200902
-0.00809548
-0.0213759
0.013631
-0.0217264
0.034768
-0.0211371
0.0543803
-0.0196123
0.0715328
-0.0171525
0.0852749
-0.0137421
0.0945455
-0.00927061
0.0980065
-0.00346096
0.0940815
0.00392493
0.0819907
0.0120908
0.0634136
0.0185771
0.041099
0.0223146
0.0201579
0.0209411
0.00200627
0.0181516
-0.0157718
0.0177781
-0.0360503
0.0202785
-0.0584483
0.022398
-0.0782354
0.0197872
-0.0920746
0.0138392
-0.0979354
0.00586076
-0.0960987
-0.00183671
-0.0881001
-0.00799854
-0.0753532
-0.0127469
-0.0589627
-0.0163905
-0.039887
-0.0190757
-0.0190569
-0.0208301
-0.0216523
0.026787
-0.0454485
0.0493568
-0.0430636
0.0695044
-0.0386631
0.0863005
-0.0324002
0.0989985
-0.0244099
0.107102
-0.0147538
0.110466
-0.00345594
0.108976
0.00938102
0.100592
0.0238909
0.0820691
0.0394155
0.0539437
0.0502557
0.0211974
0.0522811
-0.0120335
0.050821
-0.0450743
0.0517838
-0.0750966
0.0515947
-0.0964981
0.04323
-0.107432
0.0281078
-0.110409
0.0130926
-0.108285
-0.000181136
-0.101423
-0.0119315
-0.0898879
-0.0220517
-0.0740899
-0.0305013
-0.0547212
-0.037237
-0.0326712
-0.0421403
-0.00899014
-0.045057
0.0151461
-0.0458627
0.0385199
-0.0445108
0.059982
-0.0410744
0.0785213
-0.0356918
0.093295
-0.0285158
0.103672
-0.0196479
0.109331
-0.0091197
0.11025
0.00300625
0.10567
0.0166708
0.0922197
0.0320271
0.0683116
0.0462227
0.0369676
0.0522851
0.00381209
0.0513072
-0.0293938
0.0509839
-0.0615981
0.0524829
-0.0876829
0.0484828
-0.103591
0.0356949
-0.109916
0.0201649
-0.11017
0.00611467
-0.105662
-0.00634519
-0.0964191
-0.0172413
-0.0826754
-0.0264907
-0.0649959
-0.0340699
-0.0441741
-0.0398975
-0.0211779
-0.0438263
-0.0457081
0.0253957
-0.0681191
0.0466682
-0.0643362
0.0654369
-0.0574318
0.0808005
-0.0477638
0.0920899
-0.0356993
0.0988742
-0.0215381
0.100914
-0.00549575
0.0980043
0.0122908
0.090004
0.0318911
0.0766731
0.0527465
0.0549468
0.071982
0.023174
0.0840539
-0.0132597
0.0872546
-0.0470455
0.0855696
-0.0717453
0.0762946
-0.0868035
0.0582881
-0.0961744
0.0374788
-0.100441
0.0173593
-0.0996875
-0.000934759
-0.0941329
-0.0174861
-0.0839905
-0.0321941
-0.0696335
-0.0448584
-0.0516704
-0.0552001
-0.0309473
-0.0628633
-0.00852541
-0.0674789
0.0143734
-0.0687616
0.0364748
-0.0666122
0.0565901
-0.0611897
0.07371
-0.0528116
0.0870478
-0.0418536
0.0960564
-0.0286565
0.100415
-0.0134778
0.0999219
0.00349884
0.0943674
0.0222254
0.0836884
0.0427061
0.0667043
0.0632069
0.0393822
0.0796072
0.00421475
0.0864746
-0.0317961
0.0869948
-0.0614063
0.082093
-0.0805583
0.0676348
-0.0925064
0.047643
-0.0992734
0.0269319
-0.100962
0.00780308
-0.0977567
-0.00955028
-0.0898554
-0.0251425
-0.0775339
-0.0388122
-0.0612789
-0.0503249
-0.0418163
-0.0593601
-0.0200993
-0.0655433
-0.0685325
0.0223446
-0.0880702
0.0409374
-0.082929
0.0571024
-0.0735968
0.0699825
-0.0606439
0.0789555
-0.0446723
0.08362
-0.0262027
0.083759
-0.00563469
0.0793328
0.0167169
0.0706905
0.0405334
0.0583677
0.0650692
0.0417003
0.0886494
0.0181986
0.107556
-0.0105258
0.115979
-0.0360416
0.111085
-0.0542229
0.0944758
-0.0675684
0.0716336
-0.0772209
0.0471314
-0.0828263
0.0229647
-0.0839016
0.000140598
-0.0804163
-0.0209714
-0.0725448
-0.0400656
-0.0606371
-0.0567662
-0.0452573
-0.0705799
-0.027205
-0.0809156
-0.00750308
-0.0871808
0.0126619
-0.0889265
0.0320527
-0.086003
0.0495159
-0.0786529
0.0640825
-0.0673781
0.0750133
-0.0527845
0.0818019
-0.0354451
0.084146
-0.0158219
0.0819127
0.00573208
0.0752236
0.0289145
0.0646476
0.053282
0.0502605
0.077594
0.0304364
0.0994313
0.00336622
0.113545
-0.0247676
0.115129
-0.0463447
0.10367
-0.0618024
0.0830925
-0.073239
0.0590796
-0.0809179
0.0346107
-0.084247
0.0111322
-0.0830004
-0.0107969
-0.0772677
-0.0308752
-0.0673066
-0.0487732
-0.0535685
-0.064063
-0.0367315
-0.0761972
-0.017707
-0.0845679
-0.088633
0.0180995
-0.104235
0.0330282
-0.0978577
0.0457563
-0.0863249
0.0555323
-0.07042
0.0618424
-0.0509823
0.0643967
-0.028757
0.0631024
-0.00434039
0.0580652
0.0217541
0.0496916
0.0489071
0.0386677
0.0760932
0.0256673
0.10165
0.0106217
0.122601
-0.00607998
0.132681
-0.0217348
0.12674
-0.0352219
0.107963
-0.0468255
0.0832372
-0.0559688
0.0562747
-0.0619442
0.0289401
-0.0642481
0.00244447
-0.0627079
-0.0225116
-0.0573667
-0.0454068
-0.0484609
-0.0656719
-0.0364456
-0.0825952
-0.0220131
-0.0953481
-0.00608072
-0.103113
0.0102733
-0.105281
0.0259225
-0.101652
0.0398205
-0.092551
0.051104
-0.0786617
0.0591417
-0.0608221
0.0635367
-0.0398402
0.0641034
-0.0163886
0.060847
0.00898847
0.0540126
0.035749
0.0441838
0.0631108
0.0320719
0.0897059
0.0180859
0.113417
0.00192437
0.129706
-0.0145887
0.131642
-0.0290832
0.118165
-0.0416468
0.0956561
-0.0520905
0.0695232
-0.0597098
0.0422301
-0.0638618
0.0152841
-0.0642257
-0.010433
-0.0607481
-0.0343529
-0.053567
-0.0559542
-0.0430236
-0.0746065
-0.0296881
-0.0895326
-0.0143669
-0.0998891
-0.104934
0.0130794
-0.115922
0.0237276
-0.108506
0.0325429
-0.0951402
0.0389339
-0.076811
0.0425396
-0.054588
0.0432223
-0.0294397
0.0410515
-0.00216957
0.0363004
0.0265052
0.0294759
0.0557315
0.0213176
0.0842515
0.0127716
0.110196
0.00477983
0.130593
-0.00268672
0.140147
-0.010468
0.134522
-0.0189316
0.116426
-0.0272855
0.0915911
-0.0345349
0.0635241
-0.0398908
0.0342961
-0.0427775
0.00533119
-0.0428618
-0.0224273
-0.0400211
-0.0482475
-0.0343378
-0.0713552
-0.0261144
-0.0908186
-0.015885
-0.105578
-0.00439873
-0.114599
0.00744206
-0.117121
0.0186901
-0.1129
0.0284735
-0.102334
0.0360941
-0.0862822
0.0410768
-0.0658048
0.0431769
-0.0419404
0.0423653
-0.0155769
0.0388153
0.0125384
0.0329165
0.0416478
0.0253048
0.0707225
0.0168175
0.0981933
0.00847037
0.121764
0.000834555
0.137342
-0.00669887
0.139175
-0.0148915
0.126357
-0.0234471
0.104212
-0.031361
0.0774371
-0.0377439
0.0486131
-0.0419072
0.0194475
-0.0434057
-0.00893449
-0.0420166
-0.035742
-0.0377192
-0.0602517
-0.0307029
-0.0816228
-0.0213843
-0.0988512
-0.0104074
-0.110866
-0.116735
0.00754652
-0.12267
0.0135299
-0.114489
0.0181835
-0.0997938
0.0211215
-0.079749
0.0221612
-0.0556277
0.021323
-0.0286015
0.0188216
0.000331899
0.0150573
0.0302695
0.0105974
0.0601914
0.00615706
0.0886918
0.00257584
0.113777
0.000580413
0.132588
-0.000286518
0.141014
-0.00184379
0.136079
-0.00503761
0.11962
-0.00932332
0.0958768
-0.0138413
0.0680421
-0.0178445
0.0382993
-0.0207216
0.0082083
-0.0220251
-0.0211239
-0.0214897
-0.0487829
-0.0190434
-0.0738014
-0.0148156
-0.0950464
-0.00914135
-0.111252
-0.00254461
-0.121196
0.00431464
-0.123981
0.0107354
-0.119321
0.0160847
-0.107684
0.0198835
-0.090081
0.0218486
-0.06777
0.0219029
-0.0419946
0.0201681
-0.0138421
0.0169567
0.0157498
0.0127564
0.0458481
0.00821604
0.0752628
0.00411295
0.102296
0.00130237
0.124575
7.21922e-05
0.138572
-0.000930065
0.140177
-0.00335181
0.128779
-0.007233
0.108093
-0.0117557
0.0819598
-0.0161116
0.0529689
-0.0196185
0.0229544
-0.0217502
-0.0068028
-0.0221497
-0.0353424
-0.0206485
-0.0617529
-0.0172741
-0.0849971
-0.0122586
-0.103867
-0.00603439
-0.11709
-0.123568
0.00168568
-0.124185
0.00278009
-0.115584
0.00317145
-0.100185
0.00271287
-0.0792905
0.00140832
-0.0543232
-0.00058323
-0.0266099
-0.0029493
0.00269797
-0.00523909
0.0325593
-0.00691045
0.0618627
-0.00737871
0.0891601
-0.00609504
0.112493
-0.00281602
0.129309
0.0016323
0.136566
0.00537738
0.132334
0.00721057
0.117787
0.00717352
0.0959138
0.00577749
0.0694381
0.00360527
0.0404715
0.0012173
0.0105963
-0.00090627
-0.0190003
-0.00241327
-0.0472759
-0.00310334
-0.0731114
-0.0029319
-0.0952178
-0.00200748
-0.112176
-0.000579822
-0.122624
0.000994768
-0.125555
0.0023247
-0.120651
0.00307558
-0.108435
0.0030315
-0.0900369
0.00212223
-0.0668607
0.000431798
-0.0403042
-0.00180022
-0.0116101
-0.00418576
0.0181354
-0.0062223
0.0478846
-0.00733757
0.0763781
-0.00695478
0.101914
-0.00461886
0.122239
-0.000532332
0.134486
0.00378477
0.13586
0.00658916
0.125975
0.0073946
0.107287
0.00657366
0.0827807
0.00469336
0.0548492
0.00233383
0.0253139
1.74461e-05
-0.00448642
-0.00183486
-0.0334901
-0.00294687
-0.0606409
-0.00319714
-0.0847468
-0.00261879
-0.104445
-0.00139335
-0.118316
-0.125131
-0.00435133
-0.12031
-0.00824295
-0.111692
-0.012108
-0.0963201
-0.0158339
-0.0755646
-0.0192349
-0.0509222
-0.0220455
-0.0237993
-0.0239147
0.00456708
-0.0244223
0.0330669
-0.0231327
0.0605731
-0.0196666
0.085694
-0.0138194
0.106646
-0.00580362
0.121294
0.00331571
0.127447
0.0117814
0.123868
0.0182675
0.111301
0.0223726
0.0918088
0.0242212
0.0675895
0.0241582
0.0405345
0.0226134
0.0121411
0.0200169
-0.0164039
0.016742
-0.044001
0.0130776
-0.069447
0.0092304
-0.0913707
0.00533251
-0.108278
0.00144528
-0.118737
-0.00243173
-0.121678
-0.00632414
-0.116758
-0.0102186
-0.10454
-0.0140362
-0.0862193
-0.0176265
-0.0632703
-0.0207633
-0.0371675
-0.0231357
-0.00923766
-0.0243521
0.0193517
-0.0239778
0.0475103
-0.0215951
0.0739954
-0.0168978
0.0972163
-0.0098518
0.115193
-0.00106198
0.125696
0.00794085
0.126857
0.0154819
0.118434
0.0207399
0.102029
0.0236423
0.0798784
0.0244511
0.0540404
0.0235682
0.0261968
0.0214297
-0.00234799
0.0184435
-0.0305039
0.0149402
-0.0571376
0.0111648
-0.0809714
0.00728463
-0.100565
0.00339507
-0.114426
-0.121259
-0.0103981
-0.111035
-0.0192403
-0.10285
-0.0272572
-0.0883032
-0.0340703
-0.0687515
-0.039325
-0.0456675
-0.0426826
-0.0204417
-0.0438076
0.0056921
-0.0423753
0.0316346
-0.0381148
0.0563126
-0.0308913
0.0784705
-0.020833
0.0965879
-0.00851501
0.108976
0.00484556
0.114086
0.0175952
0.111118
0.0283471
0.100549
0.036365
0.0837908
0.0414198
0.0625348
0.0435885
0.0383658
0.0431151
0.0126145
0.0403161
-0.0136049
0.0355273
-0.0392122
0.0290869
-0.0630066
0.0213457
-0.0836294
0.0126777
-0.0996103
0.0034753
-0.109534
-0.00586987
-0.112333
-0.0149743
-0.107654
-0.0234445
-0.09607
-0.0308912
-0.0787726
-0.0369471
-0.0572145
-0.0412664
-0.0328481
-0.0435126
-0.00699152
-0.0433514
0.0191906
-0.0404791
0.044638
-0.0346828
0.0681991
-0.0259461
0.0884796
-0.0146019
0.103849
-0.00154446
0.112639
0.0117113
0.113602
0.0235624
0.106583
0.0329578
0.0926341
0.0394544
0.0733818
0.0430035
0.0504912
0.0437835
0.0254169
0.0420835
-0.000648033
0.038234
-0.0266544
0.0325701
-0.0514737
0.0254323
-0.0738337
0.0171804
-0.092313
0.00819772
-0.105443
-0.111939
-0.0162374
-0.0965455
-0.0298277
-0.0892595
-0.0417743
-0.0763566
-0.0514415
-0.0590843
-0.0583228
-0.0387862
-0.0620329
-0.0167317
-0.0622877
0.00594694
-0.058897
0.0282439
-0.0517867
0.0492023
-0.0410764
0.0677602
-0.0271913
0.0827029
-0.0109792
0.0927634
0.00623992
0.0968668
0.0228727
0.0944857
0.0374896
0.0859321
0.0491128
0.0721677
0.0572118
0.0544357
0.0615951
0.0339825
0.0622935
0.0119161
0.0594715
-0.0107829
0.0533896
-0.0331303
0.0444062
-0.0540232
0.0329967
-0.0722199
0.0197662
-0.0863799
0.00543729
-0.0952054
-0.00919466
-0.0977011
-0.0233182
-0.0935305
-0.036151
-0.0832371
-0.0469977
-0.0679259
-0.0552865
-0.0489257
-0.0605743
-0.0275603
-0.0625297
-0.00503615
-0.0609162
0.017577
-0.0555971
0.039319
-0.0465871
0.0591891
-0.0341499
0.0760425
-0.0189173
0.0886162
-0.00198597
0.0957072
0.0151354
0.0964803
0.0308844
0.0908335
0.0440535
0.079465
0.0539095
0.0635258
0.0601142
0.0442865
0.0626058
0.0229253
0.0614922
0.000465593
0.0569855
-0.0221477
0.049392
-0.0438802
0.0391238
-0.0635654
0.0267182
-0.0799074
0.01284
-0.0915651
-0.0973512
-0.0215832
-0.0772815
-0.0395
-0.0713428
-0.0549976
-0.0608589
-0.067208
-0.0468739
-0.075494
-0.0305002
-0.0794401
-0.0127856
-0.0788272
0.00533401
-0.0736092
0.023026
-0.0639122
0.0395054
-0.0500952
0.0539431
-0.0328326
0.0654403
-0.0131728
0.0731037
0.00748531
0.0762087
0.0275639
0.0744072
0.0455907
0.0679052
0.0604141
0.0573443
0.0712602
0.0435896
0.0776913
0.0275513
0.0795254
0.0100819
0.0767665
-0.00802389
0.0695866
-0.0259504
0.0583491
-0.0427857
0.0436339
-0.0575047
0.0262532
-0.0689992
0.00723486
-0.076187
-0.0122415
-0.0782248
-0.0309511
-0.0748208
-0.0477444
-0.0664438
-0.0616447
-0.0540256
-0.0718995
-0.038671
-0.0779865
-0.0214732
-0.0795943
-0.00342839
-0.0765964
0.0145791
-0.0690307
0.0317533
-0.0571348
0.0472931
-0.0414219
0.0603296
-0.0227574
0.0699517
-0.00238202
0.0753319
0.0181812
0.0759171
0.0373748
0.0716399
0.0538784
0.0629613
0.0667391
0.0506651
0.0753682
0.0356574
0.0794726
0.0188209
0.0789729
0.000965283
0.0739525
-0.0171273
0.0646746
-0.0346022
0.0516055
-0.0504964
0.0354377
-0.0637396
0.0170924
-0.0732198
-0.0779396
-0.0260868
-0.053996
-0.0476373
-0.0497923
-0.0661048
-0.0423914
-0.0804314
-0.0325473
-0.0898767
-0.0210549
-0.0940044
-0.00865794
-0.0926522
0.00398182
-0.0858982
0.016272
-0.0740427
0.0276499
-0.0576454
0.0375458
-0.0375744
0.0453693
-0.0150236
0.0505528
0.0085393
0.0526458
0.0315152
0.0514313
0.0523821
0.0470383
0.069862
0.0398643
0.0829965
0.0304552
0.091145
0.0194028
0.0939415
0.00728544
0.0912505
-0.00533283
0.0831679
-0.0178679
0.0700572
-0.029675
0.0525803
-0.0400277
0.031717
-0.0481358
0.00875026
-0.0532203
-0.0148097
-0.0546648
-0.0373779
-0.0522526
-0.0574909
-0.0463308
-0.0739391
-0.0375775
-0.0858245
-0.0267856
-0.0925643
-0.0147334
-0.0938667
-0.00212598
-0.0896996
0.010412
-0.0802531
0.0223069
-0.0659562
0.0329962
-0.0475241
0.0418974
-0.0259957
0.0484232
-0.00271852
0.0520547
0.0207491
0.0524495
0.0428238
0.0495651
0.0620973
0.0436878
0.0774557
0.0353068
0.0881115
0.0250016
0.0935746
0.0133578
0.093602
0.000937881
0.0881675
-0.0116929
0.0774957
-0.0239305
0.0620932
-0.0350938
0.0427759
-0.0444223
0.0206756
-0.0511196
-0.0544626
-0.0293755
-0.0277743
-0.0535732
-0.0255947
-0.0742
-0.0217646
-0.0900668
-0.0166805
-0.100365
-0.0107568
-0.104645
-0.0043781
-0.102779
0.00211581
-0.0949257
0.00841888
-0.08151
0.0142342
-0.0632351
0.0192709
-0.0411025
0.0232367
-0.0164058
0.0258561
0.009328
0.0269121
0.0344601
0.0262992
0.0574179
0.0240805
0.0768349
0.0204473
0.0916263
0.0156637
0.101008
0.010021
0.104482
0.00381164
0.101818
-0.00266907
0.0930663
-0.00911602
0.0785903
-0.015199
0.0591054
-0.0205429
0.0357062
-0.0247367
0.00985769
-0.0273717
-0.0166857
-0.0281214
-0.0420686
-0.0268698
-0.0645973
-0.0238021
-0.0828978
-0.0192769
-0.0959742
-0.0137092
-0.103205
-0.007503
-0.104309
-0.0010216
-0.0993128
0.00541575
-0.0885121
0.0115062
-0.0724737
0.0169578
-0.0520547
0.0214784
-0.028412
0.0247805
-0.002971
0.0266138
0.0226654
0.0268131
0.046873
0.0253576
0.0681749
0.0223859
0.085348
0.0181336
0.0974664
0.0128833
0.103898
0.0069263
0.104284
0.000552206
0.0985296
-0.00593886
0.0868368
-0.0122377
0.0697374
-0.0179944
0.0481297
-0.0228146
0.0232924
-0.0262823
-0.0280164
-0.0311144
-0.0567091
-0.0784736
-0.0951541
-0.105911
-0.110289
-0.108173
-0.0997543
-0.0855201
-0.0662492
-0.0430125
-0.0171564
0.00975563
0.0360549
0.0601354
0.0805827
0.0962464
0.106267
0.110079
0.10741
0.0982939
0.083095
0.0625521
0.0378154
0.0104437
-0.0176777
-0.0445475
-0.0683496
-0.0876265
-0.101336
-0.108839
-0.10986
-0.104445
-0.0929383
-0.0759805
-0.0545021
-0.0297216
-0.00310782
0.0237052
0.0490629
0.0714487
0.0895824
0.102466
0.109392
0.109944
0.104005
0.0917676
0.0737732
0.0509586
0.0246763
)
;

boundaryField
{
    top
    {
        type            calculated;
        value           nonuniform List<scalar> 
51
(
0
0
0
0
0
0
0
0
0
0
0
0
0
0
0
0
0
0
0
0
0
-8.67362e-19
0
0
0
0
-4.33681e-19
0
0
0
0
0
0
0
0
0
0
0
0
0
0
0
-1.73472e-18
0
0
0
0
0
0
0
0
)
;
    }
    bottom
    {
        type            calculated;
        value           uniform 0;
    }
    frontAndBack
    {
        type            empty;
        value           nonuniform 0();
    }
    left_cyc
    {
        type            cyclic;
        value           nonuniform List<scalar> 
15
(
-0.00259543
-0.00287789
-0.00272514
-0.00239348
-0.00193428
-0.00139313
-0.000798428
-0.000169948
0.000476338
0.00112308
0.00174746
0.00231927
0.00280136
0.00315376
0.00334012
)
;
    }
    right_cyc
    {
        type            cyclic;
        value           nonuniform List<scalar> 
15
(
0.00259543
0.00287789
0.00272514
0.00239348
0.00193428
0.00139313
0.000798428
0.000169948
-0.000476338
-0.00112308
-0.00174746
-0.00231927
-0.00280136
-0.00315376
-0.00334012
)
;
    }
}


// ************************************************************************* //
