/*--------------------------------*- C++ -*----------------------------------*\
| =========                 |                                                 |
| \\      /  F ield         | OpenFOAM: The Open Source CFD Toolbox           |
|  \\    /   O peration     | Version:  2.3.0                                 |
|   \\  /    A nd           | Web:      www.OpenFOAM.org                      |
|    \\/     M anipulation  |                                                 |
\*---------------------------------------------------------------------------*/
FoamFile
{
    version     2.0;
    format      ascii;
    class       volScalarField;
    location    "5000";
    object      T;
}
// * * * * * * * * * * * * * * * * * * * * * * * * * * * * * * * * * * * * * //

dimensions      [0 0 0 1 0 0 0];

internalField   nonuniform List<scalar> 
3060
(
34.169
34.1799
34.2
34.2287
34.2657
34.3104
34.3625
34.4215
34.4874
34.56
34.6395
34.726
34.8193
34.9184
35.0204
35.125
35.2324
35.342
35.4523
35.5611
35.6655
35.7619
35.8466
35.9152
35.9633
35.9868
35.9831
35.9525
35.8982
35.8245
35.7356
35.6357
35.5287
35.4178
35.3058
35.1949
35.0862
34.9801
34.8764
34.7772
34.6851
34.6008
34.5241
34.455
34.3935
34.3398
34.2942
34.2571
34.2289
34.2101
34.2011
34.2025
34.214
34.2353
34.2659
34.3052
34.353
34.4087
34.4722
34.5433
34.622
34.7084
34.8024
34.9033
35.0076
35.1143
35.2236
35.3349
35.4468
35.557
35.6625
35.7599
35.8453
35.9144
35.9629
35.9867
35.9832
35.9529
35.8991
35.8259
35.7377
35.6388
35.533
35.4235
35.3131
35.204
35.0973
34.9935
34.8924
34.7943
34.7027
34.6181
34.5404
34.4696
34.4055
34.3482
34.298
34.2553
34.2204
34.1939
34.1762
34.1677
29.6428
29.6733
29.7293
29.8095
29.9128
30.038
30.1841
30.3506
30.5371
30.7438
30.971
31.2192
31.4888
31.7795
32.0864
32.4001
32.7223
33.0511
33.382
33.7079
34.0203
34.3094
34.5636
34.7704
34.9162
34.9882
34.9768
34.8837
34.7195
34.4973
34.2305
33.9314
33.6109
33.2787
32.943
32.6102
32.2841
31.9655
31.6568
31.3698
31.1056
30.8643
30.6459
30.4501
30.2767
30.1259
29.9982
29.8945
29.8158
29.7632
29.7382
29.742
29.7743
29.8338
29.9191
30.0292
30.1629
30.3196
30.4989
30.7006
30.9249
31.1721
31.4423
31.735
32.0482
32.3682
32.6962
33.0302
33.3658
33.6958
34.0117
34.3036
34.5601
34.7684
34.9153
34.988
34.9771
34.8848
34.7218
34.5013
34.2368
33.9406
33.6237
33.2957
32.9646
32.637
32.3169
32.0056
31.7011
31.4162
31.1523
30.9097
30.6879
30.4865
30.3051
30.1439
30.0032
29.8837
29.7863
29.7122
29.6628
29.6392
25.4273
25.475
25.5626
25.6882
25.8499
26.0462
26.2758
26.5378
26.8318
27.158
27.5167
27.9084
28.3338
28.7927
29.2842
29.7944
30.3218
30.8617
31.4055
31.941
32.4543
32.9298
33.3492
33.6917
33.9347
34.0556
34.0365
33.8807
33.6078
33.2404
32.8008
32.309
31.7825
31.2367
30.6852
30.1395
29.6071
29.0906
28.6042
28.1519
27.7355
27.3552
27.0108
26.7022
26.4291
26.1921
25.9916
25.829
25.7057
25.6234
25.5842
25.5902
25.6408
25.7339
25.8676
26.0402
26.2503
26.4968
26.7791
27.097
27.4507
27.8404
28.2662
28.7276
29.2225
29.7437
30.2803
30.8285
31.3798
31.922
32.4411
32.9211
33.344
33.689
33.9335
34.0553
34.0368
33.8822
33.611
33.2462
32.8103
32.3233
31.8027
31.2636
30.7196
30.182
29.6581
29.1512
28.6691
28.2193
27.8029
27.4198
27.0697
26.752
26.4663
26.2127
25.9917
25.8043
25.6518
25.536
25.4586
25.4217
21.6727
21.7352
21.85
22.0146
22.2267
22.4841
22.7852
23.1289
23.5145
23.9419
24.4116
24.9242
25.4802
26.0799
26.7215
27.3998
28.1076
28.8377
29.5767
30.3066
31.0071
31.6561
32.2295
32.6994
33.0343
33.202
33.1757
32.9605
32.5852
32.0821
31.4816
30.8105
30.0925
29.3496
28.6019
27.8669
27.1569
26.4783
25.8421
25.2513
24.7071
24.2097
23.7588
23.3543
22.9962
22.6851
22.422
22.2086
22.0467
21.9388
21.8872
21.8951
21.9616
22.0838
22.2593
22.4858
22.7615
23.0849
23.4551
23.8717
24.3346
24.8442
25.4006
26.0033
26.6507
27.3383
28.056
28.7958
29.5442
30.2828
30.9908
31.6458
32.2237
32.6967
33.0334
33.2019
33.1759
32.9617
32.5884
32.0886
31.493
30.8283
30.1181
29.3839
28.6455
27.92
27.2193
26.5496
25.9189
25.3308
24.7862
24.2849
23.8263
23.4098
23.0351
22.7025
22.4126
22.1668
21.967
21.8151
21.7137
21.6653
18.4721
18.5472
18.6851
18.8827
19.1371
19.4455
19.8059
20.2165
20.6765
21.1855
21.744
22.3526
23.0126
23.7244
24.4875
25.2988
26.1531
27.0402
27.9436
28.8415
29.707
30.5103
31.2202
31.8028
32.2192
32.4286
32.396
32.1283
31.6626
31.0396
30.2966
29.4667
28.5811
27.6696
26.7583
25.8683
25.0149
24.2077
23.4524
22.7515
22.1057
21.5147
20.9782
20.4959
20.0681
19.6958
19.3805
19.1244
18.9299
18.8001
18.7381
18.7476
18.8275
18.9745
19.1852
19.457
19.7873
20.1742
20.6162
21.1126
21.6633
22.2684
22.9286
23.6438
24.4131
25.2329
26.097
26.9943
27.908
28.8155
29.6895
30.4998
31.2149
31.8008
32.2189
32.4287
32.3958
32.1288
31.6651
31.0458
30.3085
29.486
28.6092
27.7075
26.8064
25.9265
25.0825
24.2835
23.5337
22.8354
22.1889
21.5934
21.0479
20.5517
20.1045
19.7069
19.3599
19.0653
18.8255
18.6432
18.5213
18.4632
15.853
15.939
16.0967
16.3224
16.6124
16.9633
17.372
17.8364
18.355
18.9271
19.5532
20.2343
20.9721
21.7679
22.6226
23.5352
24.502
25.5107
26.5431
27.5745
28.5739
29.5053
30.3294
31.0052
31.4882
31.7313
31.6939
31.3839
30.8444
30.122
29.2602
28.2997
27.2795
26.235
25.1962
24.1868
23.2241
22.3194
21.4745
20.6909
19.9684
19.3062
18.7035
18.16
17.6765
17.2543
16.8957
16.6036
16.3814
16.2329
16.1619
16.1728
16.2642
16.4323
16.673
16.9827
17.3581
17.7965
18.2957
18.8546
19.4728
20.1506
20.889
21.6887
22.5497
23.47
24.446
25.4649
26.5076
27.5489
28.5572
29.4959
30.3254
31.0045
31.4888
31.7317
31.6932
31.3833
30.8456
30.1271
29.2711
28.3183
27.3073
26.273
25.2447
24.2455
23.2919
22.3945
21.555
20.7742
20.0513
19.3846
18.7726
18.2144
17.7099
17.2598
16.8659
16.5307
16.2571
16.0488
15.9094
15.8428
13.7853
13.8812
14.0569
14.3078
14.6293
15.0167
15.4662
15.9744
16.5391
17.1594
17.8355
18.5688
19.3615
20.216
21.1342
22.1201
23.1675
24.2638
25.3898
26.5191
27.6179
28.6458
29.5573
30.3042
30.8364
31.1036
31.0631
30.7227
30.1283
29.3302
28.3782
27.3201
26.2007
25.0593
23.9286
22.8338
21.7931
20.8187
19.9105
19.0682
18.2905
17.5756
16.9224
16.3309
15.8019
15.3379
14.942
14.6183
14.3714
14.206
14.127
14.139
14.241
14.428
14.6953
15.0382
15.4522
15.9334
16.4788
17.0864
17.7556
18.4868
19.2812
20.1407
21.0666
22.0587
23.1147
24.2208
25.3569
26.4959
27.6034
28.6384
29.555
30.3049
30.838
31.1043
31.0618
30.721
30.128
29.3335
28.3871
27.3366
26.2263
25.095
23.9746
22.8897
21.8578
20.8902
19.9877
19.1491
18.372
17.6537
16.9922
16.3863
15.8362
15.343
14.9094
14.5388
14.2353
14.0035
13.8482
13.7739
12.1995
12.3052
12.4987
12.7743
13.126
13.5477
14.0341
14.5805
15.1837
15.8419
16.5552
17.3252
18.1547
19.0475
20.0071
21.0401
22.1392
23.2919
24.4787
25.6721
26.8364
27.9283
28.898
29.692
30.2556
30.537
30.4947
30.1362
29.5065
28.6585
27.6467
26.5243
25.3399
24.1356
22.9455
21.7956
20.7046
19.6844
18.7345
17.8527
17.0361
16.2821
15.5893
14.9578
14.3895
13.8877
13.457
13.1032
12.8322
12.6503
12.5633
12.5766
12.6888
12.8944
13.1875
13.5619
14.0116
14.5311
15.1161
15.7636
16.4723
17.2424
18.0758
18.9752
19.9434
20.9827
22.0903
23.2526
24.4492
25.652
26.8246
27.9231
28.8975
29.6939
30.258
30.5379
30.4931
30.1336
29.5049
28.6599
27.6533
26.5381
25.3623
24.1677
22.9877
21.8477
20.7653
19.7519
18.809
17.9326
17.1188
16.3637
15.6648
15.0209
14.4322
13.9011
13.4311
13.0271
12.6947
12.4399
12.2688
12.1869
11.0067
11.123
11.3356
11.6375
12.021
12.4781
13.0015
13.5848
14.2232
14.9142
15.657
16.4535
17.3071
18.2229
19.2065
20.2646
21.3905
22.5722
23.7904
25.0172
26.216
27.3414
28.3409
29.158
29.7357
30.0222
29.9796
29.6142
28.9683
28.0956
27.0533
25.8974
24.6792
23.4421
22.2213
21.0427
19.9246
18.8781
17.9032
16.9956
16.151
15.3662
14.6395
13.9717
13.3656
12.8261
12.3598
11.9744
11.678
11.4785
11.383
11.3976
11.5207
11.7461
12.0664
12.4737
12.9597
13.5171
14.1396
14.8229
15.5647
16.3648
17.2254
18.1501
19.1432
20.2091
21.3444
22.536
23.764
24.9999
26.2065
27.338
28.3417
29.1608
29.7385
30.0233
29.9778
29.611
28.9657
28.0955
27.0579
25.9087
24.6986
23.4709
22.2601
21.0915
19.9825
18.9433
17.9779
17.0787
16.2404
15.4581
14.7288
14.0514
13.427
12.8588
12.3521
11.9134
11.5505
11.2711
11.083
10.9929
10.1159
10.2441
10.4783
10.8098
11.2288
11.725
12.2885
12.9109
13.5855
14.3081
15.0774
15.895
16.7648
17.6931
18.6873
19.7533
20.8856
22.0733
23.2977
24.5314
25.7372
26.8688
27.8727
28.6913
29.2675
29.5514
29.5094
29.1467
28.5018
27.6271
26.5802
25.4182
24.1933
22.9496
21.7223
20.5368
19.4102
18.3524
17.3644
16.4398
15.5734
14.7613
14.0021
13.2974
12.6515
12.0713
11.5659
11.1455
10.8206
10.6014
10.4964
10.5124
10.6478
10.8954
11.2461
11.6896
12.2154
12.8135
13.4752
14.1944
14.9674
15.7934
16.6744
17.6147
18.6197
19.6967
20.8401
22.0386
23.2732
24.5158
25.729
26.8663
27.874
28.6943
29.2703
29.5524
29.5076
29.1435
28.4989
27.6265
26.5838
25.4281
24.211
22.9766
21.7594
20.5847
19.4688
18.4208
17.4449
16.5325
15.6768
14.8721
14.115
13.4046
12.7432
12.1354
11.5885
11.1115
10.7143
10.4073
10.2
10.1008
9.44478
9.58651
9.84527
10.2105
10.67
11.2106
11.8195
12.4856
13.1998
13.9563
14.7526
15.5897
16.4719
17.4061
18.4013
19.4622
20.5851
21.7603
22.9704
24.1886
25.3781
26.4929
27.4798
28.2818
28.8437
29.1188
29.078
28.7257
28.0959
27.2381
26.2084
25.0633
23.8545
22.6259
21.4117
20.2365
19.1157
18.0578
17.0642
16.1274
15.2414
14.4019
13.6083
12.8633
12.1731
11.5473
10.9976
10.5374
10.1803
9.93866
9.82292
9.8405
9.98982
10.2626
10.6478
11.1325
11.7032
12.3469
13.0521
13.8102
14.6158
15.4671
16.3658
17.3166
18.3261
19.4012
20.5374
21.7248
22.9455
24.1728
25.3696
26.49
27.4805
28.2842
28.846
29.1196
29.0765
28.723
28.0936
27.238
26.2124
25.0732
23.8722
22.653
21.4498
20.2869
19.1793
18.1351
17.1568
16.237
15.3671
14.5409
13.755
13.0091
12.3067
11.6546
11.0623
10.5417
10.1055
9.76692
9.53779
9.42804
8.92505
9.08202
9.36848
9.77187
10.2771
10.8679
11.5282
12.2436
13.0027
13.7972
14.6232
15.4809
16.3745
17.3115
18.3013
19.348
20.4497
21.5983
22.7778
23.9625
25.117
26.1965
27.1492
27.9205
28.4582
28.7199
28.6809
28.3445
27.7405
26.9143
25.9191
24.8093
23.6349
22.4385
21.2527
20.1007
18.9963
17.946
16.951
16.0036
15.0973
14.2282
13.3962
12.606
11.8659
11.1886
10.589
10.0841
9.69058
9.42379
9.296
9.31538
9.48028
9.78135
10.2054
10.7365
11.3579
12.0529
12.807
13.6088
14.4506
15.3293
16.2458
17.2048
18.2138
19.2785
20.3962
21.5588
22.75
23.9444
25.1065
26.1916
27.1481
27.9214
28.4595
28.7204
28.6799
28.343
27.7398
26.916
25.9251
24.8214
23.655
22.4686
21.2951
20.1575
19.0696
18.0376
17.0624
16.1375
15.2538
14.4046
13.5866
12.8008
12.0522
11.3499
10.7063
10.1362
9.65605
9.2818
9.02806
8.90653
8.50372
8.6774
8.99433
9.43974
9.99549
10.6418
11.3592
12.1297
12.9389
13.7763
14.6361
15.5173
16.4235
17.3622
18.3429
19.3695
20.4418
21.5536
22.6904
23.8282
24.9332
25.963
26.8686
27.5988
28.1053
28.3505
28.3134
27.9969
27.4263
26.6425
25.6949
24.6343
23.5082
22.3567
21.2105
20.0909
19.0099
17.9722
16.9774
16.0189
15.09
14.1874
13.3125
12.4717
11.6762
10.9418
10.2871
9.73287
9.29939
9.00499
8.86402
8.88537
9.06733
9.39946
9.86622
10.4486
11.1259
11.8779
12.6865
13.537
14.4195
15.3289
16.265
17.2322
18.2379
19.287
20.3788
21.5069
22.657
23.8054
24.9186
25.9546
26.8645
27.5973
28.1052
28.3506
28.3132
27.9971
27.4281
26.6473
25.7045
24.6506
23.5332
22.3928
21.2606
20.158
19.0972
18.0828
17.1137
16.1842
15.285
14.4096
13.5554
12.7246
11.9243
11.166
10.4654
9.8408
9.31199
8.89848
8.6177
8.48327
8.1415
8.33301
8.68248
9.17283
9.78273
10.4888
11.2676
12.098
12.9622
13.847
14.7448
15.653
16.5743
17.5153
18.4853
19.4884
20.5264
21.5947
22.6806
23.7617
24.8068
25.7766
26.6259
27.3079
27.7788
28.0056
27.9704
27.6758
27.1436
26.4094
25.5185
24.5173
23.4494
22.3518
21.2524
20.1709
19.1174
18.0945
17.1002
16.1289
15.1743
14.2343
13.312
12.4159
11.5605
10.7645
10.0508
9.44374
8.96756
8.64372
8.48873
8.51216
8.7123
9.07758
9.59
10.2272
10.9646
11.778
12.6457
13.5497
14.4772
15.421
16.3795
17.3561
18.3576
19.3885
20.4499
21.5374
22.6386
23.7317
24.7861
25.763
26.6177
27.3034
27.7766
28.005
27.9713
27.6784
27.1487
26.4187
25.5334
24.5398
23.4819
22.3969
21.3137
20.2523
19.2233
18.2291
17.2672
16.3321
15.4148
14.5093
13.6145
12.7341
11.8773
11.0585
10.2965
9.61322
9.03232
8.57683
8.26717
8.119
7.81029
8.02026
8.40345
8.94035
9.60635
10.3744
11.2173
12.1104
13.0327
13.9686
14.9082
15.847
16.7861
17.7315
18.6904
19.6688
20.67
21.6914
22.722
23.7398
24.7177
25.6204
26.4074
27.0369
27.4706
27.6788
27.6454
27.3729
26.8807
26.2008
25.3725
24.4375
23.4346
22.3966
21.3474
20.3068
19.2824
18.2747
17.2801
16.2937
15.3105
14.3296
13.3562
12.4019
11.4835
10.6236
9.84862
9.18692
8.66653
8.31221
8.14269
8.16829
8.38725
8.78685
9.34654
10.0404
10.8402
11.7177
12.6473
13.608
14.5842
15.5659
16.5497
17.5375
18.5352
19.5471
20.5762
21.6203
22.6685
23.7002
24.689
25.6002
26.3938
27.0285
27.4661
27.6776
27.6473
27.3782
26.8902
26.2157
25.3945
24.4684
23.4771
22.4537
21.4232
20.4066
19.4113
18.4382
17.4832
16.5404
15.6019
14.6628
13.7236
12.7901
11.8736
10.9914
10.1655
9.42147
8.78662
8.28764
7.94806
7.78566
7.49037
7.71899
8.13605
8.7195
9.44149
10.2714
11.1786
12.1348
13.1163
14.1049
15.0889
16.0612
17.0208
17.9725
18.9218
19.8763
20.8401
21.8119
22.7825
23.7342
24.6426
25.4765
26.2002
26.777
27.1733
27.363
27.3313
27.0805
26.6283
26.0026
25.2378
24.3703
23.4341
22.458
21.4635
20.4656
19.4702
18.4768
17.4804
16.4767
15.4623
14.4381
13.4119
12.3982
11.4167
10.4928
9.65666
8.94043
8.37581
7.99083
7.80663
7.83443
8.07239
8.50646
9.1134
9.86391
10.7259
11.6675
12.6595
13.678
14.7051
15.7271
16.7386
17.7399
18.735
19.7287
20.7251
21.7231
22.7145
23.6827
24.6041
25.4483
26.1804
26.7641
27.1662
27.3611
27.3344
27.0889
26.6426
26.0241
25.2682
24.4116
23.4891
22.5304
21.5579
20.5876
19.6263
18.6735
17.724
16.7711
15.8086
14.8327
13.8468
12.8587
11.8818
10.9359
10.046
9.24128
8.55256
8.01005
7.64037
7.46358
7.168
7.41507
7.86509
8.49336
9.26889
10.1578
11.1263
12.1432
13.1821
14.222
15.2489
16.2541
17.2353
18.1947
19.1369
20.07
20.9989
21.9233
22.8363
23.7233
24.5634
25.3297
25.9913
26.5166
26.8766
27.0483
27.0181
26.7883
26.3746
25.8015
25.0986
24.2969
23.4258
22.5097
21.5669
20.609
19.6401
18.6586
17.6589
16.6366
15.5909
14.525
13.4485
12.3779
11.3358
10.3509
9.45646
8.68804
8.08075
7.6658
7.46694
7.49697
7.75378
8.2214
8.87381
9.67843
10.5997
11.6025
12.6545
13.7285
14.8036
15.8649
16.9047
17.9209
18.9153
19.8931
20.8593
21.814
22.7512
23.6577
24.5134
25.2924
25.9645
26.4988
26.8666
27.0456
27.0225
26.8
26.3944
25.8306
25.1387
24.3503
23.4956
22.5999
21.6829
20.7568
19.827
18.892
17.9461
16.9814
15.9939
14.9825
13.9513
12.9099
11.8746
10.8675
9.91665
9.05404
8.31375
7.72922
7.33014
7.13903
6.83284
7.0972
7.5774
8.24603
9.0693
10.0106
11.0336
12.105
13.1959
14.2836
15.3516
16.3897
17.3932
18.3621
19.3004
20.216
21.1144
21.996
22.8559
23.6825
24.4583
25.1607
25.7636
26.2402
26.5657
26.7202
26.6913
26.481
26.1036
25.5799
24.9349
24.1949
23.3844
22.5236
21.6276
20.7049
19.7584
18.7855
17.7804
16.7388
15.6622
14.5563
13.433
12.3107
11.2144
10.1752
9.22902
8.41406
7.76833
7.32592
7.11331
7.14548
7.41985
7.91805
8.61129
9.46406
10.438
11.4953
12.601
13.7257
14.846
15.9451
17.0131
18.0454
19.0413
20.0069
20.9472
21.8635
22.7515
23.6009
24.3953
25.113
25.729
26.2169
26.5526
26.7166
26.6971
26.4965
26.1295
25.6174
24.986
24.2621
23.471
22.6343
21.7678
20.8815
19.9789
19.058
18.1127
17.1347
16.1219
15.0753
14.0009
12.9105
11.8223
10.7605
9.75547
8.84142
8.05505
7.43255
7.0064
6.80174
6.47668
6.75571
7.26109
7.96297
8.8253
9.80944
10.8773
11.994
13.1292
14.2584
15.3634
16.4321
17.4576
18.4375
19.375
20.2779
21.1512
21.9963
22.8097
23.5823
24.2999
24.9442
25.4934
25.9253
26.2191
26.3576
26.3296
26.1371
25.7926
25.3136
24.721
24.0365
23.2799
22.4678
21.6119
20.7186
19.7893
18.8214
17.8091
16.7484
15.643
14.5013
13.3373
12.1711
11.0298
9.94616
8.95771
8.10473
7.42733
6.96203
6.73775
6.77177
7.06095
7.58457
8.31133
9.20342
10.2204
11.3224
12.473
13.6409
14.8008
15.9341
17.0285
18.0772
19.0771
20.0346
20.9544
21.8383
22.6837
23.4828
24.2223
24.885
25.4501
25.896
26.2025
26.3531
26.337
26.1567
25.8252
25.3605
24.7844
24.119
23.3854
22.601
21.7786
20.926
20.0453
19.134
18.1863
17.1943
16.157
15.078
13.9652
12.8324
11.6995
10.5924
9.54285
8.58678
7.76266
7.10878
6.65995
6.44376
6.09371
6.38355
6.90707
7.6325
8.52223
9.53643
10.6362
11.7856
12.9538
14.1152
15.2501
16.3446
17.3899
18.3808
19.3202
20.2147
21.0689
21.8845
22.6589
23.3854
24.0527
24.6461
25.148
25.5404
25.8058
25.9299
25.9025
25.7255
25.4096
24.9696
24.4226
23.7858
23.0753
22.3039
21.4806
20.6102
19.6933
18.7272
17.7071
16.6291
15.4997
14.3293
13.1339
11.9353
10.7616
9.64653
8.62858
7.749
7.04924
6.56747
6.33459
6.36999
6.67002
7.21182
7.96219
8.88174
9.92878
11.0626
12.2457
13.4458
14.6365
15.7974
16.9143
17.9777
18.9833
19.9363
20.841
21.6994
22.5099
23.2665
23.9593
24.5743
25.0952
25.5045
25.7855
25.9244
25.9116
25.7496
25.4495
25.0269
24.4994
23.8851
23.2011
22.4612
21.6755
20.8498
19.9853
19.0797
18.1275
17.122
16.0632
14.9571
13.8137
12.6485
11.4825
10.3428
9.26179
8.27625
7.42561
6.74942
6.28417
6.05941
5.6798
5.97549
6.5082
7.24496
8.14744
9.17559
10.2905
11.4565
12.6426
13.8228
14.9767
16.0889
17.1486
18.1485
19.0905
19.9798
20.8202
21.6128
22.3561
23.0448
23.6703
24.2208
24.6827
25.0411
25.2821
25.3936
25.3664
25.2023
24.9105
24.5032
23.9941
23.3968
22.7238
21.9849
21.1871
20.3338
19.4254
18.4597
17.4334
16.3431
15.1977
14.0096
12.7962
11.5804
10.3907
9.26099
8.2296
7.33782
6.6274
6.13732
5.89981
5.93599
6.24176
6.79258
7.55407
8.48616
9.54695
10.6957
11.8951
13.1127
14.3213
15.4996
16.6316
17.7057
18.7162
19.6669
20.561
21.4001
22.1831
22.9056
23.5601
24.1357
24.6197
24.9981
25.2577
25.387
25.3774
25.2312
24.9583
24.5715
24.0852
23.5138
22.8708
22.1672
21.4106
20.6055
19.7526
18.8499
17.8932
16.8772
15.803
14.6788
13.5163
12.3324
11.1489
9.99304
8.89719
7.89802
7.03495
6.3479
5.87418
5.64471
5.23214
5.52765
6.05884
6.79234
7.69006
8.71273
9.82249
10.9848
12.1693
13.3505
14.5078
15.6249
16.6896
17.6928
18.635
19.5197
20.3491
21.1239
21.8426
22.5012
23.0929
23.6085
24.0374
24.3678
24.5884
24.6891
24.6617
24.5079
24.2356
23.8548
23.3762
22.8105
22.1671
21.4539
20.6759
19.8361
18.9349
17.9715
16.9441
15.8506
14.7017
13.5115
12.2982
11.085
9.89986
8.77593
7.75046
6.86368
6.15661
5.66802
5.43067
5.4669
5.77225
6.32112
7.07879
8.00555
9.06033
10.2035
11.3988
12.6144
13.8235
15.0043
16.1396
17.2165
18.2276
19.175
20.0604
20.8843
21.6459
22.3416
22.9656
23.5096
23.9639
24.3174
24.5597
24.6813
24.6747
24.5419
24.2916
23.9345
23.4819
22.9454
22.3355
21.6607
20.927
20.1379
19.2942
18.3947
17.4367
16.4169
15.3376
14.2087
13.0435
11.8592
10.6779
9.52627
8.43578
7.44199
6.58335
5.8991
5.42648
5.19697
4.74887
5.03732
5.55474
6.26828
7.14114
8.13582
9.2165
10.3506
11.5095
12.6689
13.8088
14.9126
15.9675
16.963
17.8983
18.7744
19.5919
20.3504
21.0483
21.682
22.246
22.7333
23.1353
23.4428
23.6466
23.7383
23.7105
23.5648
23.3081
22.9485
22.4944
21.9541
21.3351
20.6433
19.883
19.057
18.1664
17.2117
16.1934
15.1113
13.9772
12.8059
11.6159
10.4296
9.27378
8.17975
7.18268
6.32068
5.63296
5.15708
4.92542
4.96085
5.25869
5.79305
6.52981
7.43067
8.45648
9.56972
10.7362
11.9257
13.1126
14.2755
15.397
16.4631
17.4655
18.4039
19.278
20.0872
20.83
21.5034
22.1026
22.6212
23.0516
23.3852
23.6137
23.7294
23.7255
23.6038
23.3721
23.0391
22.614
22.106
21.5231
20.8722
20.1583
19.3842
18.5514
17.6598
16.7087
15.6969
14.6283
13.5138
12.3672
11.2058
10.0509
8.92788
7.86637
6.89995
6.06504
5.39923
4.93863
4.71446
4.22902
4.50279
4.993
5.66827
6.49407
7.43567
8.46019
9.5379
10.6427
11.7524
12.8481
13.9144
14.9382
15.9087
16.8234
17.6807
18.4793
19.2177
19.8934
20.5031
21.0421
21.5044
21.8832
22.1712
22.3609
22.4449
22.4167
22.2777
22.0342
21.6928
21.2601
20.7428
20.1469
19.4774
18.7382
17.9322
17.0618
16.1291
15.1369
14.0873
12.9925
11.8672
10.7288
9.59837
8.50045
7.46361
6.51998
5.70461
5.05385
4.60303
4.38314
4.41683
4.69937
5.20541
5.90246
6.75464
7.72574
8.78135
9.89023
11.0248
12.1615
13.2802
14.3641
15.3993
16.377
17.2941
18.1481
18.9371
19.6585
20.3094
20.8853
21.3812
21.7908
22.1074
22.3243
22.435
22.4334
22.3212
22.1052
21.7928
21.3915
20.9086
20.3507
19.7233
19.0309
18.2766
17.4625
16.5899
15.6603
14.6751
13.6393
12.5641
11.4631
10.3529
9.25284
8.18638
7.18051
6.26587
5.47598
4.84574
4.40918
4.19629
3.67237
3.92344
4.37226
4.98994
5.74515
6.60682
7.54581
8.53598
9.5545
10.5818
11.6015
12.5994
13.5638
14.4845
15.357
16.1774
16.9425
17.6493
18.2946
18.8749
19.3857
19.8218
20.1774
20.4464
20.6225
20.6996
20.6713
20.5393
20.3092
19.9864
19.5767
19.0854
18.5178
17.8783
17.171
16.3993
15.5669
14.6773
13.7355
12.7471
11.7228
10.6761
9.62252
8.58072
7.57228
6.62224
5.75889
5.01331
4.41811
4.00535
3.80368
3.83462
4.09362
4.55678
5.19424
5.97354
6.86231
7.8301
8.84943
9.89617
10.9495
11.9918
13.0078
13.9848
14.9138
15.789
16.6061
17.3614
18.0515
18.6727
19.2209
19.6915
20.0791
20.3783
20.5834
20.6889
20.6893
20.5858
20.3849
20.0927
19.7155
19.2594
18.7301
18.1324
17.4706
16.7483
15.9685
15.134
14.2483
13.3154
12.3413
11.3366
10.3136
9.28691
8.27381
7.29468
6.37323
5.53645
4.81408
4.23749
3.83764
3.64229
3.07943
3.29969
3.69285
4.23344
4.89424
5.64856
6.47167
7.34158
8.23926
9.14851
10.0557
10.9492
11.8195
12.658
13.4586
14.2151
14.9229
15.5779
16.1761
16.7135
17.1857
17.5878
17.9149
18.1615
18.3224
18.3919
18.3645
18.2418
18.0286
17.73
17.3508
16.8957
16.3695
15.7764
15.1209
14.407
13.6393
12.8229
11.9643
11.0721
10.1549
9.22363
8.29136
7.37336
6.48759
5.65495
4.89928
4.24699
3.7261
3.36453
3.1876
3.21478
3.44191
3.84751
4.40531
5.08714
5.86528
6.71391
7.60995
8.53327
9.46664
10.3954
11.3072
12.1914
13.0397
13.844
14.5982
15.2973
15.937
16.5131
17.0213
17.4571
17.8158
18.0926
18.2827
18.3811
18.3828
18.2889
18.1052
17.8371
17.4899
17.069
16.5794
16.0257
15.4123
14.7431
14.0222
13.2536
12.4423
11.5949
10.7177
9.81963
8.91076
8.00314
7.11105
6.25141
5.44402
4.71163
4.07957
3.57485
3.22446
3.053
2.45138
2.63304
2.95689
3.40174
3.94527
4.56581
5.24352
5.96097
6.70322
7.45779
8.21435
8.96444
9.70122
10.4191
11.1106
11.7682
12.3863
12.9602
13.4855
13.9579
14.3731
14.7266
15.0139
15.2302
15.3708
15.4311
15.4061
15.2972
15.1089
14.8455
14.5111
14.1102
13.647
13.1258
12.5511
11.9274
11.2598
10.5541
9.81811
9.062
8.29169
7.51494
6.74131
5.98235
5.25196
4.5665
3.94493
3.40845
2.97984
2.68203
2.5361
2.55855
2.74581
3.07979
3.53869
4.09946
4.73962
5.43851
6.17784
6.9419
7.71745
8.49348
9.26096
10.0125
10.7413
11.4376
12.0943
12.7057
13.2669
13.7734
14.2208
14.6049
14.9212
15.1655
15.3335
15.421
15.4234
15.3416
15.1808
14.9456
14.6406
14.2706
13.84
13.3534
12.815
12.2291
11.6002
10.9331
10.2339
9.51058
8.76972
8.01719
7.26025
6.50781
5.77072
5.0621
4.39752
3.79507
3.27515
2.85973
2.57102
2.42954
1.78992
1.92599
2.16825
2.50065
2.90646
3.36957
3.87539
4.41124
4.96648
5.53237
6.10202
6.67022
7.23335
7.78942
8.33029
8.84834
9.33794
9.79447
10.2137
10.5918
10.9246
11.2082
11.4388
11.6124
11.7251
11.7732
11.7525
11.6644
11.5125
11.3003
11.0314
10.7096
10.3385
9.92213
9.46461
8.97023
8.44385
7.89127
7.3201
6.7413
6.15737
5.57237
4.99216
4.4245
3.87905
3.36753
2.9037
2.5032
2.18296
1.9602
1.8509
1.86773
2.00793
2.25767
2.60047
3.01905
3.49673
4.01836
4.57068
5.14254
5.72478
6.31018
6.89334
7.4707
8.03756
8.58381
9.10231
9.58752
10.0347
10.4397
10.7983
11.1068
11.3613
11.5581
11.6937
11.7647
11.7671
11.7018
11.5728
11.384
11.1392
10.8423
10.4973
10.1082
9.6788
9.21322
8.71572
8.19113
7.64551
7.08732
6.52249
5.95342
5.38412
4.82023
4.26912
3.73998
3.244
2.79436
2.4061
2.0956
1.87956
1.77354
1.09712
1.18179
1.33235
1.53864
1.79014
2.07678
2.38953
2.72062
3.06365
3.41354
3.76655
4.1203
4.47408
4.82932
5.17871
5.51581
5.83621
6.13637
6.41313
6.66346
6.88442
7.07312
7.22671
7.34243
7.4176
7.44956
7.43556
7.37652
7.27495
7.13332
6.95417
6.74019
6.49418
6.21909
5.918
5.59417
5.25129
4.89381
4.52791
4.16347
3.7996
3.43698
3.07825
2.72758
2.39062
2.07439
1.78735
1.53917
1.34045
1.20204
1.13404
1.14451
1.23172
1.38684
1.59948
1.85877
2.15431
2.47672
2.81792
3.17124
3.53144
3.89475
4.25903
4.62421
4.98828
5.3423
5.68055
5.99877
6.2934
6.56121
6.79916
7.00435
7.17398
7.30542
7.39615
7.44371
7.44551
7.40203
7.31604
7.19019
7.02717
6.82979
6.60088
6.34337
6.06021
5.75445
5.42933
5.08858
4.73705
4.38217
4.02824
3.67442
3.32187
2.97331
2.63283
2.30584
1.99909
1.7207
1.47999
1.28722
1.15291
1.08691
0.375006
0.404044
0.455591
0.526067
0.611759
0.709135
0.815038
0.926786
1.0422
1.15962
1.2779
1.39661
1.51639
1.64029
1.76401
1.88433
1.99939
2.10776
2.20814
2.29932
2.38007
2.44923
2.50565
2.54821
2.57589
2.58765
2.58249
2.56073
2.52335
2.47129
2.40558
2.32731
2.23762
2.13773
2.0289
1.91246
1.7899
1.66305
1.5347
1.41084
1.28862
1.16712
1.04677
0.928829
0.815131
0.708076
0.610582
0.526037
0.458164
0.410787
0.387477
0.391071
0.420954
0.474024
0.546606
0.634872
0.735169
0.844225
0.959256
1.07801
1.1988
1.32059
1.44325
1.56841
1.6965
1.82237
1.94346
2.05805
2.16468
2.26203
2.34886
2.42397
2.48623
2.53456
2.56796
2.58549
2.58617
2.57016
2.5385
2.49222
2.43238
2.36008
2.27649
2.1828
2.08021
1.96997
1.85339
1.732
1.60791
1.48523
1.36573
1.24706
1.12889
1.01184
0.897195
0.786735
0.682775
0.588124
0.506048
0.44015
0.394143
0.371503
)
;

boundaryField
{
    top
    {
        type            fixedValue;
        value           uniform 0;
    }
    bottom
    {
        type            fixedValue;
        value           uniform 36.5;
    }
    frontAndBack
    {
        type            empty;
    }
    left_cyc
    {
        type            cyclic;
    }
    right_cyc
    {
        type            cyclic;
    }
}


// ************************************************************************* //
