/*--------------------------------*- C++ -*----------------------------------*\
| =========                 |                                                 |
| \\      /  F ield         | OpenFOAM: The Open Source CFD Toolbox           |
|  \\    /   O peration     | Version:  2.3.0                                 |
|   \\  /    A nd           | Web:      www.OpenFOAM.org                      |
|    \\/     M anipulation  |                                                 |
\*---------------------------------------------------------------------------*/
FoamFile
{
    version     2.0;
    format      ascii;
    class       volScalarField;
    location    "5000";
    object      T;
}
// * * * * * * * * * * * * * * * * * * * * * * * * * * * * * * * * * * * * * //

dimensions      [0 0 0 1 0 0 0];

internalField   nonuniform List<scalar> 
765
(
31.4865
31.6098
31.8262
32.124
32.4936
32.9256
33.3999
33.8358
34.2603
34.6693
35.0365
35.3157
35.445
35.369
35.1248
34.7769
34.3762
33.9546
33.5208
33.0506
32.6042
32.2165
31.8988
31.6601
31.5116
31.4676
31.5399
31.7125
31.9722
32.3083
32.7116
33.1683
33.6277
34.0595
34.4783
34.8701
35.1979
35.4066
35.4314
35.2589
34.9528
34.5717
34.1569
33.7284
33.2805
32.8153
32.3978
32.0449
31.7659
31.5707
31.4719
23.1472
23.4402
23.9518
24.6539
25.5255
26.5495
27.7039
28.9425
30.1755
31.3515
32.3916
33.1831
33.5599
33.3363
32.6405
31.6578
30.5105
29.2913
28.0584
26.8558
25.789
24.8736
24.1246
23.561
23.2087
23.1037
23.276
23.6849
24.2976
25.0899
26.0436
27.1423
28.3611
29.5977
30.8054
31.9225
32.8473
33.446
33.5193
33.0209
32.1561
31.0732
29.8793
28.643
27.414
26.2879
25.2994
24.4674
23.8093
23.3476
23.1125
17.2369
17.6318
18.3178
19.2525
20.4066
21.7632
23.3121
25.0367
26.8583
28.6594
30.2639
31.4754
32.0504
31.7085
30.645
29.1297
27.3624
25.5313
23.7692
22.1667
20.755
19.5446
18.5494
17.7952
17.3209
17.1794
17.4118
17.9617
18.7802
19.8315
21.0932
22.5535
24.2025
25.9884
27.8169
29.5398
30.9624
31.8761
31.9883
31.2279
29.901
28.2301
26.4112
24.6062
22.9197
21.416
20.1077
19.005
18.1273
17.5072
17.1902
13.5152
13.9813
14.7845
15.8626
17.1723
18.6949
20.4345
22.4078
24.5548
26.7238
28.6901
30.1772
30.8693
30.4597
29.1588
27.2945
25.154
22.9797
20.9441
19.144
17.5636
16.1957
15.053
14.173
13.614
13.4472
13.7216
14.3688
15.3204
16.5227
17.9444
19.5794
21.4379
23.5191
25.7023
27.7976
29.5498
30.6621
30.796
29.8754
28.2426
26.2028
24.022
21.9069
19.992
18.3064
16.8354
15.5794
14.5629
13.8348
13.4602
11.3183
11.8583
12.7803
13.9916
15.4231
17.0443
18.8666
20.9349
23.1981
25.5035
27.6108
29.2032
29.9283
29.5021
28.1129
26.1118
23.8304
21.5325
19.3936
17.5142
15.8417
14.3577
13.0828
12.0775
11.4306
11.2383
11.5558
12.3035
13.3851
14.7174
16.2497
17.9732
19.9176
22.1037
24.4145
26.652
28.5329
29.7151
29.8535
28.8816
27.1302
24.948
22.6352
20.4101
18.4056
16.635
15.0596
13.6772
12.5283
11.6893
11.2553
10.0098
10.6418
11.7128
13.0899
14.6656
16.3848
18.253
20.3264
22.5635
24.8333
26.9042
28.458
29.1501
28.7459
27.3953
25.4305
23.1853
20.9187
18.7888
16.8711
15.1132
13.495
12.0566
10.8941
10.1375
9.91396
10.2846
11.158
12.4026
13.8939
15.5489
17.3443
19.3147
21.4846
23.7616
25.9628
27.8066
28.9503
29.0809
28.1465
26.4331
24.2873
22.0096
19.8063
17.7871
15.958
14.2721
12.7373
11.4226
10.4446
9.93684
9.14531
9.88747
11.1392
12.721
14.4797
16.3253
18.2422
20.2731
22.3983
24.5211
26.4383
27.8592
28.4796
28.1191
26.8888
25.0749
22.9813
20.84
18.777
16.8307
14.9642
13.1749
11.5333
10.1795
9.2911
9.0303
9.46421
10.4892
11.9329
13.6231
15.4353
17.3192
19.2929
21.379
23.5219
25.5693
27.2667
28.3037
28.4196
27.5772
26.0049
24.0136
21.8772
19.7726
17.7735
15.8758
14.0477
12.3209
10.8024
9.65646
9.0606
8.46216
9.32439
10.7716
12.5776
14.5433
16.5416
18.5262
20.4936
22.4636
24.3768
26.0733
27.3156
27.855
27.5413
26.4675
24.868
22.9917
21.0239
19.0511
17.0706
15.0705
13.0855
11.2203
9.65926
8.6277
8.32559
8.82919
10.0184
11.6784
13.5891
15.5838
17.5804
19.5541
21.5262
23.4812
25.3077
26.7997
27.7033
27.8043
27.0714
25.6933
23.9245
21.988
20.0189
18.0524
16.0628
14.0669
12.1249
10.3845
9.05659
8.36428
7.8166
8.79863
10.4289
12.4405
14.5979
16.7366
18.7703
20.6754
22.4929
24.196
25.6717
26.7393
27.2025
26.9322
26.0101
24.6243
22.9659
21.1693
19.2843
17.2837
15.1648
12.9979
10.9276
9.17424
8.0028
7.65592
8.23295
9.57986
11.4394
13.5531
15.7183
17.811
19.7754
21.6362
23.4045
25.0091
26.2975
27.073
27.1604
26.5315
25.345
23.7995
22.0628
20.2266
18.2978
16.2348
14.0809
11.9399
9.99533
8.49511
7.70402
7.10955
8.18062
9.93609
12.0847
14.374
16.617
18.6942
20.56
22.2611
23.7915
25.0789
25.9955
26.3927
26.1597
25.369
24.1663
22.6891
21.0267
19.2022
17.1798
14.9691
12.6751
10.4675
8.58422
7.31155
6.92844
7.56337
9.02193
11.0152
13.2657
15.5523
17.7233
19.6872
21.4673
23.0864
24.5044
25.6177
26.2823
26.3581
25.8195
24.7982
23.4419
21.8673
20.1308
18.2244
16.0976
13.8288
11.5524
9.47153
7.85159
6.98484
6.27332
7.3721
9.1546
11.3285
13.6466
15.9192
18.0086
19.8504
21.4763
22.8857
24.0339
24.835
25.1808
24.977
24.2871
23.2211
21.8731
20.2997
18.5125
16.4864
14.2479
11.924
9.69068
7.78127
6.48008
6.08253
6.7391
8.22632
10.2451
12.5225
14.8401
17.0361
18.9941
20.7238
22.2418
23.5251
24.5065
25.0855
25.1522
24.6837
23.7879
22.57
21.1071
19.4332
17.5413
15.3946
13.0949
10.7904
8.68432
7.03628
6.14354
5.2641
6.30275
7.97464
10.013
12.2003
14.3681
16.3847
18.1746
19.7363
21.0587
22.1087
22.8274
23.1359
22.9532
22.3356
21.3662
20.1102
18.6074
16.8739
14.9127
12.7704
10.572
8.47559
6.68605
5.45944
5.07998
5.70476
7.10372
8.99519
11.1359
13.3345
15.4426
17.3425
19.0162
20.458
21.6461
22.534
23.0514
23.1117
22.6939
21.8873
20.7669
19.3854
17.7699
15.9286
13.8638
11.6771
9.50754
7.53412
5.98655
5.1399
4.05259
4.92368
6.31644
8.01501
9.85306
11.7067
13.4801
15.1042
16.5346
17.7402
18.6866
19.3273
19.6013
19.4383
18.8885
18.0175
16.8754
15.4995
13.921
12.1795
10.3362
8.48202
6.73266
5.24281
4.21651
3.89566
4.42257
5.59079
7.16506
8.95444
10.8158
12.6413
14.3447
15.8739
17.1931
18.2705
19.0662
19.5264
19.5805
19.2095
18.4889
17.4758
16.2132
14.7335
13.0688
11.2688
9.40968
7.5924
5.94964
4.6593
3.94732
2.62102
3.21186
4.14862
5.28711
6.52508
7.79682
9.06526
10.2917
11.4001
12.3455
13.0902
13.5942
13.8098
13.6812
13.2486
12.5631
11.6663
10.5961
9.39465
8.12814
6.85315
5.60026
4.42736
3.42678
2.73243
2.51319
2.87239
3.6609
4.71676
5.91705
7.17903
8.45221
9.71226
10.8852
11.915
12.7622
13.3885
13.7507
13.7935
13.5017
12.9346
12.1376
11.1491
10.0069
8.75881
7.49009
6.22367
5.00312
3.90222
3.03307
2.54895
0.958824
1.1739
1.50887
1.90835
2.33746
2.78253
3.25609
3.76225
4.23859
4.65503
4.98829
5.2158
5.31346
5.25521
5.05966
4.752
4.35504
3.89177
3.38999
2.90141
2.45107
2.01704
1.60724
1.25126
0.999578
0.919024
1.05066
1.33516
1.70885
2.12642
2.5634
3.0174
3.51962
4.01533
4.46416
4.84078
5.12256
5.28648
5.3059
5.17376
4.91817
4.56253
4.1292
3.64174
3.13222
2.67212
2.23243
1.80907
1.4213
1.10914
0.932289
)
;

boundaryField
{
    top
    {
        type            fixedValue;
        value           uniform 0;
    }
    bottom
    {
        type            fixedValue;
        value           uniform 36.5;
    }
    frontAndBack
    {
        type            empty;
    }
    left_cyc
    {
        type            cyclic;
    }
    right_cyc
    {
        type            cyclic;
    }
}


// ************************************************************************* //
