/*--------------------------------*- C++ -*----------------------------------*\
| =========                 |                                                 |
| \\      /  F ield         | OpenFOAM: The Open Source CFD Toolbox           |
|  \\    /   O peration     | Version:  2.3.0                                 |
|   \\  /    A nd           | Web:      www.OpenFOAM.org                      |
|    \\/     M anipulation  |                                                 |
\*---------------------------------------------------------------------------*/
FoamFile
{
    version     2.0;
    format      ascii;
    class       volScalarField;
    location    "5000";
    object      T;
}
// * * * * * * * * * * * * * * * * * * * * * * * * * * * * * * * * * * * * * //

dimensions      [0 0 0 1 0 0 0];

internalField   nonuniform List<scalar> 
765
(
40.0024
40.0799
40.0446
39.9501
39.8757
39.9257
40.1846
40.466
40.8471
41.3529
41.6125
41.1222
40.633
40.2787
39.9897
39.7988
39.8038
39.9062
40.0085
40.0407
39.956
39.7785
39.5432
39.2527
38.8974
38.4593
37.913
37.2278
36.3725
35.3234
34.0632
32.5309
31.016
29.8762
29.0321
28.5808
28.4918
28.8527
29.6892
30.8745
32.49
34.0636
35.3473
36.407
37.2654
37.9513
38.4986
38.9385
39.2961
39.5888
39.8255
33.0572
33.2627
33.3528
33.3726
33.4089
33.5874
34.0028
34.8202
36.1701
37.9482
38.8511
37.2212
35.5216
34.3552
33.6973
33.3294
33.2193
33.2188
33.2116
33.1221
32.9144
32.5468
32.0485
31.4522
30.7642
29.9766
29.0679
27.9947
26.6824
25.0219
22.9797
20.9536
19.3316
17.9942
16.9257
16.2695
16.2203
16.8644
17.9781
19.3885
21.0981
23.1632
25.1689
26.8108
28.1129
29.186
30.1008
30.8964
31.5918
32.1932
32.6932
28.1951
28.5281
28.7867
28.9984
29.2153
29.5284
30.0921
31.2721
33.2535
35.8481
37.1559
34.8167
32.3173
30.5947
29.6344
29.199
28.9386
28.741
28.5332
28.2713
27.9324
27.5116
26.9764
26.3284
25.5887
24.7595
23.8424
22.8291
21.6965
20.4291
19.0087
17.4302
15.798
14.2369
12.9276
12.1152
12.0865
12.9341
14.3351
16.0163
17.7614
19.3972
20.8163
22.0374
23.1377
24.133
25.0422
25.8665
26.6035
27.2484
27.7801
26.118
26.4931
26.8359
27.1482
27.4404
27.7657
28.3429
29.5562
31.7108
34.6272
36.1034
33.4877
30.6911
28.854
27.8844
27.4446
27.1431
26.8454
26.5216
26.1666
25.779
25.3585
24.9052
24.4199
23.9019
23.3587
22.7746
22.1104
21.3056
20.2778
18.9377
17.2633
15.3651
13.4319
11.7679
10.7347
10.6961
11.7557
13.5192
15.5969
17.6427
19.4144
20.7873
21.8059
22.5845
23.2186
23.7753
24.2986
24.8006
25.2723
25.7107
26.1163
26.4436
26.7664
27.0609
27.3065
27.5402
27.9825
29.0144
31.0706
33.9873
35.4636
32.8698
30.0863
28.3888
27.6074
27.2725
27.0484
26.7789
26.4595
26.1167
25.773
25.4408
25.1244
24.8219
24.5242
24.2112
23.8426
23.3531
22.6492
21.6149
20.1349
18.1736
15.8779
13.494
11.4187
10.1298
10.067
11.339
13.4907
16.0173
18.4753
20.5614
22.1019
23.1507
23.8428
24.3086
24.6503
24.9383
25.2145
25.4989
25.7993
27.0277
27.292
27.5506
27.7636
27.9005
28.0151
28.2669
29.096
30.9813
33.7232
35.0893
32.705
30.0772
28.5568
27.9804
27.8171
27.7103
27.5412
27.2947
27.0099
26.7261
26.4676
26.244
26.0516
25.8735
25.6758
25.4016
24.966
24.2559
23.1404
21.4933
19.2494
16.5586
13.7254
11.2388
9.69013
9.59894
11.0701
13.5933
16.5533
19.4097
21.7971
23.5292
24.6804
25.3941
25.816
26.0692
26.2449
26.4029
26.5778
26.7855
28.146
28.3504
28.5269
28.6363
28.6617
28.6698
28.8417
29.5854
31.2511
33.6228
34.8156
32.7721
30.4858
29.1187
28.6035
28.539
28.5321
28.4801
28.3371
28.1315
27.9048
27.69
27.5054
27.353
27.2171
27.0589
26.8111
26.3738
25.6207
24.414
22.6223
20.1564
17.1361
13.9059
11.0451
9.24897
9.1305
10.783
13.6355
16.9737
20.1638
22.7864
24.6801
25.9398
26.7119
27.147
27.3817
27.523
27.6423
27.7792
27.9486
29.1665
29.3058
29.4006
29.4401
29.4528
29.4655
29.6664
30.321
31.6722
33.568
34.5787
32.9081
31.0786
29.9421
29.4545
29.3387
29.3366
29.3237
29.2658
29.1479
28.9867
28.8082
28.6342
28.4747
28.3219
28.1417
27.8643
27.3824
26.5644
25.2753
23.3799
20.7694
17.5069
13.9606
10.7868
8.76174
8.61886
10.4389
13.5622
17.1995
20.6377
23.4101
25.4157
26.7707
27.623
28.1169
28.392
28.5626
28.7028
28.8484
29.0066
29.9644
30.0743
30.1548
30.2111
30.2496
30.326
30.5567
31.1063
32.1325
33.548
34.3698
33.073
31.7035
30.8163
30.3756
30.2044
30.1491
30.107
30.0433
29.9511
29.8271
29.676
29.5055
29.3192
29.1097
28.8477
28.4719
27.8865
26.9754
25.6185
23.6762
20.9891
17.5581
13.8045
10.4243
8.21273
8.02503
9.98313
13.292
17.124
20.7406
23.6056
25.6678
27.0988
28.0528
28.6586
29.0391
29.2964
29.4964
29.6706
29.8276
30.5075
30.6569
30.7818
30.8874
30.9915
31.1313
31.3734
31.816
32.5552
33.5468
34.1791
33.2318
32.2643
31.6051
31.2255
31.0185
30.8928
30.7897
30.6792
30.5469
30.3888
30.2044
29.992
29.7454
29.4494
29.0719
28.5566
27.8232
26.7815
25.3383
23.3526
20.6143
17.1061
13.3078
9.86217
7.54873
7.32227
9.35565
12.7214
16.5899
20.2852
23.2106
25.3213
26.8423
27.9317
28.6915
29.2179
29.5968
29.8888
30.1287
30.3323
30.5326
30.7897
31.0244
31.242
31.4525
31.6753
31.9461
32.3185
32.8462
33.5091
33.9637
33.3155
32.6559
32.1639
31.8196
31.5628
31.3436
31.1309
30.9085
30.6685
30.4062
30.1182
29.8005
29.4382
29.0098
28.4812
27.8005
26.9031
25.7262
24.2062
22.1954
19.45
16.0207
12.3778
9.0396
6.73557
6.48769
8.50992
11.775
15.4868
19.0789
22.0048
24.1458
25.7451
26.972
27.9002
28.5982
29.136
29.5697
29.9354
30.2494
29.4314
29.8771
30.2962
30.6946
31.0776
31.4519
31.8294
32.2297
32.6731
33.144
33.4575
33.0214
32.532
32.0905
31.6917
31.3124
30.9346
30.5483
30.1479
29.7284
29.2836
28.8077
28.2977
27.7586
27.1601
26.4666
25.6372
24.621
23.3694
21.8334
19.8694
17.2864
14.1914
10.9202
7.88445
5.73525
5.48996
7.38227
10.3599
13.6911
16.9133
19.6609
21.7591
23.3756
24.6769
25.7245
26.5742
27.2823
27.8942
28.4398
28.9533
26.0819
26.7463
27.3794
27.9899
28.5843
29.1647
29.7294
30.2725
30.7817
31.2209
31.4569
31.114
30.6307
30.0987
29.5426
28.9715
28.3899
27.799
27.1952
26.5712
25.9173
25.2264
24.5013
23.755
23.0077
22.211
21.3343
20.3472
19.1984
17.814
16.0991
13.9693
11.4675
8.8084
6.30882
4.50177
4.28878
5.8899
8.35217
11.0671
13.6765
15.9377
17.7642
19.2227
20.4157
21.4295
22.3253
23.1396
23.89
24.642
25.3794
19.1713
19.8931
20.5912
21.2709
21.9353
22.5833
23.2077
23.7942
24.3161
24.7216
24.8943
24.6214
24.159
23.6065
23.0056
22.3775
21.7336
21.0784
20.4115
19.7283
19.0219
18.2876
17.5317
16.7706
16.0159
15.2952
14.5814
13.8229
12.9848
12.0068
10.8163
9.37117
7.70131
5.92645
4.23879
2.99374
2.8451
3.95888
5.6339
7.45669
9.20555
10.7411
12.0086
13.0374
13.9036
14.6757
15.3947
16.1147
16.8781
17.6513
18.4218
7.70363
8.1017
8.4955
8.88613
9.27276
9.65112
10.0124
10.3425
10.6205
10.8175
10.8883
10.7655
10.5317
10.2302
9.88724
9.52119
9.14405
8.76267
8.37972
7.99479
7.60583
7.21256
6.82101
6.4391
6.06697
5.70601
5.36471
5.04777
4.7279
4.37838
3.9726
3.49077
2.92745
2.30315
1.6775
1.19335
1.13526
1.57613
2.2085
2.86098
3.45841
3.97241
4.40336
4.7698
5.10023
5.42378
5.76961
6.1341
6.5116
6.90095
7.30136
)
;

boundaryField
{
    top
    {
        type            fixedValue;
        value           uniform 0;
    }
    bottom
    {
        type            fixedValue;
        value           uniform 43.8;
    }
    frontAndBack
    {
        type            empty;
    }
    left_cyc
    {
        type            cyclic;
    }
    right_cyc
    {
        type            cyclic;
    }
}


// ************************************************************************* //
