/*--------------------------------*- C++ -*----------------------------------*\
| =========                 |                                                 |
| \\      /  F ield         | OpenFOAM: The Open Source CFD Toolbox           |
|  \\    /   O peration     | Version:  2.3.0                                 |
|   \\  /    A nd           | Web:      www.OpenFOAM.org                      |
|    \\/     M anipulation  |                                                 |
\*---------------------------------------------------------------------------*/
FoamFile
{
    version     2.0;
    format      ascii;
    class       volVectorField;
    location    "5000";
    object      U;
}
// * * * * * * * * * * * * * * * * * * * * * * * * * * * * * * * * * * * * * //

dimensions      [0 1 -1 0 0 0 0];

internalField   nonuniform List<vector> 
765
(
(-0.000906115 0 68.6626)
(50.7563 0 20.5581)
(7.16775 0 6.23842)
(1.03492 0 2.91917)
(-4.76811 0 1.40639)
(-7.83008 0 0.949316)
(-10.5842 0 0.837738)
(-12.9346 0 0.804729)
(-14.7882 0 0.755403)
(-16.0682 0 0.662835)
(-16.8741 0 0.531774)
(-17.3346 0 0.368434)
(-17.537 0 0.202033)
(-17.5492 0 0.0647709)
(-17.4265 0 -0.0441035)
(-17.177 0 -0.14482)
(-16.7813 0 -0.256115)
(-16.2028 0 -0.389723)
(-15.3957 0 -0.550552)
(-14.313 0 -0.736693)
(-12.9159 0 -0.939315)
(-11.1829 0 -1.14334)
(-9.11741 0 -1.32995)
(-6.75314 0 -1.48113)
(-4.15256 0 -1.58473)
(-1.40119 0 -1.63658)
(1.40185 0 -1.63664)
(4.15324 0 -1.58487)
(6.75385 0 -1.48127)
(9.11814 0 -1.33002)
(11.1836 0 -1.14334)
(12.9165 0 -0.939289)
(14.3134 0 -0.736721)
(15.396 0 -0.55066)
(16.2032 0 -0.389869)
(16.7818 0 -0.256245)
(17.1775 0 -0.144925)
(17.427 0 -0.0441966)
(17.5496 0 0.0647307)
(17.5373 0 0.202131)
(17.335 0 0.368648)
(16.8744 0 0.531914)
(16.0682 0 0.662794)
(14.7879 0 0.755356)
(12.9342 0 0.804776)
(10.5837 0 0.837559)
(7.82924 0 0.948862)
(4.7671 0 1.40622)
(-1.03577 0 2.91879)
(-7.16919 0 6.23782)
(-50.7583 0 20.5578)
(-0.00155038 0 97.5465)
(19.0934 0 38.4892)
(0.536641 0 21.7)
(-5.16044 0 11.2353)
(-11.3811 0 6.76548)
(-15.7192 0 5.03469)
(-19.4664 0 4.30202)
(-22.1522 0 3.42176)
(-23.6618 0 2.26166)
(-24.2745 0 1.23227)
(-24.2926 0 0.517256)
(-23.9921 0 0.0889677)
(-23.5679 0 -0.153387)
(-23.0924 0 -0.314248)
(-22.5566 0 -0.467166)
(-21.9247 0 -0.653454)
(-21.1497 0 -0.896766)
(-20.1798 0 -1.21033)
(-18.9632 0 -1.5973)
(-17.4528 0 -2.04958)
(-15.6127 0 -2.54683)
(-13.4235 0 -3.05716)
(-10.889 0 -3.53995)
(-8.0398 0 -3.95147)
(-4.93581 0 -4.25167)
(-1.6645 0 -4.41026)
(1.66537 0 -4.41031)
(4.93675 0 -4.2518)
(8.04081 0 -3.95163)
(10.89 0 -3.5401)
(13.4245 0 -3.0573)
(15.6135 0 -2.54699)
(17.4534 0 -2.04978)
(18.9637 0 -1.59754)
(20.1803 0 -1.21055)
(21.1503 0 -0.896947)
(21.9253 0 -0.653588)
(22.5571 0 -0.467252)
(23.0929 0 -0.314251)
(23.5683 0 -0.153257)
(23.9924 0 0.0891984)
(24.2926 0 0.517444)
(24.2742 0 1.23237)
(23.6614 0 2.26191)
(22.1515 0 3.42207)
(19.4652 0 4.3018)
(15.7175 0 5.03417)
(11.379 0 6.76563)
(5.15786 0 11.2352)
(-0.539781 0 21.6999)
(-19.0969 0 38.4898)
(-0.00285115 0 59.2757)
(8.95358 0 37.7789)
(-1.20611 0 26.7911)
(-6.94657 0 17.2051)
(-12.9668 0 11.8496)
(-17.2985 0 9.18398)
(-20.3606 0 7.19443)
(-22.0576 0 5.0016)
(-23.0215 0 3.05312)
(-23.5764 0 1.5455)
(-23.8347 0 0.512873)
(-23.857 0 -0.124311)
(-23.69 0 -0.508964)
(-23.3666 0 -0.784413)
(-22.9002 0 -1.05404)
(-22.2829 0 -1.38123)
(-21.4884 0 -1.80329)
(-20.4797 0 -2.33925)
(-19.2158 0 -2.99187)
(-17.6576 0 -3.74693)
(-15.774 0 -4.57227)
(-13.5482 0 -5.41832)
(-10.983 0 -6.2215)
(-8.10673 0 -6.91106)
(-4.97648 0 -7.41869)
(-1.67819 0 -7.68897)
(1.67919 0 -7.68901)
(4.97753 0 -7.41882)
(8.10784 0 -6.91124)
(10.9841 0 -6.22171)
(13.5492 0 -5.41855)
(15.7749 0 -4.57253)
(17.6583 0 -3.74721)
(19.2165 0 -2.99214)
(20.4804 0 -2.33946)
(21.489 0 -1.80344)
(22.2834 0 -1.38135)
(22.9007 0 -1.0541)
(23.367 0 -0.784371)
(23.6904 0 -0.50881)
(23.8572 0 -0.124106)
(23.8345 0 0.51307)
(23.5761 0 1.54576)
(23.021 0 3.05352)
(22.0568 0 5.002)
(20.3594 0 7.19458)
(17.2972 0 9.18402)
(12.9646 0 11.8497)
(6.94332 0 17.2058)
(1.20277 0 26.7918)
(-8.95836 0 37.7795)
(-0.00233257 0 53.6415)
(2.82798 0 42.5472)
(-3.04585 0 33.0576)
(-7.62996 0 23.149)
(-12.3446 0 16.4925)
(-15.6272 0 12.447)
(-17.6498 0 9.12582)
(-19.0167 0 6.14347)
(-20.0179 0 3.76508)
(-20.7422 0 2.0022)
(-21.2446 0 0.759716)
(-21.533 0 -0.079739)
(-21.613 0 -0.655948)
(-21.4972 0 -1.10877)
(-21.1974 0 -1.55168)
(-20.714 0 -2.06456)
(-20.0333 0 -2.69873)
(-19.1308 0 -3.48162)
(-17.9757 0 -4.41825)
(-16.5368 0 -5.49048)
(-14.7875 0 -6.65598)
(-12.7128 0 -7.84872)
(-10.3146 0 -8.98257)
(-7.61887 0 -9.95944)
(-4.67939 0 -10.6816)
(-1.57838 0 -11.0673)
(1.57942 0 -11.0674)
(4.68049 0 -10.6817)
(7.62003 0 -9.95961)
(10.3158 0 -8.98277)
(12.7138 0 -7.84892)
(14.7885 0 -6.65619)
(16.5375 0 -5.49068)
(17.9764 0 -4.41843)
(19.1314 0 -3.48176)
(20.034 0 -2.69883)
(20.7145 0 -2.06463)
(21.1979 0 -1.55169)
(21.4976 0 -1.10868)
(21.6132 0 -0.655778)
(21.5329 0 -0.0795248)
(21.2443 0 0.759995)
(20.7418 0 2.00263)
(20.0173 0 3.76564)
(19.0158 0 6.14406)
(17.6487 0 9.1265)
(15.6259 0 12.4474)
(12.3425 0 16.493)
(7.62691 0 23.1502)
(3.04165 0 33.0588)
(-2.83274 0 42.5476)
(-0.00240354 0 50.9509)
(0.644446 0 44.7717)
(-2.77397 0 36.6602)
(-6.06185 0 27.1627)
(-9.50293 0 19.7434)
(-11.7547 0 14.6487)
(-13.3055 0 10.6055)
(-14.5727 0 7.2991)
(-15.6257 0 4.7024)
(-16.4832 0 2.72676)
(-17.1568 0 1.27172)
(-17.6378 0 0.219441)
(-17.9201 0 -0.564801)
(-18.0056 0 -1.21653)
(-17.9003 0 -1.85228)
(-17.6058 0 -2.5614)
(-17.1151 0 -3.40579)
(-16.4125 0 -4.4211)
(-15.4761 0 -5.61648)
(-14.2816 0 -6.97307)
(-12.807 0 -8.44218)
(-11.0383 0 -9.94509)
(-8.97616 0 -11.3765)
(-6.64241 0 -12.6136)
(-4.08495 0 -13.531)
(-1.37877 0 -14.0221)
(1.37979 0 -14.0221)
(4.08605 0 -13.5311)
(6.64359 0 -12.6138)
(8.97735 0 -11.3767)
(11.0394 0 -9.94525)
(12.8079 0 -8.44233)
(14.2824 0 -6.97319)
(15.4768 0 -5.61656)
(16.4131 0 -4.42115)
(17.1156 0 -3.40584)
(17.6063 0 -2.56143)
(17.9007 0 -1.85226)
(18.0059 0 -1.21643)
(17.9202 0 -0.564648)
(17.6376 0 0.219634)
(17.1565 0 1.27202)
(16.4828 0 2.72724)
(15.625 0 4.70293)
(14.5718 0 7.29975)
(13.3044 0 10.6067)
(11.7533 0 14.6498)
(9.50113 0 19.7448)
(6.05897 0 27.1645)
(2.77027 0 36.6623)
(-0.649018 0 44.7735)
(-0.00252019 0 50.4015)
(0.497445 0 46.3466)
(-1.00272 0 39.0662)
(-2.90528 0 29.9476)
(-5.16466 0 22.0476)
(-6.77126 0 16.2971)
(-8.02992 0 11.9354)
(-9.19143 0 8.44423)
(-10.2395 0 5.68342)
(-11.1576 0 3.54675)
(-11.937 0 1.92204)
(-12.5575 0 0.687412)
(-13.0053 0 -0.286403)
(-13.2755 0 -1.12747)
(-13.3697 0 -1.95017)
(-13.2898 0 -2.84779)
(-13.0334 0 -3.889)
(-12.5918 0 -5.11609)
(-11.9507 0 -6.5428)
(-11.0926 0 -8.15125)
(-9.9999 0 -9.88889)
(-8.66009 0 -11.6672)
(-7.07177 0 -13.3645)
(-5.25112 0 -14.8357)
(-3.23728 0 -15.9297)
(-1.09402 0 -16.5163)
(1.09499 0 -16.5163)
(3.23834 0 -15.9297)
(5.25227 0 -14.8357)
(7.07293 0 -13.3646)
(8.66116 0 -11.6673)
(10.0008 0 -9.88896)
(11.0934 0 -8.15128)
(11.9514 0 -6.5428)
(12.5924 0 -5.11607)
(13.0339 0 -3.88898)
(13.2902 0 -2.84775)
(13.37 0 -1.95007)
(13.2757 0 -1.12729)
(13.0053 0 -0.286162)
(12.5572 0 0.687738)
(11.9366 0 1.92255)
(11.157 0 3.54746)
(10.2386 0 5.68421)
(9.19073 0 8.44511)
(8.02897 0 11.9364)
(6.76965 0 16.2985)
(5.16274 0 22.0495)
(2.90281 0 29.9502)
(0.999766 0 39.0685)
(-0.50158 0 46.3477)
(-0.00134098 0 49.3449)
(1.44333 0 46.3731)
(1.69508 0 39.884)
(1.18702 0 31.4305)
(-0.0267618 0 23.5646)
(-1.18842 0 17.5523)
(-2.20089 0 13.0599)
(-3.19969 0 9.50208)
(-4.19004 0 6.6637)
(-5.11274 0 4.42373)
(-5.94318 0 2.67083)
(-6.65362 0 1.28743)
(-7.22599 0 0.152745)
(-7.65196 0 -0.852759)
(-7.93125 0 -1.83862)
(-8.06681 0 -2.89849)
(-8.06043 0 -4.1048)
(-7.91008 0 -5.50488)
(-7.60917 0 -7.11692)
(-7.14726 0 -8.92538)
(-6.51218 0 -10.8765)
(-5.69366 0 -12.8754)
(-4.68823 0 -14.7882)
(-3.5051 0 -16.4514)
(-2.17157 0 -17.692)
(-0.735731 0 -18.3585)
(0.73662 0 -18.3585)
(2.17254 0 -17.692)
(3.50616 0 -16.4514)
(4.68931 0 -14.7882)
(5.69465 0 -12.8754)
(6.51304 0 -10.8765)
(7.14798 0 -8.92537)
(7.60979 0 -7.11687)
(7.91058 0 -5.50481)
(8.06083 0 -4.1047)
(8.06715 0 -2.89833)
(7.93154 0 -1.83838)
(7.65209 0 -0.852441)
(7.22586 0 0.153105)
(6.65333 0 1.28788)
(5.94281 0 2.67143)
(5.11212 0 4.4244)
(4.18905 0 6.66449)
(3.19852 0 9.50324)
(2.19979 0 13.0608)
(1.18721 0 17.5538)
(0.0249513 0 23.5668)
(-1.1895 0 31.4334)
(-1.69825 0 39.8864)
(-1.44651 0 46.3741)
(-0.000971935 0 47.1851)
(2.78687 0 44.855)
(4.66491 0 39.2132)
(5.52458 0 31.7117)
(5.35709 0 24.3859)
(4.6735 0 18.4704)
(3.88943 0 13.9717)
(3.08838 0 10.4307)
(2.20399 0 7.58754)
(1.32603 0 5.29898)
(0.49622 0 3.46225)
(-0.25442 0 1.96967)
(-0.906107 0 0.711281)
(-1.45002 0 -0.422925)
(-1.88611 0 -1.536)
(-2.21958 0 -2.71917)
(-2.45708 0 -4.04613)
(-2.60361 0 -5.56751)
(-2.66088 0 -7.30547)
(-2.62679 0 -9.24774)
(-2.49602 0 -11.3417)
(-2.26184 0 -13.4901)
(-1.91937 0 -15.5521)
(-1.47003 0 -17.3514)
(-0.926563 0 -18.6983)
(-0.316687 0 -19.4238)
(0.317472 0 -19.4238)
(0.927418 0 -18.6982)
(1.47095 0 -17.3513)
(1.92029 0 -15.552)
(2.26268 0 -13.4901)
(2.49675 0 -11.3417)
(2.62741 0 -9.24771)
(2.6614 0 -7.30539)
(2.60402 0 -5.56736)
(2.4574 0 -4.04591)
(2.21985 0 -2.71886)
(1.8863 0 -1.53561)
(1.45 0 -0.422512)
(0.905804 0 0.711675)
(0.253953 0 1.97012)
(-0.496838 0 3.4628)
(-1.32689 0 5.29954)
(-2.20478 0 7.5882)
(-3.08933 0 10.4317)
(-3.89061 0 13.973)
(-4.6747 0 18.472)
(-5.35881 0 24.3882)
(-5.52668 0 31.7144)
(-4.6673 0 39.2159)
(-2.78914 0 44.8574)
(-0.0011786 0 43.6572)
(4.13844 0 41.8129)
(7.45964 0 37.114)
(9.6122 0 30.7914)
(10.5194 0 24.4173)
(10.5212 0 18.9972)
(10.0247 0 14.6685)
(9.40581 0 11.2167)
(8.66671 0 8.4191)
(7.86959 0 6.12999)
(7.084 0 4.25183)
(6.33978 0 2.69078)
(5.65476 0 1.34936)
(5.03543 0 0.128253)
(4.47925 0 -1.06818)
(3.97729 0 -2.3267)
(3.51728 0 -3.72004)
(3.08658 0 -5.30039)
(2.67428 0 -7.09305)
(2.27284 0 -9.08952)
(1.87911 0 -11.2407)
(1.49462 0 -13.4513)
(1.12454 0 -15.5794)
(0.775292 0 -17.4437)
(0.450651 0 -18.8451)
(0.147483 0 -19.6026)
(-0.146831 0 -19.6026)
(-0.449958 0 -18.845)
(-0.77457 0 -17.4437)
(-1.12384 0 -15.5793)
(-1.49399 0 -13.4513)
(-1.87855 0 -11.2407)
(-2.27233 0 -9.08947)
(-2.67384 0 -7.09291)
(-3.08624 0 -5.30015)
(-3.51703 0 -3.71968)
(-3.97709 0 -2.32623)
(-4.4792 0 -1.06762)
(-5.03567 0 0.128835)
(-5.65524 0 1.34994)
(-6.34032 0 2.69142)
(-7.08465 0 4.25256)
(-7.87053 0 6.13078)
(-8.6676 0 8.42005)
(-9.40679 0 11.2177)
(-10.026 0 14.6699)
(-10.5224 0 18.999)
(-10.5209 0 24.4197)
(-9.61355 0 30.7941)
(-7.46056 0 37.1166)
(-4.13989 0 41.8149)
(-0.000509259 0 38.8332)
(5.27489 0 37.4109)
(9.7767 0 33.6918)
(13.0712 0 28.6462)
(15.0335 0 23.4594)
(15.8866 0 18.8936)
(15.9025 0 15.0527)
(15.493 0 11.8232)
(14.9169 0 9.12838)
(14.2369 0 6.87063)
(13.5323 0 4.98429)
(12.8369 0 3.39242)
(12.1625 0 2.0097)
(11.5107 0 0.74727)
(10.8743 0 -0.482703)
(10.2394 0 -1.76157)
(9.58767 0 -3.15936)
(8.89825 0 -4.728)
(8.15051 0 -6.49476)
(7.32628 0 -8.45508)
(6.41261 0 -10.5655)
(5.40436 0 -12.7372)
(4.30571 0 -14.8339)
(3.13027 0 -16.6783)
(1.89908 0 -18.0711)
(0.636386 0 -18.8272)
(-0.635918 0 -18.8271)
(-1.8986 0 -18.0711)
(-3.1298 0 -16.6783)
(-4.30528 0 -14.8339)
(-5.40397 0 -12.7372)
(-6.41222 0 -10.5655)
(-7.32588 0 -8.45499)
(-8.15015 0 -6.49457)
(-8.89797 0 -4.72773)
(-9.58747 0 -3.159)
(-10.2393 0 -1.76112)
(-10.8744 0 -0.482156)
(-11.5111 0 0.747874)
(-12.1631 0 2.01038)
(-12.8376 0 3.39321)
(-13.5332 0 4.98511)
(-14.238 0 6.87144)
(-14.9179 0 9.1294)
(-15.494 0 11.8242)
(-15.9037 0 15.0542)
(-15.8876 0 18.8955)
(-15.0346 0 23.4619)
(-13.0721 0 28.6489)
(-9.77718 0 33.6941)
(-5.27552 0 37.4115)
(0.000401957 0 33.1524)
(6.02517 0 32.1324)
(11.3256 0 29.4181)
(15.4776 0 25.6898)
(18.3534 0 21.7875)
(20.0692 0 18.2496)
(20.8055 0 15.1121)
(20.8265 0 12.2805)
(20.5064 0 9.75907)
(20.0357 0 7.56009)
(19.4882 0 5.68469)
(18.9045 0 4.08818)
(18.2953 0 2.69892)
(17.6592 0 1.43672)
(16.9862 0 0.22084)
(16.2585 0 -1.02441)
(15.4524 0 -2.36508)
(14.5395 0 -3.85118)
(13.4897 0 -5.51058)
(12.274 0 -7.34244)
(10.8692 0 -9.31081)
(9.2626 0 -11.3375)
(7.45636 0 -13.2993)
(5.47024 0 -15.0319)
(3.34202 0 -16.3465)
(1.12415 0 -17.0635)
(-1.12394 0 -17.0635)
(-3.34181 0 -16.3465)
(-5.47004 0 -15.0319)
(-7.45618 0 -13.2993)
(-9.26242 0 -11.3375)
(-10.869 0 -9.31074)
(-12.2738 0 -7.34232)
(-13.4895 0 -5.51041)
(-14.5394 0 -3.85098)
(-15.4523 0 -2.36481)
(-16.2585 0 -1.02402)
(-16.9863 0 0.221355)
(-17.6597 0 1.43734)
(-18.296 0 2.69965)
(-18.9053 0 4.08904)
(-19.4893 0 5.68561)
(-20.0369 0 7.56104)
(-20.5075 0 9.76018)
(-20.8277 0 12.2817)
(-20.8066 0 15.1136)
(-20.07 0 18.2513)
(-18.354 0 21.7896)
(-15.4781 0 25.6921)
(-11.326 0 29.4201)
(-6.02506 0 32.1333)
(0.000515958 0 26.8663)
(6.33855 0 26.1661)
(11.9943 0 24.2547)
(16.5508 0 21.5418)
(19.8826 0 18.6906)
(22.1787 0 16.2316)
(23.6163 0 14.0813)
(24.3557 0 11.9505)
(24.6471 0 9.80143)
(24.6515 0 7.79078)
(24.4551 0 6.02466)
(24.117 0 4.50511)
(23.6662 0 3.18334)
(23.1137 0 1.99199)
(22.4573 0 0.859933)
(21.6831 0 -0.280063)
(20.7663 0 -1.48704)
(19.6739 0 -2.80671)
(18.3682 0 -4.26572)
(16.8108 0 -5.86621)
(14.9687 0 -7.58122)
(12.8223 0 -9.34716)
(10.3713 0 -11.0604)
(7.64045 0 -12.5794)
(4.68291 0 -13.7378)
(1.57792 0 -14.3729)
(-1.578 0 -14.3729)
(-4.68298 0 -13.7378)
(-7.64049 0 -12.5794)
(-10.3713 0 -11.0604)
(-12.8223 0 -9.34713)
(-14.9687 0 -7.58115)
(-16.8107 0 -5.86611)
(-18.3682 0 -4.26558)
(-19.6739 0 -2.80647)
(-20.7663 0 -1.48665)
(-21.683 0 -0.279494)
(-22.4575 0 0.860624)
(-23.1142 0 1.99272)
(-23.6669 0 3.18409)
(-24.1179 0 4.50592)
(-24.4562 0 6.02554)
(-24.6528 0 7.79177)
(-24.6481 0 9.8025)
(-24.3567 0 11.9515)
(-23.6171 0 14.0823)
(-22.1793 0 16.2328)
(-19.8829 0 18.6921)
(-16.5507 0 21.5435)
(-11.9939 0 24.2563)
(-6.33778 0 26.1677)
(0.000371899 0 20.8056)
(5.95821 0 20.4599)
(11.4427 0 19.4955)
(16.0723 0 18.0769)
(19.6188 0 16.4642)
(22.2955 0 14.8555)
(24.4021 0 13.2463)
(26.029 0 11.5412)
(27.169 0 9.75465)
(27.8586 0 8.03156)
(28.1742 0 6.47946)
(28.1964 0 5.12059)
(27.9836 0 3.92794)
(27.5719 0 2.85282)
(26.9764 0 1.84014)
(26.194 0 0.836778)
(25.2058 0 -0.20376)
(23.9785 0 -1.31815)
(22.4702 0 -2.52902)
(20.6353 0 -3.83972)
(18.4327 0 -5.23366)
(15.8366 0 -6.66502)
(12.8446 0 -8.05492)
(9.48531 0 -9.29181)
(5.82444 0 -10.2403)
(1.96451 0 -10.7635)
(-1.96488 0 -10.7635)
(-5.82475 0 -10.2403)
(-9.48557 0 -9.29182)
(-12.8448 0 -8.05493)
(-15.8368 0 -6.66503)
(-18.4328 0 -5.23364)
(-20.6354 0 -3.83963)
(-22.4703 0 -2.52881)
(-23.9785 0 -1.31781)
(-25.2057 0 -0.20332)
(-26.1941 0 0.837263)
(-26.9767 0 1.84063)
(-27.5726 0 2.85335)
(-27.9845 0 3.92856)
(-28.1973 0 5.12131)
(-28.1752 0 6.48024)
(-27.8596 0 8.03244)
(-27.1698 0 9.75557)
(-26.0296 0 11.542)
(-24.4026 0 13.2471)
(-22.2959 0 14.8564)
(-19.6189 0 16.4651)
(-16.0718 0 18.0778)
(-11.4416 0 19.4963)
(-5.95707 0 20.4606)
(0.000382037 0 12.7589)
(5.16272 0 12.6118)
(10.0803 0 12.2131)
(14.5539 0 11.6474)
(18.4617 0 10.9564)
(21.7891 0 10.1053)
(24.5929 0 9.11264)
(26.8891 0 8.02168)
(28.6457 0 6.87763)
(29.8646 0 5.75744)
(30.6044 0 4.72628)
(30.9438 0 3.80743)
(30.9522 0 2.99247)
(30.6797 0 2.25542)
(30.1541 0 1.56325)
(29.3818 0 0.882688)
(28.3504 0 0.184543)
(27.0298 0 -0.553752)
(25.3788 0 -1.34753)
(23.3465 0 -2.19816)
(20.885 0 -3.09964)
(17.9661 0 -4.02606)
(14.587 0 -4.92912)
(10.7808 0 -5.73784)
(6.62331 0 -6.3632)
(2.23439 0 -6.71161)
(-2.23494 0 -6.71159)
(-6.62381 0 -6.36316)
(-10.7812 0 -5.73783)
(-14.5874 0 -4.92914)
(-17.9665 0 -4.02609)
(-20.8853 0 -3.09962)
(-23.3467 0 -2.19805)
(-25.3789 0 -1.34737)
(-27.0299 0 -0.553613)
(-28.3505 0 0.184644)
(-29.382 0 0.882798)
(-30.1545 0 1.56342)
(-30.6803 0 2.25568)
(-30.953 0 2.99281)
(-30.9446 0 3.80785)
(-30.6053 0 4.72676)
(-29.8654 0 5.75799)
(-28.6462 0 6.87819)
(-26.8894 0 8.02223)
(-24.593 0 9.11319)
(-21.7889 0 10.1058)
(-18.4614 0 10.9568)
(-14.5534 0 11.6477)
(-10.0795 0 12.2134)
(-5.16186 0 12.6117)
(0.000566797 0 17.3963)
(4.86545 0 17.2292)
(9.5673 0 16.7786)
(13.9783 0 16.1243)
(18.0336 0 15.3415)
(21.6827 0 14.4755)
(24.8628 0 13.5431)
(27.5176 0 12.5511)
(29.6035 0 11.5178)
(31.1152 0 10.48)
(32.0984 0 9.47366)
(32.624 0 8.51897)
(32.7621 0 7.62135)
(32.5685 0 6.77533)
(32.0776 0 5.96929)
(31.3014 0 5.18977)
(30.2317 0 4.42568)
(28.8414 0 3.67139)
(27.0931 0 2.92307)
(24.9361 0 2.19317)
(22.3206 0 1.46471)
(19.2166 0 0.735624)
(15.6178 0 0.0259425)
(11.5548 0 -0.621143)
(7.10501 0 -1.13849)
(2.39799 0 -1.43937)
(-2.39861 0 -1.43934)
(-7.10564 0 -1.13841)
(-11.5554 0 -0.621063)
(-15.6183 0 0.0260201)
(-19.2171 0 0.735727)
(-22.3209 0 1.46488)
(-24.9364 0 2.19339)
(-27.0934 0 2.9233)
(-28.8418 0 3.6716)
(-30.2319 0 4.4259)
(-31.3015 0 5.19009)
(-32.0779 0 5.96972)
(-32.5691 0 6.77582)
(-32.7629 0 7.62184)
(-32.6247 0 8.5195)
(-32.0992 0 9.47426)
(-31.1159 0 10.4807)
(-29.6038 0 11.5184)
(-27.5177 0 12.5517)
(-24.8626 0 13.5437)
(-21.6823 0 14.4761)
(-18.0331 0 15.3421)
(-13.9777 0 16.1248)
(-9.5668 0 16.7789)
(-4.86465 0 17.2292)
)
;

boundaryField
{
    top
    {
        type            directionMixed;
        refValue        uniform (0 0 0);
        refGradient     uniform (0 0 0);
        valueFraction   uniform (0 0 0 0 0 1);
        value           nonuniform List<vector> 
51
(
(0.000566797 0 0)
(4.86545 0 0)
(9.5673 0 0)
(13.9783 0 0)
(18.0336 0 0)
(21.6827 0 0)
(24.8628 0 0)
(27.5176 0 0)
(29.6035 0 0)
(31.1152 0 0)
(32.0984 0 0)
(32.624 0 0)
(32.7621 0 0)
(32.5685 0 0)
(32.0776 0 0)
(31.3014 0 0)
(30.2317 0 0)
(28.8414 0 0)
(27.0931 0 0)
(24.9361 0 0)
(22.3206 0 0)
(19.2166 0 0)
(15.6178 0 0)
(11.5548 0 0)
(7.10501 0 0)
(2.39799 0 0)
(-2.39861 0 0)
(-7.10564 0 0)
(-11.5554 0 0)
(-15.6183 0 0)
(-19.2171 0 0)
(-22.3209 0 0)
(-24.9364 0 0)
(-27.0934 0 0)
(-28.8418 0 0)
(-30.2319 0 0)
(-31.3015 0 0)
(-32.0779 0 0)
(-32.5691 0 0)
(-32.7629 0 0)
(-32.6247 0 0)
(-32.0992 0 0)
(-31.1159 0 0)
(-29.6038 0 0)
(-27.5177 0 0)
(-24.8626 0 0)
(-21.6823 0 0)
(-18.0331 0 0)
(-13.9777 0 0)
(-9.5668 0 0)
(-4.86465 0 0)
)
;
    }
    bottom
    {
        type            fixedValue;
        value           uniform (0 0 0);
    }
    frontAndBack
    {
        type            empty;
    }
    left_cyc
    {
        type            cyclic;
    }
    right_cyc
    {
        type            cyclic;
    }
}


// ************************************************************************* //
