/*--------------------------------*- C++ -*----------------------------------*\
| =========                 |                                                 |
| \\      /  F ield         | OpenFOAM: The Open Source CFD Toolbox           |
|  \\    /   O peration     | Version:  2.3.0                                 |
|   \\  /    A nd           | Web:      www.OpenFOAM.org                      |
|    \\/     M anipulation  |                                                 |
\*---------------------------------------------------------------------------*/
FoamFile
{
    version     2.0;
    format      ascii;
    class       volVectorField;
    location    "5000";
    object      U;
}
// * * * * * * * * * * * * * * * * * * * * * * * * * * * * * * * * * * * * * //

dimensions      [0 1 -1 0 0 0 0];

internalField   nonuniform List<vector> 
3060
(
(6.01158e-06 0 -4.12248e-06)
(1.54633e-05 0 -3.98819e-06)
(2.4686e-05 0 -3.73951e-06)
(3.35489e-05 0 -3.38244e-06)
(4.19321e-05 0 -2.92656e-06)
(4.97296e-05 0 -2.38804e-06)
(5.6851e-05 0 -1.79255e-06)
(6.32232e-05 0 -1.17605e-06)
(6.87884e-05 0 -5.80534e-07)
(7.34971e-05 0 -4.47169e-08)
(7.72941e-05 0 4.05747e-07)
(8.01005e-05 0 7.62494e-07)
(8.17965e-05 0 1.0313e-06)
(8.22125e-05 0 1.22479e-06)
(8.11388e-05 0 1.36208e-06)
(7.83721e-05 0 1.48998e-06)
(7.37819e-05 0 1.67935e-06)
(6.74188e-05 0 1.93558e-06)
(5.95305e-05 0 2.15277e-06)
(5.05991e-05 0 2.21241e-06)
(4.12422e-05 0 2.10156e-06)
(3.20512e-05 0 1.86504e-06)
(2.34851e-05 0 1.57262e-06)
(1.57506e-05 0 1.29917e-06)
(8.78178e-06 0 1.10035e-06)
(2.31775e-06 0 1.00386e-06)
(-3.99858e-06 0 1.01848e-06)
(-1.05466e-05 0 1.14293e-06)
(-1.76655e-05 0 1.3646e-06)
(-2.55737e-05 0 1.64891e-06)
(-3.42682e-05 0 1.93271e-06)
(-4.34614e-05 0 2.13903e-06)
(-5.26412e-05 0 2.20434e-06)
(-6.11841e-05 0 2.09166e-06)
(-6.84823e-05 0 1.84946e-06)
(-7.41072e-05 0 1.60454e-06)
(-7.7853e-05 0 1.42819e-06)
(-7.97223e-05 0 1.2818e-06)
(-7.9889e-05 0 1.09509e-06)
(-7.85696e-05 0 8.34381e-07)
(-7.59721e-05 0 4.86121e-07)
(-7.22551e-05 0 4.28187e-08)
(-6.75327e-05 0 -4.89992e-07)
(-6.18874e-05 0 -1.08913e-06)
(-5.53893e-05 0 -1.71585e-06)
(-4.81117e-05 0 -2.32516e-06)
(-4.01405e-05 0 -2.87652e-06)
(-3.15776e-05 0 -3.34001e-06)
(-2.25398e-05 0 -3.69656e-06)
(-1.31572e-05 0 -3.93483e-06)
(-3.57041e-06 0 -4.04776e-06)
(6.07229e-06 0 -4.03074e-06)
(1.562e-05 0 -3.88472e-06)
(2.49262e-05 0 -3.61496e-06)
(3.38526e-05 0 -3.22932e-06)
(4.22726e-05 0 -2.7408e-06)
(5.00728e-05 0 -2.17105e-06)
(5.71557e-05 0 -1.553e-06)
(6.34391e-05 0 -9.2917e-07)
(6.88517e-05 0 -3.44047e-07)
(7.33219e-05 0 1.67004e-07)
(7.67608e-05 0 5.85515e-07)
(7.90436e-05 0 9.09914e-07)
(7.99988e-05 0 1.15012e-06)
(7.94092e-05 0 1.32195e-06)
(7.70648e-05 0 1.46808e-06)
(7.28221e-05 0 1.66217e-06)
(6.67343e-05 0 1.91787e-06)
(5.90613e-05 0 2.13773e-06)
(5.0291e-05 0 2.20339e-06)
(4.10503e-05 0 2.09726e-06)
(3.19431e-05 0 1.86333e-06)
(2.34371e-05 0 1.57201e-06)
(1.57445e-05 0 1.299e-06)
(8.80187e-06 0 1.10035e-06)
(2.34972e-06 0 1.00388e-06)
(-3.96851e-06 0 1.0185e-06)
(-1.05324e-05 0 1.14303e-06)
(-1.76817e-05 0 1.36496e-06)
(-2.56368e-05 0 1.64985e-06)
(-3.43975e-05 0 1.93508e-06)
(-4.36824e-05 0 2.14453e-06)
(-5.29895e-05 0 2.21507e-06)
(-6.17076e-05 0 2.1079e-06)
(-6.9236e-05 0 1.86696e-06)
(-7.51535e-05 0 1.62173e-06)
(-7.92664e-05 0 1.45315e-06)
(-8.15735e-05 0 1.33034e-06)
(-8.22401e-05 0 1.18128e-06)
(-8.14713e-05 0 9.68971e-07)
(-7.94721e-05 0 6.78362e-07)
(-7.63981e-05 0 2.97325e-07)
(-7.23574e-05 0 -1.76847e-07)
(-6.74208e-05 0 -7.31332e-07)
(-6.16404e-05 0 -1.33636e-06)
(-5.50669e-05 0 -1.95132e-06)
(-4.77616e-05 0 -2.53506e-06)
(-3.98022e-05 0 -3.05411e-06)
(-3.12831e-05 0 -3.48548e-06)
(-2.23144e-05 0 -3.81506e-06)
(-1.3019e-05 0 -4.03444e-06)
(-3.53016e-06 0 -4.13817e-06)
(9.04682e-06 0 -1.65305e-05)
(2.33406e-05 0 -1.63228e-05)
(3.74709e-05 0 -1.59411e-05)
(5.13454e-05 0 -1.54015e-05)
(6.48817e-05 0 -1.47232e-05)
(7.80054e-05 0 -1.39233e-05)
(9.0641e-05 0 -1.30113e-05)
(0.000102698 0 -1.19837e-05)
(0.000114054 0 -1.082e-05)
(0.000124543 0 -9.4826e-06)
(0.000133945 0 -7.91457e-06)
(0.000141992 0 -6.03868e-06)
(0.000148362 0 -3.75805e-06)
(0.000152674 0 -9.69572e-07)
(0.000154477 0 2.37512e-06)
(0.00015325 0 6.11756e-06)
(0.000148487 0 9.80806e-06)
(0.000139926 0 1.29621e-05)
(0.000127599 0 1.52863e-05)
(0.000112024 0 1.66524e-05)
(9.42473e-05 0 1.70463e-05)
(7.54851e-05 0 1.64963e-05)
(5.68343e-05 0 1.53021e-05)
(3.89951e-05 0 1.39393e-05)
(2.21397e-05 0 1.28375e-05)
(6.00952e-06 0 1.22665e-05)
(-9.88924e-06 0 1.23374e-05)
(-2.61082e-05 0 1.30331e-05)
(-4.30964e-05 0 1.42035e-05)
(-6.10152e-05 0 1.55323e-05)
(-7.95503e-05 0 1.65563e-05)
(-9.78601e-05 0 1.68177e-05)
(-0.00011478 0 1.60939e-05)
(-0.000129081 0 1.43731e-05)
(-0.000139831 0 1.16878e-05)
(-0.000146683 0 8.2034e-06)
(-0.000149702 0 4.29212e-06)
(-0.000149256 0 5.09444e-07)
(-0.000145894 0 -2.76068e-06)
(-0.000140136 0 -5.45261e-06)
(-0.000132425 0 -7.64984e-06)
(-0.000123138 0 -9.45652e-06)
(-0.000112598 0 -1.09632e-05)
(-0.00010107 0 -1.22398e-05)
(-8.87628e-05 0 -1.33364e-05)
(-7.58331e-05 0 -1.42836e-05)
(-6.23969e-05 0 -1.50939e-05)
(-4.85471e-05 0 -1.57644e-05)
(-3.43701e-05 0 -1.62821e-05)
(-1.99558e-05 0 -1.66308e-05)
(-5.40169e-06 0 -1.67965e-05)
(9.19047e-06 0 -1.67716e-05)
(2.37181e-05 0 -1.65574e-05)
(3.80798e-05 0 -1.61633e-05)
(5.21802e-05 0 -1.56043e-05)
(6.59308e-05 0 -1.48966e-05)
(7.9245e-05 0 -1.4051e-05)
(9.20255e-05 0 -1.30669e-05)
(0.000104147 0 -1.19273e-05)
(0.000115441 0 -1.05965e-05)
(0.000125683 0 -9.01953e-06)
(0.000134594 0 -7.12083e-06)
(0.000141837 0 -4.80512e-06)
(0.000147017 0 -1.96853e-06)
(0.000149676 0 1.45171e-06)
(0.000149273 0 5.319e-06)
(0.00014528 0 9.16971e-06)
(0.00013741 0 1.24729e-05)
(0.000125678 0 1.49168e-05)
(0.000110587 0 1.63777e-05)
(9.3186e-05 0 1.68436e-05)
(7.47107e-05 0 1.63479e-05)
(5.6275e-05 0 1.51957e-05)
(3.85898e-05 0 1.38678e-05)
(2.18326e-05 0 1.27975e-05)
(5.74741e-06 0 1.2256e-05)
(-1.01584e-05 0 1.2356e-05)
(-2.64367e-05 0 1.30817e-05)
(-4.35379e-05 0 1.42843e-05)
(-6.16267e-05 0 1.56497e-05)
(-8.03952e-05 0 1.67185e-05)
(-9.90139e-05 0 1.70385e-05)
(-0.000116336 0 1.63921e-05)
(-0.000131151 0 1.47722e-05)
(-0.000142523 0 1.22135e-05)
(-0.000150087 0 8.88368e-06)
(-0.000153892 0 5.12626e-06)
(-0.000154278 0 1.4537e-06)
(-0.000151773 0 -1.74967e-06)
(-0.000146886 0 -4.39652e-06)
(-0.000140045 0 -6.56176e-06)
(-0.000131616 0 -8.34902e-06)
(-0.000121907 0 -9.85051e-06)
(-0.000111174 0 -1.11381e-05)
(-9.96212e-05 0 -1.22634e-05)
(-8.74032e-05 0 -1.32597e-05)
(-7.46327e-05 0 -1.41427e-05)
(-6.13945e-05 0 -1.49123e-05)
(-4.77626e-05 0 -1.55563e-05)
(-3.38131e-05 0 -1.60565e-05)
(-1.96309e-05 0 -1.63942e-05)
(-5.31084e-06 0 -1.65547e-05)
(1.01512e-05 0 -3.14373e-05)
(2.61807e-05 0 -3.11075e-05)
(4.20011e-05 0 -3.04977e-05)
(5.74862e-05 0 -2.96268e-05)
(7.25108e-05 0 -2.85163e-05)
(8.69485e-05 0 -2.71822e-05)
(0.000100669 0 -2.56274e-05)
(0.000113535 0 -2.38352e-05)
(0.0001254 0 -2.17671e-05)
(0.000136112 0 -1.9365e-05)
(0.000145516 0 -1.6555e-05)
(0.000153462 0 -1.32506e-05)
(0.000159818 0 -9.35766e-06)
(0.000164479 0 -4.78468e-06)
(0.000167366 0 5.4928e-07)
(0.000168364 0 6.72568e-06)
(0.000167097 0 1.38138e-05)
(0.000162712 0 2.16084e-05)
(0.00015421 0 2.9149e-05)
(0.000140816 0 3.48327e-05)
(0.000122692 0 3.78584e-05)
(0.000101121 0 3.84752e-05)
(7.78747e-05 0 3.7301e-05)
(5.43645e-05 0 3.52829e-05)
(3.12789e-05 0 3.34191e-05)
(8.675e-06 0 3.23896e-05)
(-1.37411e-05 0 3.24905e-05)
(-3.63487e-05 0 3.36761e-05)
(-5.93777e-05 0 3.55522e-05)
(-8.26308e-05 0 3.73354e-05)
(-0.000105224 0 3.79811e-05)
(-0.000125582 0 3.66147e-05)
(-0.000141986 0 3.2686e-05)
(-0.000153413 0 2.61495e-05)
(-0.000160055 0 1.82155e-05)
(-0.000162816 0 1.04134e-05)
(-0.00016273 0 3.44336e-06)
(-0.000160507 0 -2.61655e-06)
(-0.000156393 0 -7.84271e-06)
(-0.000150471 0 -1.23072e-05)
(-0.000142835 0 -1.60887e-05)
(-0.000133615 0 -1.92784e-05)
(-0.000122966 0 -2.19683e-05)
(-0.000111058 0 -2.42423e-05)
(-9.80627e-05 0 -2.61704e-05)
(-8.4146e-05 0 -2.7804e-05)
(-6.94669e-05 0 -2.91722e-05)
(-5.41753e-05 0 -3.02824e-05)
(-3.84147e-05 0 -3.11264e-05)
(-2.23252e-05 0 -3.16883e-05)
(-6.04552e-06 0 -3.19534e-05)
(1.02855e-05 0 -3.19137e-05)
(2.65291e-05 0 -3.15704e-05)
(4.25465e-05 0 -3.09337e-05)
(5.81989e-05 0 -3.00192e-05)
(7.33454e-05 0 -2.88416e-05)
(8.78412e-05 0 -2.7406e-05)
(0.000101534 0 -2.56997e-05)
(0.000114264 0 -2.36876e-05)
(0.000125861 0 -2.1313e-05)
(0.000136155 0 -1.85017e-05)
(0.000144978 0 -1.51672e-05)
(0.000152179 0 -1.12166e-05)
(0.000157639 0 -6.56108e-06)
(0.000161271 0 -1.12525e-06)
(0.000162975 0 5.16464e-06)
(0.000162412 0 1.23736e-05)
(0.000158742 0 2.03146e-05)
(0.000150933 0 2.8055e-05)
(0.000138178 0 3.39719e-05)
(0.000120609 0 3.72018e-05)
(9.94911e-05 0 3.79801e-05)
(7.65997e-05 0 3.69375e-05)
(5.33508e-05 0 3.50347e-05)
(3.04351e-05 0 3.32783e-05)
(7.90994e-06 0 3.23523e-05)
(-1.45183e-05 0 3.25558e-05)
(-3.72291e-05 0 3.38457e-05)
(-6.04524e-05 0 3.5831e-05)
(-8.39912e-05 0 3.77328e-05)
(-0.000106964 0 3.85164e-05)
(-0.000127802 0 3.73214e-05)
(-0.000144784 0 3.3607e-05)
(-0.000156866 0 2.72999e-05)
(-0.000164207 0 1.95496e-05)
(-0.000167681 0 1.18834e-05)
(-0.000168295 0 5.03195e-06)
(-0.000166787 0 -9.15954e-07)
(-0.000163432 0 -6.04449e-06)
(-0.000158322 0 -1.04325e-05)
(-0.000151541 0 -1.41634e-05)
(-0.000143202 0 -1.73305e-05)
(-0.000133443 0 -2.00265e-05)
(-0.000122416 0 -2.23352e-05)
(-0.000110276 0 -2.43267e-05)
(-9.71738e-05 0 -2.60543e-05)
(-8.32535e-05 0 -2.75508e-05)
(-6.86505e-05 0 -2.88276e-05)
(-5.34939e-05 0 -2.98776e-05)
(-3.79094e-05 0 -3.06826e-05)
(-2.20223e-05 0 -3.1221e-05)
(-5.95934e-06 0 -3.14756e-05)
(1.06415e-05 0 -4.80929e-05)
(2.74272e-05 0 -4.75869e-05)
(4.39463e-05 0 -4.66464e-05)
(6.00372e-05 0 -4.52915e-05)
(7.554e-05 0 -4.35443e-05)
(9.02963e-05 0 -4.14209e-05)
(0.000104151 0 -3.89253e-05)
(0.000116951 0 -3.60449e-05)
(0.000128553 0 -3.27498e-05)
(0.000138821 0 -2.89954e-05)
(0.000147632 0 -2.47261e-05)
(0.000154878 0 -1.9878e-05)
(0.000160469 0 -1.43797e-05)
(0.000164332 0 -8.14917e-06)
(0.000166402 0 -1.07596e-06)
(0.000166605 0 7.00699e-06)
(0.000164858 0 1.62705e-05)
(0.000161065 0 2.66348e-05)
(0.000155004 0 3.76009e-05)
(0.000145837 0 4.82937e-05)
(0.000131984 0 5.70017e-05)
(0.000112657 0 6.15616e-05)
(8.90784e-05 0 6.22014e-05)
(6.33139e-05 0 6.06444e-05)
(3.68952e-05 0 5.86299e-05)
(1.04357e-05 0 5.73881e-05)
(-1.59583e-05 0 5.74629e-05)
(-4.22956e-05 0 5.87727e-05)
(-6.83869e-05 0 6.05985e-05)
(-9.34242e-05 0 6.15394e-05)
(-0.000115654 0 5.97828e-05)
(-0.000133109 0 5.37864e-05)
(-0.000145053 0 4.40818e-05)
(-0.000152744 0 3.29779e-05)
(-0.000157615 0 2.1905e-05)
(-0.000160261 0 1.1631e-05)
(-0.00016083 0 2.53559e-06)
(-0.000159417 0 -5.41373e-06)
(-0.000156101 0 -1.23999e-05)
(-0.000150954 0 -1.85581e-05)
(-0.00014405 0 -2.3975e-05)
(-0.000135477 0 -2.87202e-05)
(-0.000125343 0 -3.28581e-05)
(-0.00011378 0 -3.64483e-05)
(-0.000100933 0 -3.9542e-05)
(-8.69619e-05 0 -4.2178e-05)
(-7.20368e-05 0 -4.4379e-05)
(-5.63315e-05 0 -4.61504e-05)
(-4.00232e-05 0 -4.74842e-05)
(-2.32899e-05 0 -4.83654e-05)
(-6.31051e-06 0 -4.87793e-05)
(1.07355e-05 0 -4.87173e-05)
(2.76682e-05 0 -4.8181e-05)
(4.43082e-05 0 -4.71807e-05)
(6.0477e-05 0 -4.57319e-05)
(7.59966e-05 0 -4.38486e-05)
(9.06904e-05 0 -4.15358e-05)
(0.000104385 0 -3.87838e-05)
(0.000116914 0 -3.55655e-05)
(0.000128119 0 -3.18384e-05)
(0.000137859 0 -2.75486e-05)
(0.000146009 0 -2.26352e-05)
(0.000152463 0 -1.70326e-05)
(0.000157141 0 -1.06686e-05)
(0.00015997 0 -3.44781e-06)
(0.000160876 0 4.78236e-06)
(0.000159776 0 1.41949e-05)
(0.000156573 0 2.47312e-05)
(0.000151059 0 3.59012e-05)
(0.000142431 0 4.6824e-05)
(0.00012911 0 5.57863e-05)
(0.000110266 0 6.06028e-05)
(8.70985e-05 0 6.14783e-05)
(6.16572e-05 0 6.01411e-05)
(3.54574e-05 0 5.83408e-05)
(9.10127e-06 0 5.73108e-05)
(-1.73086e-05 0 5.75971e-05)
(-4.37806e-05 0 5.91194e-05)
(-7.01198e-05 0 6.11603e-05)
(-9.55051e-05 0 6.23236e-05)
(-0.000118166 0 6.08078e-05)
(-0.000136118 0 5.50694e-05)
(-0.000148598 0 4.56122e-05)
(-0.000156826 0 3.4731e-05)
(-0.000162252 0 2.38536e-05)
(-0.000165502 0 1.37437e-05)
(-0.000166733 0 4.79572e-06)
(-0.000166038 0 -3.005e-06)
(-0.000163495 0 -9.84567e-06)
(-0.000159176 0 -1.5877e-05)
(-0.000153147 0 -2.11991e-05)
(-0.000145484 0 -2.58903e-05)
(-0.000136283 0 -3.002e-05)
(-0.000125655 0 -3.365e-05)
(-0.000113728 0 -3.68335e-05)
(-0.000100639 0 -3.96115e-05)
(-8.65352e-05 0 -4.20097e-05)
(-7.15694e-05 0 -4.40362e-05)
(-5.58981e-05 0 -4.56832e-05)
(-3.96802e-05 0 -4.69322e-05)
(-2.30761e-05 0 -4.77613e-05)
(-6.24762e-06 0 -4.81515e-05)
(1.0759e-05 0 -6.52796e-05)
(2.77145e-05 0 -6.45756e-05)
(4.43598e-05 0 -6.32632e-05)
(6.05083e-05 0 -6.13649e-05)
(7.59777e-05 0 -5.89054e-05)
(9.05917e-05 0 -5.59046e-05)
(0.000104182 0 -5.2372e-05)
(0.000116593 0 -4.83023e-05)
(0.000127681 0 -4.3675e-05)
(0.00013732 0 -3.84563e-05)
(0.000145397 0 -3.26034e-05)
(0.000151816 0 -2.60664e-05)
(0.000156497 0 -1.87903e-05)
(0.000159368 0 -1.07113e-05)
(0.000160371 0 -1.74722e-06)
(0.000159475 0 8.21127e-06)
(0.000156716 0 1.9265e-05)
(0.00015218 0 3.1405e-05)
(0.000145885 0 4.44782e-05)
(0.000137672 0 5.8088e-05)
(0.000126979 0 7.1093e-05)
(0.000112289 0 8.14454e-05)
(9.191e-05 0 8.67659e-05)
(6.69198e-05 0 8.75078e-05)
(3.95932e-05 0 8.63049e-05)
(1.14085e-05 0 8.52411e-05)
(-1.69121e-05 0 8.52216e-05)
(-4.48191e-05 0 8.61184e-05)
(-7.14737e-05 0 8.674e-05)
(-9.5172e-05 0 8.47358e-05)
(-0.000113674 0 7.76934e-05)
(-0.000126731 0 6.6126e-05)
(-0.000136252 0 5.25434e-05)
(-0.000143476 0 3.87593e-05)
(-0.000148788 0 2.56652e-05)
(-0.000152287 0 1.35616e-05)
(-0.000153913 0 2.56781e-06)
(-0.000153588 0 -7.34465e-06)
(-0.000151304 0 -1.6279e-05)
(-0.000147112 0 -2.43233e-05)
(-0.000141079 0 -3.15391e-05)
(-0.00013329 0 -3.79764e-05)
(-0.000123843 0 -4.36809e-05)
(-0.000112856 0 -4.86955e-05)
(-0.000100465 0 -5.30571e-05)
(-8.68278e-05 0 -5.67924e-05)
(-7.21148e-05 0 -5.9915e-05)
(-5.65123e-05 0 -6.2424e-05)
(-4.02155e-05 0 -6.43075e-05)
(-2.34262e-05 0 -6.55481e-05)
(-6.35049e-06 0 -6.61296e-05)
(1.08028e-05 0 -6.60426e-05)
(2.78241e-05 0 -6.52886e-05)
(4.45051e-05 0 -6.38793e-05)
(6.06408e-05 0 -6.18318e-05)
(7.60306e-05 0 -5.91627e-05)
(9.04816e-05 0 -5.58815e-05)
(0.000103811 0 -5.19854e-05)
(0.000115851 0 -4.74573e-05)
(0.00012645 0 -4.22673e-05)
(0.000135477 0 -3.63766e-05)
(0.000142819 0 -2.97414e-05)
(0.000148381 0 -2.23152e-05)
(0.000152084 0 -1.40461e-05)
(0.000153862 0 -4.86701e-06)
(0.000153676 0 5.3175e-06)
(0.000151554 0 1.66028e-05)
(0.000147582 0 2.89812e-05)
(0.000141789 0 4.22957e-05)
(0.000134028 0 5.61518e-05)
(0.00012375 0 6.94216e-05)
(0.000109448 0 8.00564e-05)
(8.94253e-05 0 8.56678e-05)
(6.47411e-05 0 8.67184e-05)
(3.76393e-05 0 8.58425e-05)
(9.56486e-06 0 8.51162e-05)
(-1.87728e-05 0 8.54373e-05)
(-4.68223e-05 0 8.667e-05)
(-7.37268e-05 0 8.7614e-05)
(-9.77459e-05 0 8.59122e-05)
(-0.000116613 0 7.91565e-05)
(-0.000130064 0 6.78668e-05)
(-0.000140008 0 5.45427e-05)
(-0.000147695 0 4.10017e-05)
(-0.000153524 0 2.81486e-05)
(-0.000157606 0 1.62817e-05)
(-0.000159888 0 5.51847e-06)
(-0.00016029 0 -4.16949e-06)
(-0.000158797 0 -1.2894e-05)
(-0.000155449 0 -2.07575e-05)
(-0.000150309 0 -2.78361e-05)
(-0.000143449 0 -3.41904e-05)
(-0.000134956 0 -3.9874e-05)
(-0.000124929 0 -4.49351e-05)
(-0.000113484 0 -4.94147e-05)
(-0.000100752 0 -5.33433e-05)
(-8.68788e-05 0 -5.67376e-05)
(-7.20256e-05 0 -5.95988e-05)
(-5.63621e-05 0 -6.19145e-05)
(-4.00664e-05 0 -6.36625e-05)
(-2.33222e-05 0 -6.48183e-05)
(-6.31694e-06 0 -6.53611e-05)
(1.05814e-05 0 -8.22279e-05)
(2.72433e-05 0 -8.12948e-05)
(4.35646e-05 0 -7.95535e-05)
(5.9342e-05 0 -7.70314e-05)
(7.43791e-05 0 -7.37604e-05)
(8.84899e-05 0 -6.97704e-05)
(0.000101501 0 -6.50838e-05)
(0.000113256 0 -5.97111e-05)
(0.000123615 0 -5.36496e-05)
(0.000132457 0 -4.6884e-05)
(0.000139682 0 -3.93886e-05)
(0.000145204 0 -3.11284e-05)
(0.000148953 0 -2.20603e-05)
(0.000150874 0 -1.21318e-05)
(0.000150929 0 -1.27935e-06)
(0.000149112 0 1.05655e-05)
(0.000145473 0 2.34394e-05)
(0.000140112 0 3.72814e-05)
(0.000133133 0 5.19207e-05)
(0.00012462 0 6.71124e-05)
(0.000114517 0 8.2408e-05)
(0.000102293 0 9.66686e-05)
(8.63506e-05 0 0.000107574)
(6.49981e-05 0 0.000113007)
(3.92965e-05 0 0.000114192)
(1.15495e-05 0 0.000113941)
(-1.66484e-05 0 0.000113739)
(-4.39182e-05 0 0.000113387)
(-6.85397e-05 0 0.000110986)
(-8.82095e-05 0 0.000103741)
(-0.000102707 0 9.13844e-05)
(-0.000113944 0 7.63631e-05)
(-0.000123236 0 6.07165e-05)
(-0.000130915 0 4.53253e-05)
(-0.000136978 0 3.05578e-05)
(-0.000141325 0 1.66456e-05)
(-0.00014385 0 3.73869e-06)
(-0.000144462 0 -8.12986e-06)
(-0.000143136 0 -1.90025e-05)
(-0.000139895 0 -2.89333e-05)
(-0.000134789 0 -3.7967e-05)
(-0.00012789 0 -4.61392e-05)
(-0.000119284 0 -5.34788e-05)
(-0.000109079 0 -6.00088e-05)
(-9.74029e-05 0 -6.57445e-05)
(-8.44076e-05 0 -7.06919e-05)
(-7.02645e-05 0 -7.48457e-05)
(-5.51636e-05 0 -7.819e-05)
(-3.93099e-05 0 -8.07018e-05)
(-2.29194e-05 0 -8.23558e-05)
(-6.21573e-06 0 -8.31307e-05)
(1.05729e-05 0 -8.30148e-05)
(2.7217e-05 0 -8.20099e-05)
(4.34893e-05 0 -8.01308e-05)
(5.91678e-05 0 -7.74004e-05)
(7.40391e-05 0 -7.38438e-05)
(8.79016e-05 0 -6.94828e-05)
(0.00010057 0 -6.43306e-05)
(0.000111877 0 -5.83895e-05)
(0.000121678 0 -5.16511e-05)
(0.00012985 0 -4.40975e-05)
(0.000136291 0 -3.57044e-05)
(0.000140919 0 -2.6441e-05)
(0.000143666 0 -1.627e-05)
(0.000144489 0 -5.14354e-06)
(0.000143375 0 6.99272e-06)
(0.000140366 0 2.0169e-05)
(0.000135562 0 3.43224e-05)
(0.000129071 0 4.92771e-05)
(0.00012098 0 6.4782e-05)
(0.00011124 0 8.03874e-05)
(9.93307e-05 0 9.49602e-05)
(8.36547e-05 0 0.000106188)
(6.25232e-05 0 0.000111973)
(3.70003e-05 0 0.000113568)
(9.34772e-06 0 0.00011377)
(-1.88649e-05 0 0.000114033)
(-4.62551e-05 0 0.000114125)
(-7.10689e-05 0 0.00011212)
(-9.09691e-05 0 0.000105213)
(-0.000105746 0 9.31738e-05)
(-0.00011731 0 7.84624e-05)
(-0.000126979 0 6.31258e-05)
(-0.000135096 0 4.80483e-05)
(-0.000141664 0 3.35956e-05)
(-0.000146588 0 1.99928e-05)
(-0.000149762 0 7.38592e-06)
(-0.000151094 0 -4.19469e-06)
(-0.000150551 0 -1.48004e-05)
(-0.00014815 0 -2.44998e-05)
(-0.000143934 0 -3.33536e-05)
(-0.000137961 0 -4.14114e-05)
(-0.000130307 0 -4.87142e-05)
(-0.000121059 0 -5.52946e-05)
(-0.000110325 0 -6.1176e-05)
(-9.82286e-05 0 -6.63705e-05)
(-8.49151e-05 0 -7.08774e-05)
(-7.05459e-05 0 -7.46827e-05)
(-5.52977e-05 0 -7.77618e-05)
(-3.93594e-05 0 -8.00835e-05)
(-2.29296e-05 0 -8.16166e-05)
(-6.21297e-06 0 -8.23359e-05)
(1.01602e-05 0 -9.87141e-05)
(2.61467e-05 0 -9.75363e-05)
(4.17743e-05 0 -9.5338e-05)
(5.68303e-05 0 -9.21536e-05)
(7.11117e-05 0 -8.80252e-05)
(8.44289e-05 0 -8.29961e-05)
(9.66087e-05 0 -7.71049e-05)
(0.000107497 0 -7.03806e-05)
(0.000116961 0 -6.28405e-05)
(0.000124888 0 -5.44891e-05)
(0.000131187 0 -4.5319e-05)
(0.000135784 0 -3.53122e-05)
(0.000138624 0 -2.44419e-05)
(0.000139669 0 -1.26743e-05)
(0.000138901 0 2.66289e-08)
(0.000136336 0 1.36884e-05)
(0.000132033 0 2.83019e-05)
(0.000126088 0 4.37849e-05)
(0.000118612 0 5.99708e-05)
(0.000109722 0 7.66111e-05)
(9.95092e-05 0 9.33363e-05)
(8.79524e-05 0 0.00010957)
(7.44606e-05 0 0.00012406)
(5.74164e-05 0 0.000134545)
(3.5672e-05 0 0.00013975)
(1.07271e-05 0 0.000141243)
(-1.50117e-05 0 0.000140739)
(-3.92895e-05 0 0.000137987)
(-5.97286e-05 0 0.000131024)
(-7.5499e-05 0 0.000118888)
(-8.81283e-05 0 0.000103383)
(-9.90213e-05 0 8.65672e-05)
(-0.000108541 0 6.94459e-05)
(-0.000116654 0 5.25155e-05)
(-0.000123256 0 3.61102e-05)
(-0.000128227 0 2.04606e-05)
(-0.000131459 0 5.71873e-06)
(-0.000132863 0 -8.04754e-06)
(-0.000132398 0 -2.0831e-05)
(-0.000130066 0 -3.26468e-05)
(-0.000125897 0 -4.35138e-05)
(-0.000119946 0 -5.34467e-05)
(-0.000112288 0 -6.24543e-05)
(-0.000103018 0 -7.05383e-05)
(-9.22566e-05 0 -7.76913e-05)
(-8.01474e-05 0 -8.38964e-05)
(-6.68582e-05 0 -8.9127e-05)
(-5.25781e-05 0 -9.33488e-05)
(-3.7515e-05 0 -9.65238e-05)
(-2.18911e-05 0 -9.86157e-05)
(-5.93915e-06 0 -9.9596e-05)
(1.01019e-05 0 -9.94494e-05)
(2.59914e-05 0 -9.81782e-05)
(4.14916e-05 0 -9.58018e-05)
(5.63722e-05 0 -9.23513e-05)
(7.04141e-05 0 -8.78638e-05)
(8.34142e-05 0 -8.23771e-05)
(9.51884e-05 0 -7.59236e-05)
(0.000105575 0 -6.85275e-05)
(0.000114437 0 -6.02033e-05)
(0.00012166 0 -5.09556e-05)
(0.000127154 0 -4.0781e-05)
(0.00013085 0 -2.96689e-05)
(0.000132699 0 -1.76031e-05)
(0.000132677 0 -4.56488e-06)
(0.000130792 0 9.45772e-06)
(0.000127098 0 2.44456e-05)
(0.000121692 0 4.03099e-05)
(0.000114686 0 5.68774e-05)
(0.000106199 0 7.38957e-05)
(9.63242e-05 0 9.09955e-05)
(8.50474e-05 0 0.000107603)
(7.17777e-05 0 0.000122471)
(5.48901e-05 0 0.000133351)
(3.32505e-05 0 0.000139015)
(8.36584e-06 0 0.000141039)
(-1.73826e-05 0 0.000141089)
(-4.17348e-05 0 0.000138852)
(-6.22885e-05 0 0.000132325)
(-7.82323e-05 0 0.000120577)
(-9.10997e-05 0 0.000105447)
(-0.000102287 0 8.90037e-05)
(-0.000112163 0 7.22571e-05)
(-0.000120696 0 5.57053e-05)
(-0.000127784 0 3.96819e-05)
(-0.000133313 0 2.44123e-05)
(-0.000137173 0 1.00422e-05)
(-0.000139274 0 -3.36838e-06)
(-0.00013957 0 -1.58237e-05)
(-0.000138055 0 -2.73548e-05)
(-0.000134753 0 -3.79979e-05)
(-0.000129707 0 -4.77852e-05)
(-0.000122977 0 -5.67413e-05)
(-0.00011464 0 -6.48816e-05)
(-0.000104794 0 -7.22104e-05)
(-9.35559e-05 0 -7.87201e-05)
(-8.10643e-05 0 -8.43902e-05)
(-6.74787e-05 0 -8.91889e-05)
(-5.29768e-05 0 -9.30757e-05)
(-3.77519e-05 0 -9.60072e-05)
(-2.20101e-05 0 -9.79425e-05)
(-5.96594e-06 0 -9.88504e-05)
(9.54025e-06 0 -0.000114347)
(2.45399e-05 0 -0.000112915)
(3.91732e-05 0 -0.000110244)
(5.32244e-05 0 -0.000106376)
(6.64895e-05 0 -0.000101366)
(7.87806e-05 0 -9.52754e-05)
(8.99286e-05 0 -8.81603e-05)
(9.9786e-05 0 -8.00718e-05)
(0.000108228 0 -7.1049e-05)
(0.000115154 0 -6.11183e-05)
(0.000120482 0 -5.02926e-05)
(0.000124155 0 -3.85731e-05)
(0.000126132 0 -2.59513e-05)
(0.000126393 0 -1.24142e-05)
(0.00012494 0 2.04833e-06)
(0.000121803 0 1.74297e-05)
(0.000117048 0 3.36835e-05)
(0.000110769 0 5.07015e-05)
(0.000103079 0 6.8305e-05)
(9.41014e-05 0 8.62479e-05)
(8.39562e-05 0 0.000104202)
(7.27397e-05 0 0.000121724)
(6.04284e-05 0 0.000138058)
(4.63287e-05 0 0.000151746)
(2.91889e-05 0 0.00016082)
(9.00746e-06 0 0.000164613)
(-1.21217e-05 0 0.000163724)
(-3.1617e-05 0 0.000158046)
(-4.77928e-05 0 0.000147135)
(-6.11568e-05 0 0.000132111)
(-7.2943e-05 0 0.000114925)
(-8.36182e-05 0 9.6802e-05)
(-9.31394e-05 0 7.8377e-05)
(-0.0001014 0 6.00502e-05)
(-0.000108274 0 4.21282e-05)
(-0.00011364 0 2.48453e-05)
(-0.000117388 0 8.37047e-06)
(-0.00011943 0 -7.19542e-06)
(-0.000119715 0 -2.18055e-05)
(-0.000118227 0 -3.54413e-05)
(-0.000114978 0 -4.80946e-05)
(-0.000110005 0 -5.97575e-05)
(-0.000103366 0 -7.04164e-05)
(-9.51465e-05 0 -8.00494e-05)
(-8.54535e-05 0 -8.86243e-05)
(-7.44214e-05 0 -9.60992e-05)
(-6.22103e-05 0 -0.000102424)
(-4.90043e-05 0 -0.000107541)
(-3.50085e-05 0 -0.000111397)
(-2.04451e-05 0 -0.000113939)
(-5.54895e-06 0 -0.000115131)
(9.43765e-06 0 -0.000114953)
(2.42704e-05 0 -0.000113407)
(3.87085e-05 0 -0.000110519)
(5.25199e-05 0 -0.000106331)
(6.54864e-05 0 -0.000100894)
(7.74079e-05 0 -9.42661e-05)
(8.81065e-05 0 -8.65008e-05)
(9.74286e-05 0 -7.76474e-05)
(0.000105247 0 -6.77452e-05)
(0.00011146 0 -5.68236e-05)
(0.00011599 0 -4.49022e-05)
(0.000118784 0 -3.19927e-05)
(0.000119811 0 -1.81025e-05)
(0.000119067 0 -3.24101e-06)
(0.000116575 0 1.25678e-05)
(0.000112397 0 2.92654e-05)
(0.000106628 0 4.67339e-05)
(9.9381e-05 0 6.47867e-05)
(9.07811e-05 0 8.31723e-05)
(8.09507e-05 0 0.000101563)
(6.9989e-05 0 0.000119519)
(5.78754e-05 0 0.000136297)
(4.39092e-05 0 0.000150448)
(2.68363e-05 0 0.000160028)
(6.68105e-06 0 0.000164392)
(-1.44522e-05 0 0.000164102)
(-3.3981e-05 0 0.000158979)
(-5.02393e-05 0 0.000148557)
(-6.37547e-05 0 0.000133989)
(-7.57539e-05 0 0.000117243)
(-8.66994e-05 0 9.95533e-05)
(-9.65519e-05 0 8.15651e-05)
(-0.000105207 0 6.36826e-05)
(-0.000112542 0 4.62104e-05)
(-0.000118435 0 2.93768e-05)
(-0.000122777 0 1.33425e-05)
(-0.000125481 0 -1.80244e-06)
(-0.000126489 0 -1.60244e-05)
(-0.000125781 0 -2.93227e-05)
(-0.00012336 0 -4.17091e-05)
(-0.000119252 0 -5.3196e-05)
(-0.000113501 0 -6.37896e-05)
(-0.000106172 0 -7.34861e-05)
(-9.73508e-05 0 -8.2269e-05)
(-8.71445e-05 0 -9.01086e-05)
(-7.56838e-05 0 -9.69624e-05)
(-6.3122e-05 0 -0.000102778)
(-4.96334e-05 0 -0.000107495)
(-3.54105e-05 0 -0.000111057)
(-2.06606e-05 0 -0.000113409)
(-5.60211e-06 0 -0.000114512)
(8.75805e-06 0 -0.000128856)
(2.2517e-05 0 -0.000127169)
(3.5912e-05 0 -0.000124022)
(4.87295e-05 0 -0.000119469)
(6.07699e-05 0 -0.00011358)
(7.18511e-05 0 -0.000106434)
(8.18119e-05 0 -9.81087e-05)
(9.05144e-05 0 -8.86785e-05)
(9.78451e-05 0 -7.82062e-05)
(0.000103715 0 -6.67413e-05)
(0.000108057 0 -5.43189e-05)
(0.000110829 0 -4.09607e-05)
(0.000112006 0 -2.66787e-05)
(0.000111586 0 -1.14814e-05)
(0.000109589 0 4.61696e-06)
(0.000106059 0 2.15813e-05)
(0.00010107 0 3.93365e-05)
(9.47187e-05 0 5.77521e-05)
(8.71198e-05 0 7.66345e-05)
(7.84029e-05 0 9.57267e-05)
(6.87071e-05 0 0.000114704)
(5.81746e-05 0 0.000133159)
(4.69516e-05 0 0.00015051)
(3.49904e-05 0 0.000165698)
(2.17325e-05 0 0.000176954)
(6.83813e-06 0 0.000182423)
(-8.68712e-06 0 0.000181235)
(-2.31643e-05 0 0.000173538)
(-3.59417e-05 0 0.00016051)
(-4.75415e-05 0 0.000144101)
(-5.84076e-05 0 0.00012589)
(-6.84927e-05 0 0.000106761)
(-7.76456e-05 0 8.72206e-05)
(-8.57228e-05 0 6.76471e-05)
(-9.25851e-05 0 4.83495e-05)
(-9.81052e-05 0 2.95745e-05)
(-0.000102172 0 1.15089e-05)
(-0.000104694 0 -5.71961e-06)
(-0.00010561 0 -2.20328e-05)
(-0.000104887 0 -3.73826e-05)
(-0.000102519 0 -5.17346e-05)
(-9.85252e-05 0 -6.50565e-05)
(-9.29481e-05 0 -7.73104e-05)
(-8.58564e-05 0 -8.84492e-05)
(-7.73445e-05 0 -9.84146e-05)
(-6.75346e-05 0 -0.000107138)
(-5.65757e-05 0 -0.000114543)
(-4.46428e-05 0 -0.00012055)
(-3.19336e-05 0 -0.000125082)
(-1.8665e-05 0 -0.000128074)
(-5.06783e-06 0 -0.000129478)
(8.61883e-06 0 -0.000129268)
(2.21534e-05 0 -0.000127448)
(3.52984e-05 0 -0.00012405)
(4.78261e-05 0 -0.000119128)
(5.95241e-05 0 -0.00011275)
(7.02003e-05 0 -0.000104996)
(7.96862e-05 0 -9.59425e-05)
(8.78397e-05 0 -8.5666e-05)
(9.4546e-05 0 -7.42323e-05)
(9.97172e-05 0 -6.16967e-05)
(0.000103292 0 -4.81037e-05)
(0.000105233 0 -3.34892e-05)
(0.000105529 0 -1.78851e-05)
(0.000104191 0 -1.32808e-06)
(0.00010126 0 1.61278e-05)
(9.68065e-05 0 3.43928e-05)
(9.0926e-05 0 5.33246e-05)
(8.3735e-05 0 7.27206e-05)
(7.53643e-05 0 9.23182e-05)
(6.59551e-05 0 0.000111791)
(5.56515e-05 0 0.00013074)
(4.4603e-05 0 0.000148592)
(3.2762e-05 0 0.000164306)
(1.95661e-05 0 0.000176123)
(4.68894e-06 0 0.000182195)
(-1.08381e-05 0 0.000181626)
(-2.53409e-05 0 0.00017452)
(-3.81952e-05 0 0.000162043)
(-4.99301e-05 0 0.000146151)
(-6.09848e-05 0 0.000128437)
(-7.13139e-05 0 0.0001098)
(-8.07691e-05 0 9.0758e-05)
(-8.92086e-05 0 7.16918e-05)
(-9.64951e-05 0 5.29086e-05)
(-0.000102503 0 3.46487e-05)
(-0.000107121 0 1.7089e-05)
(-0.000110257 0 3.44322e-07)
(-0.000111847 0 -1.55224e-05)
(-0.000111852 0 -3.04832e-05)
(-0.000110259 0 -4.45261e-05)
(-0.000107076 0 -5.76427e-05)
(-0.00010233 0 -6.98189e-05)
(-9.60733e-05 0 -8.10297e-05)
(-8.8376e-05 0 -9.12363e-05)
(-7.9334e-05 0 -0.000100386)
(-6.90673e-05 0 -0.000108411)
(-5.772e-05 0 -0.000115238)
(-4.5459e-05 0 -0.000120786)
(-3.24713e-05 0 -0.000124979)
(-1.89606e-05 0 -0.00012775)
(-5.14298e-06 0 -0.000129051)
(7.84382e-06 0 -0.000142008)
(2.0156e-05 0 -0.00014007)
(3.21152e-05 0 -0.000136457)
(4.35155e-05 0 -0.000131235)
(5.41658e-05 0 -0.000124489)
(6.38939e-05 0 -0.000116318)
(7.255e-05 0 -0.000106825)
(8.00082e-05 0 -9.6106e-05)
(8.61684e-05 0 -8.42503e-05)
(9.09555e-05 0 -7.13313e-05)
(9.43185e-05 0 -5.74075e-05)
(9.62295e-05 0 -4.25224e-05)
(9.66822e-05 0 -2.67093e-05)
(9.56915e-05 0 -9.99807e-06)
(9.32938e-05 0 7.57403e-06)
(8.95486e-05 0 2.59475e-05)
(8.45389e-05 0 4.50232e-05)
(7.83689e-05 0 6.46504e-05)
(7.11611e-05 0 8.46188e-05)
(6.30557e-05 0 0.000104656)
(5.42112e-05 0 0.000124421)
(4.48078e-05 0 0.000143494)
(3.50616e-05 0 0.000161316)
(2.51858e-05 0 0.000176972)
(1.51684e-05 0 0.000188868)
(4.83305e-06 0 0.000194906)
(-5.6529e-06 0 0.000193601)
(-1.58704e-05 0 0.000185217)
(-2.57614e-05 0 0.00017155)
(-3.54997e-05 0 0.000154642)
(-4.50163e-05 0 0.000135878)
(-5.40786e-05 0 0.000116031)
(-6.24791e-05 0 9.5603e-05)
(-7.00418e-05 0 7.49878e-05)
(-7.66116e-05 0 5.45094e-05)
(-8.20515e-05 0 3.44311e-05)
(-8.62427e-05 0 1.49584e-05)
(-8.90869e-05 0 -3.75805e-06)
(-9.05095e-05 0 -2.16133e-05)
(-9.04622e-05 0 -3.85329e-05)
(-8.89211e-05 0 -5.44574e-05)
(-8.58871e-05 0 -6.93295e-05)
(-8.1386e-05 0 -8.30863e-05)
(-7.54697e-05 0 -9.56541e-05)
(-6.82175e-05 0 -0.000106947)
(-5.97365e-05 0 -0.000116869)
(-5.01623e-05 0 -0.000125317)
(-3.9657e-05 0 -0.000132185)
(-2.84071e-05 0 -0.000137376)
(-1.6619e-05 0 -0.000140806)
(-4.51424e-06 0 -0.000142416)
(7.67683e-06 0 -0.000142175)
(1.97213e-05 0 -0.000140088)
(3.13903e-05 0 -0.000136193)
(4.24659e-05 0 -0.000130558)
(5.27462e-05 0 -0.00012327)
(6.2051e-05 0 -0.000114429)
(7.02246e-05 0 -0.000104141)
(7.7139e-05 0 -9.25083e-05)
(8.26941e-05 0 -7.96238e-05)
(8.68179e-05 0 -6.55705e-05)
(8.94655e-05 0 -5.04191e-05)
(9.06176e-05 0 -3.42304e-05)
(9.02797e-05 0 -1.70612e-05)
(8.8482e-05 0 1.02632e-06)
(8.52797e-05 0 1.99517e-05)
(8.07536e-05 0 3.9599e-05)
(7.50078e-05 0 5.9804e-05)
(6.8166e-05 0 8.03462e-05)
(6.03696e-05 0 0.000100947)
(5.17791e-05 0 0.000121265)
(4.25765e-05 0 0.000140886)
(3.29809e-05 0 0.000159261)
(2.32093e-05 0 0.000175492)
(1.32518e-05 0 0.000187997)
(2.93818e-06 0 0.000194669)
(-7.55051e-06 0 0.000194007)
(-1.77983e-05 0 0.000186252)
(-2.77607e-05 0 0.000173184)
(-3.76152e-05 0 0.000156843)
(-4.72954e-05 0 0.000138628)
(-5.65724e-05 0 0.000119329)
(-6.52413e-05 0 9.94559e-05)
(-7.31279e-05 0 7.94068e-05)
(-8.00786e-05 0 5.95033e-05)
(-8.59579e-05 0 4.00016e-05)
(-9.06478e-05 0 2.10961e-05)
(-9.40493e-05 0 2.92295e-06)
(-9.60854e-05 0 -1.44303e-05)
(-9.67031e-05 0 -3.09115e-05)
(-9.58714e-05 0 -4.64865e-05)
(-9.3581e-05 0 -6.11254e-05)
(-8.98437e-05 0 -7.47929e-05)