/*--------------------------------*- C++ -*----------------------------------*\
| =========                 |                                                 |
| \\      /  F ield         | OpenFOAM: The Open Source CFD Toolbox           |
|  \\    /   O peration     | Version:  2.3.0                                 |
|   \\  /    A nd           | Web:      www.OpenFOAM.org                      |
|    \\/     M anipulation  |                                                 |
\*---------------------------------------------------------------------------*/
FoamFile
{
    version     2.0;
    format      ascii;
    class       volScalarField;
    location    "22000";
    object      p;
}
// * * * * * * * * * * * * * * * * * * * * * * * * * * * * * * * * * * * * * //

dimensions      [0 2 -2 0 0 0 0];

internalField   nonuniform List<scalar> 
192
(
-1662.43
-1671.26
-1679.92
-1689.1
-1699.72
-1712.72
-1728.6
-1746.75
-1765.03
-1779.54
-1784.43
-1775.17
-1758.78
-1497.25
-1505.76
-1514.52
-1523.87
-1534.14
-1545.54
-1557.96
-1570.86
-1582.66
-1591.23
-1594.15
-1588.67
-1578.77
-1359.56
-1366.63
-1374.11
-1382.07
-1390.53
-1399.42
-1408.53
-1417.12
-1423.98
-1428.18
-1429.61
-1426.95
-1421.85
-1237
-1241.99
-1247.28
-1252.79
-1258.44
-1264.14
-1269.66
-1274.23
-1277
-1277.91
-1278.14
-1277.71
-1276.31
-1118.04
-1120.86
-1123.78
-1126.73
-1129.66
-1132.54
-1135.16
-1136.9
-1137.15
-1136.16
-1135.62
-1136.59
-1137.32
-996.827
-997.817
-998.764
-999.642
-1000.45
-1001.16
-1001.6
-1001.37
-1000.09
-998.036
-997.078
-998.837
-1000.76
-871.257
-870.856
-870.349
-869.756
-869.076
-868.218
-867.057
-865.364
-862.975
-860.234
-859.092
-861.257
-863.994
-741.084
-739.685
-738.176
-736.56
-734.791
-732.752
-730.326
-727.409
-724.075
-720.893
-719.691
-722.028
-725.371
-606.955
-604.798
-602.515
-600.059
-597.342
-594.261
-590.703
-586.701
-582.57
-579.107
-577.881
-580.284
-584.071
-469.812
-466.902
-463.84
-460.53
-456.859
-452.718
-448.06
-443.052
-438.205
-434.486
-433.216
-435.672
-439.863
-331.315
-327.401
-323.324
-318.941
-314.114
-308.748
-302.868
-296.764
-291.101
-286.988
-285.61
-288.195
-292.924
-195.339
-189.906
-184.359
-178.505
-172.171
-165.261
-157.847
-150.309
-143.463
-138.588
-136.96
-139.897
-145.543
-68.0252
-60.1427
-52.034
-43.5364
-34.5205
-24.9446
-14.9629
-5.07316
3.75446
10.0232
12.1348
8.4617
23.6258
33.248
42.9903
53.0535
63.7071
75.1918
87.5477
100.333
112.311
121.216
124.352
119.062
73.956
69.1561
63.3928
56.6691
48.852
39.7583
29.3118
17.8038
6.31646
-2.88145
-5.85942
-0.547776
)
;

boundaryField
{
    top
    {
        type            calculated;
        value           nonuniform List<scalar> 
12
(
-9.81
-9.81
-9.81
-9.81
-9.81
-9.81
-9.81
-9.81
-9.81
-9.81
-9.81
-9.81
)
;
    }
    bottom
    {
        type            calculated;
        value           nonuniform List<scalar> 
13
(
-1753.44
-1762.41
-1770.95
-1779.9
-1790.34
-1803.46
-1819.95
-1838.75
-1857.9
-1873.59
-1879.12
-1868.77
-1851.28
)
;
    }
    frontAndBack
    {
        type            empty;
    }
    left_cyc
    {
        type            cyclic;
    }
    right_cyc
    {
        type            cyclic;
    }
    procBoundary0to1
    {
        type            processor;
        value           nonuniform List<scalar> 
16
(
-1740.12
-1566.29
-1414.2
-1272.82
-1136.51
-1001.66
-866.147
-728.597
-588.229
-444.862
-298.85
-152.754
1.20484
1.20484
108.909
9.89738
)
;
    }
    procBoundary0to3throughleft_cyc
    {
        type            processorCyclic;
        value           nonuniform List<scalar> 
15
(
-1652.98
-1488.7
-1352.82
-1232.35
-1115.41
-995.847
-871.552
-742.355
-609.006
-472.651
-335.204
-200.857
-75.8728
14.1406
77.7712
)
;
    }
}


// ************************************************************************* //
