/*--------------------------------*- C++ -*----------------------------------*\
| =========                 |                                                 |
| \\      /  F ield         | OpenFOAM: The Open Source CFD Toolbox           |
|  \\    /   O peration     | Version:  2.3.0                                 |
|   \\  /    A nd           | Web:      www.OpenFOAM.org                      |
|    \\/     M anipulation  |                                                 |
\*---------------------------------------------------------------------------*/
FoamFile
{
    version     2.0;
    format      ascii;
    class       volScalarField;
    location    "22000";
    object      p_rgh;
}
// * * * * * * * * * * * * * * * * * * * * * * * * * * * * * * * * * * * * * //

dimensions      [0 2 -2 0 0 0 0];

internalField   nonuniform List<scalar> 
192
(
-1753.44
-1762.41
-1770.95
-1779.9
-1790.34
-1803.46
-1819.95
-1838.75
-1857.9
-1873.59
-1879.12
-1868.77
-1851.28
-1722.57
-1732.34
-1741.6
-1751
-1761.47
-1774.09
-1789.37
-1807.92
-1829.03
-1849.89
-1859.34
-1842.91
-1821.45
-1679.17
-1689.9
-1700.21
-1710.49
-1721.38
-1733.85
-1749.44
-1771.6
-1801.21
-1835.25
-1852.24
-1823.32
-1789.85
-1650.64
-1661.62
-1672.39
-1682.89
-1693.21
-1704.12
-1718.95
-1743.06
-1780.5
-1828.37
-1852.97
-1811.32
-1765.5
-1649.43
-1659.16
-1668.86
-1677.97
-1685.99
-1693.69
-1705.47
-1728.63
-1771.5
-1830.95
-1861.47
-1809.76
-1753.72
-1669.33
-1677.26
-1684.94
-1691.3
-1695.56
-1699.13
-1705.94
-1726.82
-1773.43
-1840.88
-1874.72
-1817.15
-1753.69
-1699.8
-1705.78
-1710.7
-1713.42
-1713.46
-1712.79
-1716.86
-1737.67
-1785.37
-1853.59
-1888.15
-1830
-1765.49
-1732.76
-1736.32
-1738.12
-1737.85
-1736.5
-1734.92
-1739.59
-1759.58
-1803.18
-1865.41
-1898.91
-1844.19
-1785.45
-1762.39
-1764.58
-1765.46
-1765.19
-1763.97
-1763.95
-1769.6
-1787.39
-1823.68
-1875.57
-1906.18
-1858.31
-1809.45
-1785.32
-1788.88
-1791.22
-1792.49
-1793.38
-1795.41
-1801.5
-1816.08
-1843.78
-1883.43
-1909.49
-1870.92
-1833.57
-1787.07
-1795.39
-1802.52
-1808.56
-1813.85
-1819.25
-1826.53
-1838.56
-1858.56
-1886.55
-1906.93
-1878.63
-1852.08
-1732.91
-1750.57
-1766.81
-1781.75
-1795.47
-1808.22
-1820.71
-1834.36
-1851.03
-1871.16
-1886.1
-1866.46
-1846.72
-1549.69
-1579.05
-1606.53
-1632.47
-1657.11
-1680.51
-1702.71
-1723.87
-1744.26
-1763.33
-1774.9
-1759.47
-1151.68
-1185.75
-1218.33
-1249.56
-1279.39
-1307.49
-1333.41
-1356.7
-1377
-1393.4
-1401.17
-1390.17
-427.466
-458.232
-489.707
-521.98
-555.141
-589.101
-623.37
-656.733
-686.76
-709.273
-717.171
-704.11
)
;

boundaryField
{
    top
    {
        type            fixedValue;
        value           uniform 0;
    }
    bottom
    {
        type            fixedFluxPressure;
        gradient        uniform 0;
        value           nonuniform List<scalar> 
13
(
-1753.44
-1762.41
-1770.95
-1779.9
-1790.34
-1803.46
-1819.95
-1838.75
-1857.9
-1873.59
-1879.12
-1868.77
-1851.28
)
;
    }
    frontAndBack
    {
        type            empty;
    }
    left_cyc
    {
        type            cyclic;
    }
    right_cyc
    {
        type            cyclic;
    }
    procBoundary0to1
    {
        type            processor;
        value           nonuniform List<scalar> 
16
(
-1831.82
-1801.03
-1762.66
-1732.84
-1718.33
-1716.84
-1727.65
-1750.36
-1779.73
-1810.43
-1834.76
-1830.97
-1739.47
-1739.47
-1372.2
-678.486
)
;
    }
    procBoundary0to3throughleft_cyc
    {
        type            processorCyclic;
        value           nonuniform List<scalar> 
15
(
-1743.61
-1711.74
-1667.85
-1639.47
-1640.08
-1661.91
-1693.85
-1728.27
-1759.01
-1780.56
-1777.5
-1713.72
-1518.2
-1115.78
-397.386
)
;
    }
}


// ************************************************************************* //
