/*--------------------------------*- C++ -*----------------------------------*\
| =========                 |                                                 |
| \\      /  F ield         | OpenFOAM: The Open Source CFD Toolbox           |
|  \\    /   O peration     | Version:  2.3.0                                 |
|   \\  /    A nd           | Web:      www.OpenFOAM.org                      |
|    \\/     M anipulation  |                                                 |
\*---------------------------------------------------------------------------*/
FoamFile
{
    version     2.0;
    format      ascii;
    class       surfaceScalarField;
    location    "22000";
    object      phi;
}
// * * * * * * * * * * * * * * * * * * * * * * * * * * * * * * * * * * * * * //

dimensions      [0 3 -1 0 0 0 0];

internalField   nonuniform List<scalar> 
356
(
0.308005
0.00237024
0.313045
-0.00503912
0.327197
-0.0141528
0.350332
-0.0231346
0.378434
-0.0281022
0.401329
-0.0228951
0.401738
-0.000408389
0.357561
0.0441763
0.248016
0.109545
0.0687568
0.17926
-0.138754
0.207511
-0.295554
0.156799
0.0850028
0.547156
-0.00585698
0.562147
-0.0200292
0.584223
-0.0362288
0.611274
-0.050186
0.636951
-0.0537788
0.648672
-0.0346167
0.626324
0.0219395
0.542336
0.128165
0.36934
0.28254
0.101014
0.447586
-0.204594
0.513119
-0.442336
0.394542
0.224494
0.578408
-0.0204598
0.596009
-0.0376297
0.615721
-0.0559406
0.634727
-0.0691924
0.647211
-0.066263
0.643043
-0.0304486
0.606338
0.0586447
0.515311
0.219192
0.346636
0.451215
0.0940637
0.700159
-0.190614
0.797797
-0.41633
0.620257
0.363829
0.517329
-0.0335959
0.530108
-0.0504089
0.541011
-0.0668434
0.547307
-0.0754886
0.544553
-0.0635088
0.525895
-0.0117907
0.481322
0.103218
0.39786
0.302654
0.261607
0.587468
0.0700961
0.89167
-0.141601
1.00949
-0.315815
0.794471
0.480498
0.409275
-0.0403416
0.413224
-0.0543578
0.412824
-0.0664441
0.405996
-0.06866
0.389995
-0.0475084
0.361225
0.0169797
0.315388
0.149055
0.247898
0.370144
0.155253
0.680112
0.0405004
1.00642
-0.0808776
1.13087
-0.189576
0.90317
0.564626
0.266836
-0.0391276
0.261466
-0.0489872
0.25084
-0.0558182
0.233865
-0.0516847
0.209543
-0.0231871
0.177259
0.0492643
0.137423
0.18889
0.0923169
0.41525
0.0475758
0.724853
0.0110443
1.04295
-0.0203528
1.16227
-0.0610463
0.943864
0.611045
0.10082
-0.030892
0.0881969
-0.0363641
0.0707294
-0.0383506
0.0482908
-0.0292461
0.0213778
0.0037259
-0.00808369
0.0787258
-0.0359818
0.216788
-0.0543994
0.433668
-0.0507766
0.721231
-0.0152894
1.00747
0.0336255
1.11335
0.0573084
0.920181
0.617482
-0.0721357
-0.0182244
-0.0888173
-0.0196825
-0.109462
-0.0177063
-0.133389
-0.00531906
-0.158671
0.0290087
-0.181132
0.101186
-0.193225
0.228881
-0.182608
0.423051
-0.133221
0.671843
-0.0369417
0.911188
0.0774293
0.998983
0.157526
0.840084
0.584096
-0.233485
-0.00410347
-0.251357
-0.00181039
-0.272539
0.00347582
-0.295487
0.0176289
-0.316708
0.0502292
-0.329776
0.114255
-0.324132
0.223237
-0.284874
0.383793
-0.195941
0.58291
-0.0532287
0.768476
0.10938
0.836374
0.234475
0.71499
0.514426
-0.365473
0.00917107
-0.382393
0.0151104
-0.402116
0.0231987
-0.422243
0.0377558
-0.437906
0.0658917
-0.440724
0.117074
-0.418168
0.20068
-0.354673
0.320299
-0.236409
0.464645
-0.0637313
0.595798
0.128648
0.643995
0.284419
0.559218
0.416279
-0.449628
0.0201925
-0.463755
0.0292374
-0.479913
0.0393575
-0.495286
0.0531279
-0.504306
0.0749123
-0.49773
0.110498
-0.462544
0.165494
-0.383997
0.241752
-0.251145
0.331793
-0.0676677
0.412321
0.134001
0.442326
0.302627
0.390593
0.302393
-0.466652
0.0279702
-0.475782
0.0383677
-0.485421
0.0489969
-0.493205
0.0609113
-0.494246
0.0759536
-0.480303
0.0965544
-0.439866
0.125058
-0.360322
0.162207
-0.233228
0.2047
-0.0631954
0.242288
0.122482
0.256648
0.280609
0.232466
-0.410483
0.0305872
-0.411122
0.0390062
-0.409583
0.0474583
-0.404853
0.056181
-0.394316
0.0654169
-0.373121
0.0753587
-0.334121
0.0860586
-0.26918
0.0972651
-0.172628
0.108147
-0.0472363
0.116897
0.08927
0.120142
0.114736
-0.35543
0.0187867
-0.33929
0.0228661
-0.31884
0.0270087
-0.293946
0.0312865
-0.264269
0.0357403
-0.229249
0.0403381
-0.188122
0.0449319
-0.140073
0.0492165
-0.084656
0.05273
-0.0227228
0.0549637
0.0418515
0.055568
0.0544522
-0.343201
-0.325834
-0.304065
-0.277699
-0.246494
-0.21023
-0.168829
-0.122533
-0.0721038
-0.0189409
0.0349872
)
;

boundaryField
{
    top
    {
        type            calculated;
        value           nonuniform List<scalar> 
12
(
0.00569455
0.00549872
0.00523949
0.00492054
0.00453563
0.00407426
0.00353089
0.0029201
0.00230112
0.00180084
0.00163986
0.00192907
)
;
    }
    bottom
    {
        type            calculated;
        value           uniform 0;
    }
    frontAndBack
    {
        type            empty;
        value           nonuniform 0();
    }
    left_cyc
    {
        type            cyclic;
        value           nonuniform 0();
    }
    right_cyc
    {
        type            cyclic;
        value           nonuniform 0();
    }
    procBoundary0to1
    {
        type            processor;
        value           nonuniform List<scalar> 
16
(
-0.380556
-0.581828
-0.555665
-0.432484
-0.273705
-0.107465
0.050871
0.190912
0.304145
0.382567
0.416512
0.391793
0.191209
0.207
0.102135
0.0875103
)
;
    }
    procBoundary0to3throughleft_cyc
    {
        type            processorCyclic;
        value           nonuniform List<scalar> 
15
(
-0.310376
-0.538929
-0.563806
-0.504193
-0.402529
-0.26805
-0.109056
0.059468
0.219364
0.352198
0.438606
0.458874
0.407866
0.367231
0.356293
)
;
    }
}


// ************************************************************************* //
