/*--------------------------------*- C++ -*----------------------------------*\
| =========                 |                                                 |
| \\      /  F ield         | OpenFOAM: The Open Source CFD Toolbox           |
|  \\    /   O peration     | Version:  2.3.0                                 |
|   \\  /    A nd           | Web:      www.OpenFOAM.org                      |
|    \\/     M anipulation  |                                                 |
\*---------------------------------------------------------------------------*/
FoamFile
{
    version     2.0;
    format      ascii;
    class       volVectorField;
    location    "22000";
    object      U;
}
// * * * * * * * * * * * * * * * * * * * * * * * * * * * * * * * * * * * * * //

dimensions      [0 1 -1 0 0 0 0];

internalField   nonuniform List<vector> 
192
(
(46.1617 0 0.555782)
(46.2945 0 -0.0285655)
(47.704 0 -0.805607)
(50.5669 0 -1.66721)
(54.6493 0 -2.32361)
(58.9431 0 -2.27615)
(61.3811 0 -0.920455)
(58.8765 0 2.06786)
(47.8959 0 6.53249)
(25.7364 0 11.3249)
(-5.71096 0 13.2994)
(-34.983 0 9.77203)
(-53.0486 0 4.84869)
(81.2392 0 0.0819977)
(82.9397 0 -1.6391)
(85.7401 0 -3.69107)
(89.5625 0 -5.61083)
(93.8432 0 -6.47772)
(97.2309 0 -4.8694)
(97.3135 0 0.845605)
(90.4 0 11.9216)
(72.0188 0 28.0667)
(38.418 0 45.2416)
(-8.53634 0 52.1137)
(-52.2343 0 39.7246)
(-80.1943 0 22.0097)
(85.555 0 -1.94874)
(87.9752 0 -4.4422)
(90.8331 0 -7.19939)
(93.8851 0 -9.40519)
(96.529 0 -9.56335)
(97.6161 0 -5.4197)
(95.2327 0 5.74321)
(86.5475 0 26.2866)
(67.9247 0 56.0637)
(36.0101 0 87.936)
(-7.97968 0 100.494)
(-48.9621 0 77.7033)
(-75.9113 0 44.8568)
(76.6083 0 -4.2017)
(78.5882 0 -6.84921)
(80.4394 0 -9.56214)
(81.8585 0 -11.2954)
(82.3282 0 -10.2126)
(81.0201 0 -3.56574)
(76.6875 0 12.0282)
(67.6302 0 39.6222)
(51.6964 0 79.3498)
(26.8912 0 121.966)
(-5.86429 0 138.582)
(-36.6427 0 108.305)
(-58.1884 0 64.3887)
(60.9637 0 -5.81024)
(61.8139 0 -8.19182)
(62.148 0 -10.3926)
(61.6964 0 -11.2386)
(60.1003 0 -8.72004)
(56.8826 0 0.149758)
(51.4383 0 19.0312)
(43.1227 0 51.2024)
(31.2492 0 96.7872)
(15.4962 0 145.217)
(-3.2166 0 163.836)
(-21.253 0 129.798)
(-35.7306 0 79.7151)
(40.2502 0 -6.25634)
(39.7972 0 -8.07545)
(38.6405 0 -9.50106)
(36.6114 0 -9.32577)
(33.5458 0 -5.50661)
(29.3039 0 4.96402)
(23.8435 0 25.7042)
(17.3476 0 59.8488)
(10.3603 0 107.175)
(4.10714 0 156.479)
(-0.596841 0 175.119)
(-5.81003 0 140.98)
(-12.6121 0 89.6416)
(15.8937 0 -5.47675)
(14.3522 0 -6.61955)
(12.1082 0 -7.25201)
(9.1105 0 -6.19716)
(5.36957 0 -1.46806)
(1.03397 0 9.80239)
(-3.47792 0 30.9696)
(-7.33339 0 64.7322)
(-8.96069 0 110.228)
(-6.06341 0 156.254)
(1.68439 0 173.371)
(8.08021 0 142.06)
(8.99899 0 93.6474)
(-9.72252 0 -3.79613)
(-11.9169 0 -4.30186)
(-14.7281 0 -4.27073)
(-18.1144 0 -2.59281)
(-21.9118 0 2.57552)
(-25.6996 0 13.8179)
(-28.6495 0 34.0744)
(-29.3136 0 65.3602)
(-25.4165 0 106.1)
(-14.3474 0 145.906)
(3.45387 0 160.54)
(19.4754 0 133.927)
(27.6648 0 91.5692)
(-33.8227 0 -1.68413)
(-36.2247 0 -1.61507)
(-39.1866 0 -1.04796)
(-42.583 0 0.997891)
(-46.0726 0 6.1314)
(-48.9499 0 16.5419)
(-49.9808 0 34.582)
(-47.2307 0 61.5337)
(-38.1516 0 95.4232)
(-20.4526 0 127.419)
(4.65171 0 139.119)
(27.8975 0 118.066)
(42.3329 0 83.6315)
(-53.6869 0 0.443563)
(-55.9622 0 1.06805)
(-58.7648 0 2.09169)
(-61.8807 0 4.29324)
(-64.8027 0 8.93987)
(-66.5737 0 17.7285)
(-65.6284 0 32.368)
(-59.7723 0 53.5706)
(-46.5282 0 79.4186)
(-24.2426 0 103.113)
(5.27541 0 111.785)
(33.0854 0 96.4101)
(52.1349 0 70.6609)
(-66.4991 0 2.31976)
(-68.4018 0 3.48384)
(-70.7381 0 4.89651)
(-73.2494 0 7.07393)
(-75.3462 0 10.8779)
(-75.9439 0 17.4496)
(-73.3476 0 27.8955)
(-65.348 0 42.5846)
(-49.7326 0 60.0612)
(-25.4745 0 75.7523)
(5.31809 0 81.5499)
(34.671 0 71.4647)
(56.0093 0 54.2984)
(-69.3656 0 3.61313)
(-70.6463 0 5.14243)
(-72.1055 0 6.72409)
(-73.5371 0 8.62164)
(-74.4346 0 11.2911)
(-73.8339 0 15.3372)
(-70.221 0 21.3464)
(-61.6577 0 29.5147)
(-46.3045 0 39.0615)
(-23.5224 0 47.5665)
(4.71128 0 50.7839)
(31.8269 0 45.3177)
(52.23 0 35.9935)
(-61.4557 0 5.47226)
(-61.6997 0 7.21692)
(-61.6477 0 9.01276)
(-61.2375 0 10.9056)
(-60.2237 0 12.9768)
(-58.0624 0 15.3287)
(-53.837 0 18.0539)
(-46.3203 0 21.1631)
(-34.303 0 24.4514)
(-17.3376 0 27.2935)
(3.317 0 28.4183)
(23.2612 0 26.5766)
(-54.3633 0 3.11567)
(-52.2657 0 3.92591)
(-49.5239 0 4.71949)
(-46.132 0 5.51763)
(-42.0554 0 6.32568)
(-37.2263 0 7.12663)
(-31.5421 0 7.87677)
(-24.8759 0 8.5071)
(-17.1109 0 8.94087)
(-8.24301 0 9.14061)
(1.46849 0 9.16307)
(11.0302 0 9.09965)
(-52.6206 0 2.93194)
(-50.3398 0 3.11716)
(-47.4104 0 3.28767)
(-43.8087 0 3.44782)
(-39.5005 0 3.59957)
(-34.4476 0 3.74148)
(-28.6221 0 3.86842)
(-22.029 0 3.97221)
(-14.7357 0 4.04451)
(-6.90389 0 4.08216)
(1.21713 0 4.09318)
(9.28583 0 4.07553)
)
;

boundaryField
{
    top
    {
        type            directionMixed;
        refValue        uniform (0 0 0);
        refGradient     uniform (0 0 0);
        valueFraction   uniform (0 0 0 0 0 1);
        value           nonuniform List<vector> 
12
(
(-52.6206 0 0)
(-50.3398 0 0)
(-47.4104 0 0)
(-43.8087 0 0)
(-39.5005 0 0)
(-34.4476 0 0)
(-28.6221 0 0)
(-22.029 0 0)
(-14.7357 0 0)
(-6.90389 0 0)
(1.21713 0 0)
(9.28583 0 0)
)
;
    }
    bottom
    {
        type            fixedValue;
        value           uniform (0 0 0);
    }
    frontAndBack
    {
        type            empty;
    }
    left_cyc
    {
        type            cyclic;
    }
    right_cyc
    {
        type            cyclic;
    }
    procBoundary0to1
    {
        type            processor;
        value           nonuniform List<vector> 
16
(
(-60.6949 0 0.826778)
(-94.0826 0 7.40137)
(-90.6405 0 17.9357)
(-71.4866 0 28.4568)
(-46.3474 0 38.3062)
(-19.6128 0 46.3288)
(6.25955 0 51.5588)
(29.5769 0 53.3707)
(48.846 0 51.4137)
(62.5447 0 45.7786)
(68.8349 0 37.3054)
(65.1832 0 26.6467)
(38.7008 0 23.449)
(38.7008 0 23.449)
(19.5702 0 8.83189)
(16.9755 0 4.02916)
)
;
    }
    procBoundary0to3throughleft_cyc
    {
        type            processorCyclic;
        value           nonuniform List<vector> 
15
(
(46.9799 0 0.957477)
(80.4673 0 1.32621)
(83.5969 0 -0.0614362)
(74.6495 0 -2.12312)
(59.7921 0 -3.86073)
(40.1619 0 -4.69901)
(16.8218 0 -4.46192)
(-8.11725 0 -3.34392)
(-31.9877 0 -1.76653)
(-51.9791 0 -0.169517)
(-65.0959 0 1.1818)
(-68.3137 0 2.06546)
(-60.9195 0 3.78655)
(-55.8041 0 2.27449)
(-54.2662 0 2.72926)
)
;
    }
}


// ************************************************************************* //
