/*--------------------------------*- C++ -*----------------------------------*\
| =========                 |                                                 |
| \\      /  F ield         | OpenFOAM: The Open Source CFD Toolbox           |
|  \\    /   O peration     | Version:  2.3.0                                 |
|   \\  /    A nd           | Web:      www.OpenFOAM.org                      |
|    \\/     M anipulation  |                                                 |
\*---------------------------------------------------------------------------*/
FoamFile
{
    version     2.0;
    format      ascii;
    class       volScalarField;
    location    "19000";
    object      p_rgh;
}
// * * * * * * * * * * * * * * * * * * * * * * * * * * * * * * * * * * * * * //

dimensions      [0 2 -2 0 0 0 0];

internalField   nonuniform List<scalar> 
191
(
-1831.9
-1813.68
-1798.29
-1786.2
-1776.39
-1767.68
-1759.05
-1749.79
-1739.6
-1728.36
-1715.91
-1702.01
-1686.29
-1801.12
-1783.75
-1769.12
-1757.32
-1747.32
-1738.04
-1728.65
-1718.58
-1707.22
-1694.63
-1680.8
-1665.61
-1648.81
-1762.75
-1742.94
-1728.9
-1717.13
-1706.51
-1696.24
-1685.78
-1674.82
-1663.22
-1650.37
-1636.3
-1621.14
-1604.89
-1732.95
-1712.53
-1699.88
-1689.37
-1679
-1668.38
-1657.51
-1646.44
-1635.21
-1623.82
-1612.21
-1600.39
-1588.4
-1718.44
-1700.35
-1690.73
-1683.23
-1674.82
-1665.43
-1655.65
-1646.02
-1636.86
-1628.29
-1620.24
-1612.43
-1604.21
-1716.94
-1702.52
-1697.83
-1694.38
-1689.36
-1682.43
-1674.57
-1666.77
-1659.66
-1653.5
-1648.16
-1643.05
-1637.05
-1727.75
-1714.17
-1713.31
-1713.83
-1712.92
-1709.34
-1703.94
-1697.91
-1692.18
-1687.29
-1683.22
-1679.35
-1674.27
-1750.46
-1736.82
-1735.22
-1737.07
-1738.31
-1737.92
-1735.47
-1731.53
-1726.94
-1722.42
-1718.22
-1713.91
-1708.03
-1779.81
-1766.89
-1763.79
-1764.63
-1765.61
-1765.53
-1764.25
-1761.66
-1757.96
-1753.44
-1748.18
-1741.73
-1810.49
-1799.23
-1794.91
-1793.5
-1792.6
-1791.03
-1788.27
-1784.3
-1779.14
-1772.76
-1764.85
-1754.64
-1834.8
-1824.59
-1818.14
-1812.88
-1807.38
-1800.97
-1793.43
-1784.67
-1774.66
-1763.34
-1749.84
-1733.3
-1831.02
-1817.8
-1805.23
-1792.13
-1777.95
-1762.54
-1745.78
-1727.57
-1707.79
-1686.57
-1664.38
-1639.19
-1739.55
-1718.7
-1697.04
-1674.31
-1650.38
-1625.23
-1598.72
-1570.58
-1540.44
-1508.18
-1474.6
-1441.42
-1409.17
-1372.28
-1350.84
-1326.52
-1299.71
-1270.88
-1240.46
-1208.69
-1175.56
-1140.83
-1104.18
-1065.88
-1026.42
-985.731
-678.604
-647.03
-613.047
-578.678
-544.853
-511.899
-479.823
-448.513
-417.902
-387.963
-358.261
-329.281
-304.164
)
;

boundaryField
{
    top
    {
        type            fixedValue;
        value           uniform 0;
    }
    bottom
    {
        type            fixedFluxPressure;
        gradient        uniform 0;
        value           nonuniform List<scalar> 
13
(
-1831.9
-1813.68
-1798.29
-1786.2
-1776.39
-1767.68
-1759.05
-1749.79
-1739.6
-1728.36
-1715.91
-1702.01
-1686.29
)
;
    }
    frontAndBack
    {
        type            empty;
    }
    left_cyc
    {
        type            cyclic;
    }
    right_cyc
    {
        type            cyclic;
    }
    procBoundary1to0
    {
        type            processor;
        value           nonuniform List<scalar> 
16
(
-1851.36
-1821.54
-1789.98
-1765.66
-1753.92
-1753.9
-1765.71
-1785.64
-1809.6
-1833.68
-1852.16
-1846.78
-1846.78
-1759.55
-1390.25
-704.2
)
;
    }
    procBoundary1to2
    {
        type            processor;
        value           nonuniform List<scalar> 
16
(
-1668.14
-1629.97
-1587.59
-1575.83
-1594.41
-1628.34
-1665.58
-1697.85
-1732.72
-1732.72
-1740.56
-1711.93
-1609.33
-1372.93
-945.115
-284.701
)
;
    }
}


// ************************************************************************* //
