/*--------------------------------*- C++ -*----------------------------------*\
| =========                 |                                                 |
| \\      /  F ield         | OpenFOAM: The Open Source CFD Toolbox           |
|  \\    /   O peration     | Version:  2.3.0                                 |
|   \\  /    A nd           | Web:      www.OpenFOAM.org                      |
|    \\/     M anipulation  |                                                 |
\*---------------------------------------------------------------------------*/
FoamFile
{
    version     2.0;
    format      ascii;
    class       surfaceScalarField;
    location    "19000";
    object      phi;
}
// * * * * * * * * * * * * * * * * * * * * * * * * * * * * * * * * * * * * * //

dimensions      [0 3 -1 0 0 0 0];

internalField   nonuniform List<scalar> 
353
(
-0.406441
0.0261128
-0.395874
-0.0105674
-0.369364
-0.0265099
-0.342023
-0.0273407
-0.321697
-0.0203263
-0.310773
-0.0109237
-0.308532
-0.00224117
-0.312985
0.00445278
-0.322037
0.00905235
-0.334311
0.0122736
-0.349179
0.0148678
-0.366659
0.0174798
0.0207041
-0.640704
0.0853913
-0.64823
-0.00304087
-0.629592
-0.0451486
-0.602239
-0.0546929
-0.576356
-0.0462098
-0.556578
-0.0307017
-0.543979
-0.0148401
-0.537714
-0.0018122
-0.536042
0.00737996
-0.536834
0.0130663
-0.537991
0.0160241
-0.53743
0.0169197
0.0161787
-0.62463
0.154778
-0.647678
0.0200072
-0.64457
-0.0482563
-0.628895
-0.0703685
-0.609114
-0.0659899
-0.589869
-0.0499475
-0.573202
-0.0315063
-0.559515
-0.0154996
-0.548206
-0.00392952
-0.537808
0.00266885
-0.526215
0.00443103
-0.510764
0.00146824
-0.00631808
-0.500555
0.223224
-0.534886
0.0543374
-0.547153
-0.0359885
-0.546171
-0.0713504
-0.53787
-0.0742915
-0.526043
-0.0617745
-0.512966
-0.0445827
-0.499818
-0.0286485
-0.486906
-0.0168407
-0.473767
-0.0104701
-0.459083
-0.0102531
-0.440699
-0.0169156
-0.0313046
-0.333218
0.283026
-0.372885
0.0940049
-0.396954
-0.0119198
-0.40951
-0.0587948
-0.413868
-0.0699327
-0.412551
-0.0630914
-0.407464
-0.0496701
-0.399988
-0.0361249
-0.390982
-0.0258467
-0.38072
-0.0207321
-0.368749
-0.0222235
-0.353775
-0.0318903
-0.0514424
-0.151495
0.327233
-0.189202
0.131712
-0.218956
0.0178339
-0.240753
-0.0369973
-0.255464
-0.0552223
-0.26417
-0.0543854
-0.267993
-0.0458465
-0.268023
-0.0360956
-0.265226
-0.028643
-0.260324
-0.0256346
-0.253586
-0.0289618
-0.244618
-0.0408575
-0.0638453
0.0274606
0.350696
-0.00203131
0.161204
-0.0311732
0.0469758
-0.056778
-0.0113924
-0.0775847
-0.0344156
-0.0933956
-0.0385745
-0.104485
-0.0347576
-0.111403
-0.0291774
-0.114903
-0.0251424
-0.11583
-0.024708
-0.114901
-0.0298908
-0.112432
-0.0433263
-0.0681631
0.191368
0.350163
0.174194
0.178378
0.149928
0.0712419
0.124667
0.0138682
0.101653
-0.0114014
0.0822648
-0.0191863
0.0669113
-0.0194041
0.0554832
-0.0177493
0.0474835
-0.0171427
0.042097
-0.0193215
0.0383779
-0.0261717
0.0355322
-0.0404807
0.32936
0.324749
0.326803
0.180935
0.309809
0.0882361
0.287326
0.0363512
0.264624
0.0112999
0.244391
0.00104671
0.227712
-0.00272431
0.214765
-0.00480213
0.205137
-0.0075152
0.197919
-0.0121038
0.19189
-0.0201423
-0.0344099
0.429788
0.277232
0.441852
0.168872
0.433317
0.0967714
0.415275
0.0543929
0.39479
0.0317849
0.37576
0.0200764
0.359961
0.013075
0.347857
0.0073021
0.339053
0.00128857
0.332394
-0.00544516
0.326177
-0.0139249
-0.0268406
0.478497
0.214902
0.502299
0.14507
0.502219
0.0968515
0.490113
0.0664983
0.47392
0.0479776
0.458161
0.0358362
0.444956
0.0262793
0.434966
0.0172928
0.427892
0.008362
0.422463
-1.57242e-05
0.416525
-0.00798679
-0.0181165
0.456832
0.149528
0.486996
0.114906
0.494723
0.0891239
0.490605
0.0706165
0.481732
0.0568509
0.472041
0.0455275
0.463277
0.0350425
0.455957
0.0246135
0.449935
0.0143836
0.444319
0.0056
0.437356
-0.0010238
-0.00763537
0.293029
0.104963
0.348783
0.093774
0.381049
0.0826402
0.398013
0.07216
0.406179
0.0624505
0.409634
0.0533958
0.410384
0.0447779
0.409078
0.0363485
0.405805
0.0278858
0.400789
0.0193999
0.394699
0.0116898
0.388162
0.00551385
1.58529e-05
0.155103
0.0517891
0.200904
0.0479724
0.240009
0.0435352
0.273266
0.0389039
0.301383
0.0343336
0.324848
0.0299299
0.34393
0.0256963
0.358703
0.0215756
0.369089
0.0174997
0.374967
0.0135221
0.376661
0.00999569
0.375094
0.00708087
0.00431284
0.136619
0.181466
0.22128
0.255945
0.285603
0.310496
0.330856
0.346856
0.358606
0.36628
0.370374
0.371542
)
;

boundaryField
{
    top
    {
        type            calculated;
        value           nonuniform List<scalar> 
13
(
0.00249446
0.00312556
0.00372118
0.00423914
0.00467485
0.00503722
0.00533642
0.00557599
0.00574885
0.00584807
0.00590229
0.00591308
0.00578835
)
;
    }
    bottom
    {
        type            calculated;
        value           uniform 0;
    }
    frontAndBack
    {
        type            empty;
        value           nonuniform 0();
    }
    left_cyc
    {
        type            cyclic;
        value           nonuniform 0();
    }
    right_cyc
    {
        type            cyclic;
        value           nonuniform 0();
    }
    procBoundary1to0
    {
        type            processor;
        value           nonuniform List<scalar> 
16
(
0.380329
0.581425
0.555243
0.432109
0.273416
0.107287
-0.0509236
-0.190835
-0.303945
-0.382271
-0.416167
-0.391458
-0.191376
-0.206617
-0.101929
-0.0873244
)
;
    }
    procBoundary1to2
    {
        type            processor;
        value           nonuniform List<scalar> 
16
(
-0.387363
-0.532905
-0.488267
-0.415713
-0.333637
-0.232215
-0.108114
0.0330894
-0.0657202
0.185819
0.318608
0.407801
0.426875
0.380511
0.370797
0.370066
)
;
    }
}


// ************************************************************************* //
