/*--------------------------------*- C++ -*----------------------------------*\
| =========                 |                                                 |
| \\      /  F ield         | OpenFOAM: The Open Source CFD Toolbox           |
|  \\    /   O peration     | Version:  2.3.0                                 |
|   \\  /    A nd           | Web:      www.OpenFOAM.org                      |
|    \\/     M anipulation  |                                                 |
\*---------------------------------------------------------------------------*/
FoamFile
{
    version     2.0;
    format      ascii;
    class       volVectorField;
    location    "19000";
    object      U;
}
// * * * * * * * * * * * * * * * * * * * * * * * * * * * * * * * * * * * * * //

dimensions      [0 1 -1 0 0 0 0];

internalField   nonuniform List<vector> 
191
(
(-60.6788 0 0.840249)
(-61.0668 0 -1.55848)
(-57.668 0 -2.42296)
(-53.236 0 -2.15946)
(-49.4907 0 -1.37969)
(-47.1227 0 -0.519607)
(-46.1841 0 0.19865)
(-46.4209 0 0.71814)
(-47.4969 0 1.07271)
(-49.1332 0 1.35453)
(-51.1835 0 1.64909)
(-53.6061 0 2.03671)
(-56.4493 0 2.60855)
(-94.047 0 7.45071)
(-98.0293 0 -1.71863)
(-96.4063 0 -5.86316)
(-92.4731 0 -6.41404)
(-88.2286 0 -5.03039)
(-84.7149 0 -2.97573)
(-82.2929 0 -0.997644)
(-80.9315 0 0.568376)
(-80.4082 0 1.65292)
(-80.42 0 2.36675)
(-80.6426 0 2.85332)
(-80.7679 0 3.23041)
(-80.4782 0 3.58322)
(-90.5988 0 18.0264)
(-96.6859 0 0.855551)
(-97.5787 0 -7.57494)
(-95.7784 0 -9.91549)
(-92.8887 0 -8.81457)
(-89.849 0 -6.27642)
(-87.1183 0 -3.54146)
(-84.8501 0 -1.23312)
(-83.0161 0 0.417414)
(-81.4545 0 1.39433)
(-79.8928 0 1.77748)
(-77.9727 0 1.63928)
(-75.2551 0 1.01215)
(-71.4453 0 28.578)
(-78.6456 0 5.32697)
(-81.7755 0 -6.76755)
(-82.3599 0 -11.108)
(-81.4869 0 -10.9389)
(-79.8686 0 -8.69638)
(-77.9404 0 -5.91758)
(-75.9484 0 -3.42974)
(-73.9975 0 -1.60839)
(-72.0779 0 -0.596722)
(-70.0564 0 -0.438305)
(-67.6722 0 -1.17506)
(-64.5417 0 -2.86792)
(-46.3115 0 38.447)
(-53.597 0 11.0816)
(-58.2321 0 -3.9069)
(-60.8456 0 -10.1787)
(-62.0057 0 -11.24)
(-62.1509 0 -9.74293)
(-61.6093 0 -7.38049)
(-60.6257 0 -5.10159)
(-59.3687 0 -3.38944)
(-57.9272 0 -2.49459)
(-56.2936 0 -2.5855)
(-54.3401 0 -3.83577)
(-51.8041 0 -6.43464)
(-19.5866 0 46.4773)
(-25.823 0 17.1373)
(-30.9146 0 0.353174)
(-34.7628 0 -7.4324)
(-37.4628 0 -9.70409)
(-39.1758 0 -9.14444)
(-40.0725 0 -7.48168)
(-40.322 0 -5.7022)
(-40.0824 0 -4.33752)
(-39.4863 0 -3.70397)
(-38.6161 0 -4.06369)
(-37.4697 0 -5.71137)
(-35.9293 0 -8.9701)
(6.2729 0 51.7044)
(1.98566 0 22.3763)
(-2.57896 0 4.97892)
(-6.76322 0 -3.68614)
(-10.2665 0 -6.87695)
(-13.0097 0 -7.1754)
(-15.0101 0 -6.26931)
(-16.3348 0 -5.12119)
(-17.085 0 -4.25142)
(-17.3865 0 -3.98558)
(-17.3661 0 -4.62774)
(-17.1114 0 -6.55326)
(-16.6277 0 -10.1975)
(29.5757 0 53.5042)
(27.8374 0 25.993)
(24.4336 0 9.11087)
(20.5539 0 0.256145)
(16.854 0 -3.46516)
(13.6441 0 -4.41306)
(11.0343 0 -4.16763)
(9.03788 0 -3.63529)
(7.60664 0 -3.29111)
(6.63769 0 -3.42675)
(5.98914 0 -4.34257)
(5.52093 0 -6.45305)
(5.13643 0 -10.2664)
(48.8301 0 51.5272)
(49.9619 0 27.5174)
(48.0838 0 12.2683)
(44.8684 0 3.90792)
(41.3389 0 0.0427351)
(38.0547 0 -1.35207)
(35.2658 0 -1.6666)
(33.0491 0 -1.7019)
(31.3814 0 -1.86143)
(30.1601 0 -2.37706)
(29.2146 0 -3.51595)
(28.3524 0 -5.70111)
(62.5162 0 45.8667)
(66.3859 0 26.7472)
(66.1633 0 14.2003)
(63.8392 0 7.00038)
(60.7543 0 3.34991)
(57.6927 0 1.66572)
(55.0438 0 0.843397)
(52.9513 0 0.249996)
(51.4124 0 -0.408148)
(50.3086 0 -1.27054)
(49.4106 0 -2.54298)
(48.445 0 -4.63723)
(68.7989 0 37.3655)
(74.6987 0 23.9731)
(75.9736 0 14.8864)
(74.6953 0 9.36547)
(72.3504 0 6.22238)
(69.8395 0 4.38254)
(67.6219 0 3.09561)
(65.8774 0 1.95139)
(64.6264 0 0.803124)
(63.755 0 -0.353475)
(62.9864 0 -1.62017)
(61.9753 0 -3.39879)
(65.1469 0 26.6796)
(71.8385 0 19.1515)
(74.2361 0 13.8225)
(74.1823 0 10.2979)
(73.0124 0 7.94606)
(71.5241 0 6.19603)
(70.1053 0 4.65134)
(68.8941 0 3.11167)
(67.9116 0 1.56871)
(67.0852 0 0.194174)
(66.2097 0 -0.922917)
(64.9981 0 -2.16611)
(38.653 0 23.4618)
(49.1359 0 20.1611)
(55.4351 0 17.1541)
(58.8535 0 14.5517)
(60.5476 0 12.2998)
(61.3139 0 10.2951)
(61.5871 0 8.43884)
(61.5388 0 6.65956)
(61.1954 0 4.92554)
(60.5654 0 3.27274)
(59.685 0 1.86554)
(58.7079 0 0.814577)
(57.722 0 -0.0894298)
(19.5413 0 8.83349)
(26.9579 0 8.33239)
(33.2994 0 7.65451)
(38.7001 0 6.88007)
(43.2819 0 6.07195)
(47.1368 0 5.26527)
(50.3213 0 4.46922)
(52.8597 0 3.6722)
(54.7502 0 2.85066)
(55.9747 0 2.00479)
(56.5129 0 1.23289)
(56.4838 0 0.611541)
(56.0425 0 0.0405286)
(16.9486 0 4.02949)
(24.0409 0 3.94718)
(30.4005 0 3.83507)
(35.9837 0 3.70222)
(40.7994 0 3.55635)
(44.8812 0 3.4015)
(48.2674 0 3.23798)
(50.9895 0 3.06284)
(53.067 0 2.87152)
(54.513 0 2.66318)
(55.3711 0 2.44513)
(55.7474 0 2.21097)
(55.7182 0 1.93269)
)
;

boundaryField
{
    top
    {
        type            directionMixed;
        refValue        uniform (0 0 0);
        refGradient     uniform (0 0 0);
        valueFraction   uniform (0 0 0 0 0 1);
        value           nonuniform List<vector> 
13
(
(16.9486 0 0)
(24.0409 0 0)
(30.4005 0 0)
(35.9837 0 0)
(40.7994 0 0)
(44.8812 0 0)
(48.2674 0 0)
(50.9895 0 0)
(53.067 0 0)
(54.513 0 0)
(55.3711 0 0)
(55.7474 0 0)
(55.7182 0 0)
)
;
    }
    bottom
    {
        type            fixedValue;
        value           uniform (0 0 0);
    }
    frontAndBack
    {
        type            empty;
    }
    left_cyc
    {
        type            cyclic;
    }
    right_cyc
    {
        type            cyclic;
    }
    procBoundary1to0
    {
        type            processor;
        value           nonuniform List<vector> 
16
(
(-52.9954 0 4.86787)
(-80.1088 0 22.0791)
(-75.8267 0 44.9847)
(-58.1177 0 64.559)
(-35.6802 0 79.9097)
(-12.585 0 89.8425)
(9.00122 0 93.8389)
(27.6425 0 91.7387)
(42.2889 0 83.7706)
(52.0746 0 70.7655)
(55.9414 0 54.3681)
(52.1659 0 36.0311)
(52.1659 0 36.0311)
(23.1941 0 26.5873)
(10.9971 0 9.10038)
(9.25694 0 4.07575)
)
;
    }
    procBoundary1to2
    {
        type            processor;
        value           nonuniform List<vector> 
16
(
(-59.8533 0 3.47692)
(-79.4165 0 3.96116)
(-71.2231 0 -0.0989606)
(-60.1782 0 -5.55377)
(-48.3005 0 -10.5003)
(-33.7493 0 -14.0639)
(-15.8153 0 -15.8993)
(4.79038 0 -16.2012)
(27.3981 0 -9.46606)
(27.3981 0 -9.46606)
(47.1473 0 -8.07265)
(60.3805 0 -6.18935)
(63.0721 0 -4.04725)
(56.4225 0 -1.03631)
(55.1971 0 -0.549201)
(55.3034 0 1.60593)
)
;
    }
}


// ************************************************************************* //
