/*--------------------------------*- C++ -*----------------------------------*\
| =========                 |                                                 |
| \\      /  F ield         | OpenFOAM: The Open Source CFD Toolbox           |
|  \\    /   O peration     | Version:  2.3.0                                 |
|   \\  /    A nd           | Web:      www.OpenFOAM.org                      |
|    \\/     M anipulation  |                                                 |
\*---------------------------------------------------------------------------*/
FoamFile
{
    version     2.0;
    format      ascii;
    class       volScalarField;
    location    "12000";
    object      p;
}
// * * * * * * * * * * * * * * * * * * * * * * * * * * * * * * * * * * * * * //

dimensions      [0 2 -2 0 0 0 0];

internalField   nonuniform List<scalar> 
191
(
-1740.37
-1722.78
-1707.8
-1695.67
-1685.63
-1676.7
-1668.03
-1659.01
-1649.26
-1638.59
-1626.84
-1613.8
-1599.14
-1566.46
-1553.56
-1541.43
-1530.39
-1520.44
-1511.31
-1502.65
-1494.15
-1485.51
-1476.47
-1466.88
-1456.56
-1445.33
-1414.31
-1405.41
-1396.33
-1387.56
-1379.26
-1371.45
-1364.11
-1357.15
-1350.5
-1343.99
-1337.51
-1330.98
-1324.36
-1272.88
-1267.89
-1262.25
-1256.55
-1250.94
-1245.49
-1240.29
-1235.42
-1230.89
-1226.72
-1222.87
-1219.27
-1215.88
-1136.53
-1134.42
-1131.66
-1128.75
-1125.81
-1122.87
-1119.98
-1117.22
-1114.68
-1112.39
-1110.33
-1108.43
-1106.53
-1001.65
-1001.6
-1001.04
-1000.28
-999.453
-998.553
-997.592
-996.605
-995.646
-994.75
-993.907
-993.034
-991.966
-866.123
-867.606
-868.635
-869.412
-870.061
-870.63
-871.106
-871.475
-871.741
-871.918
-871.998
-871.93
-871.61
-728.558
-731.299
-733.562
-735.494
-737.203
-738.783
-740.258
-741.617
-742.843
-743.927
-744.86
-745.609
-746.13
-588.177
-592.04
-595.421
-598.365
-600.98
-603.37
-605.607
-607.725
-609.74
-611.665
-613.505
-615.244
-444.798
-449.721
-454.207
-458.18
-461.716
-464.93
-467.929
-470.804
-473.631
-476.482
-479.419
-482.456
-298.774
-304.856
-310.582
-315.766
-320.432
-324.698
-328.705
-332.594
-336.501
-340.589
-345.024
-349.847
-152.662
-160.232
-167.512
-174.236
-180.401
-186.137
-191.626
-197.066
-202.657
-208.648
-215.285
-222.593
1.30994
-8.01067
-18.0242
-27.9236
-37.3356
-46.184
-54.5491
-62.5749
-70.4321
-78.3351
-86.8063
-96.5168
-107.104
109.054
96.5781
83.7986
71.6688
60.4448
49.9925
40.0447
30.3425
20.7312
11.3217
2.38469
-5.51375
-11.6518
9.77804
21.5357
32.833
42.8801
51.5604
59.0143
65.4263
70.893
75.3716
78.9232
82.4439
85.9847
86.3736
)
;

boundaryField
{
    top
    {
        type            calculated;
        value           nonuniform List<scalar> 
13
(
-9.81
-9.81
-9.81
-9.81
-9.81
-9.81
-9.81
-9.81
-9.81
-9.81
-9.81
-9.81
-9.81
)
;
    }
    bottom
    {
        type            calculated;
        value           nonuniform List<scalar> 
13
(
-1832.08
-1813.84
-1798.42
-1786.3
-1776.49
-1767.77
-1759.15
-1749.89
-1739.71
-1728.48
-1716.04
-1702.16
-1686.45
)
;
    }
    frontAndBack
    {
        type            empty;
    }
    left_cyc
    {
        type            cyclic;
    }
    right_cyc
    {
        type            cyclic;
    }
    procBoundary1to0
    {
        type            processor;
        value           nonuniform List<scalar> 
16
(
-1759.02
-1578.92
-1421.94
-1276.34
-1137.32
-1000.74
-863.962
-725.328
-584.019
-439.804
-292.856
-145.462
-145.462
8.53484
119.169
-0.63741
)
;
    }
    procBoundary1to2
    {
        type            processor;
        value           nonuniform List<scalar> 
16
(
-1582.33
-1432.93
-1317.69
-1212.61
-1104.38
-990.47
-870.895
-746.387
-616.881
-616.881
-485.622
-355.128
-230.63
-117.672
-15.1494
81.9631
)
;
    }
}


// ************************************************************************* //
