/*--------------------------------*- C++ -*----------------------------------*\
| =========                 |                                                 |
| \\      /  F ield         | OpenFOAM: The Open Source CFD Toolbox           |
|  \\    /   O peration     | Version:  2.3.0                                 |
|   \\  /    A nd           | Web:      www.OpenFOAM.org                      |
|    \\/     M anipulation  |                                                 |
\*---------------------------------------------------------------------------*/
FoamFile
{
    version     2.0;
    format      ascii;
    class       surfaceScalarField;
    location    "12000";
    object      phi;
}
// * * * * * * * * * * * * * * * * * * * * * * * * * * * * * * * * * * * * * //

dimensions      [0 3 -1 0 0 0 0];

internalField   nonuniform List<scalar> 
353
(
-0.406367
0.0265235
-0.39602
-0.0103473
-0.369573
-0.0264465
-0.342202
-0.0273714
-0.321805
-0.0203968
-0.310806
-0.0109991
-0.308502
-0.00230447
-0.312908
0.00440622
-0.321928
0.00902038
-0.334178
0.0122493
-0.349023
0.0148451
-0.366476
0.0174535
0.0206686
-0.640416
0.0863618
-0.64826
-0.00250357
-0.629763
-0.044944
-0.602438
-0.0546964
-0.576521
-0.0463131
-0.556689
-0.0308318
-0.544035
-0.0149577
-0.537727
-0.00190173
-0.536028
0.00732113
-0.536812
0.0130331
-0.537977
0.0160104
-0.537446
0.0169217
0.0161939
-0.624236
0.156235
-0.647582
0.0208426
-0.644634
-0.0478922
-0.629026
-0.0703041
-0.60926
-0.0660789
-0.590002
-0.05009
-0.573314
-0.0316454
-0.559607
-0.0156088
-0.548287
-0.00399927
-0.537894
0.00264039
-0.526328
0.00444367
-0.510929
0.00152335
-0.00621817
-0.500123
0.225025
-0.534687
0.0554066
-0.547099
-0.0354804
-0.5462
-0.0712029
-0.537942
-0.0743368
-0.526135
-0.0618975
-0.513064
-0.0447159
-0.499916
-0.0287573
-0.487006
-0.0169087
-0.473877
-0.0104888
-0.459218
-0.010215
-0.440883
-0.0168123
-0.0311275
-0.332807
0.28501
-0.372621
0.0952207
-0.396799
-0.011302
-0.409433
-0.058569
-0.413847
-0.0699228
-0.412568
-0.0631766
-0.407505
-0.0497785
-0.400045
-0.0362177
-0.39105
-0.0259031
-0.380801
-0.0207381
-0.368851
-0.0221653
-0.353911
-0.0317517
-0.0512083
-0.151165
0.329248
-0.188928
0.132984
-0.218743
0.0185133
-0.240599
-0.0367131
-0.255361
-0.055161
-0.26411
-0.0544276
-0.267968
-0.0459206
-0.268023
-0.0361624
-0.265246
-0.0286804
-0.260358
-0.025626
-0.253634
-0.0288891
-0.244687
-0.0406986
-0.0635786
0.0276648
0.352608
-0.00179833
0.162447
-0.030951
0.047666
-0.0565874
-0.0110766
-0.0774319
-0.0343165
-0.0932806
-0.0385789
-0.104404
-0.0347971
-0.111352
-0.0292149
-0.114875
-0.0251573
-0.115817
-0.024684
-0.114897
-0.0298083
-0.112437
-0.0431594
-0.0678847
0.191421
0.351853
0.174355
0.179513
0.150126
0.0718953
0.124862
0.0141873
0.101825
-0.0112802
0.0824082
-0.0191616
0.0670242
-0.0194131
0.0555681
-0.0177588
0.047546
-0.0171352
0.0421451
-0.0192831
0.03842
-0.0260832
0.035575
-0.0403144
0.329253
0.326127
0.326877
0.181889
0.309967
0.0888058
0.287508
0.0366456
0.264799
0.0114293
0.244542
0.00109468
0.227834
-0.00270522
0.21486
-0.00478442
0.205211
-0.00748597
0.197981
-0.0120532
0.19195
-0.0200526
-0.034253
0.429543
0.278243
0.44184
0.169592
0.433428
0.0972178
0.415435
0.0546392
0.394953
0.0319106
0.375905
0.0201431
0.360078
0.0131216
0.347946
0.00734751
0.339121
0.00133934
0.332453
-0.00538542
0.326241
-0.0138409
-0.0267045
0.478163
0.215536
0.50222
0.145535
0.502284
0.097154
0.490241
0.0666819
0.474061
0.0480904
0.458289
0.0359159
0.445061
0.0263493
0.435045
0.017363
0.427953
0.00843173
0.422519
4.83453e-05
0.416596
-0.00791743
-0.0180141
0.456486
0.149831
0.48688
0.115141
0.494741
0.0892925
0.490686
0.0707373
0.481832
0.0569442
0.472139
0.0456092
0.463365
0.0351226
0.456033
0.0246949
0.450004
0.014461
0.444392
0.00566037
0.43745
-0.00097489
-0.00757384
0.29252
0.105047
0.348489
0.0938615
0.380906
0.0827237
0.397961
0.0722372
0.406177
0.0625217
0.409659
0.0534626
0.410426
0.0448424
0.409135
0.0364128
0.405879
0.0279517
0.400875
0.019465
0.39479
0.0117446
0.388257
0.0055586
6.03608e-05
0.154769
0.0518162
0.200625
0.0480056
0.239777
0.0435709
0.273075
0.0389397
0.301228
0.0343683
0.324728
0.0299632
0.343842
0.0257285
0.358647
0.0216074
0.369067
0.0175315
0.37498
0.0135525
0.376703
0.010021
0.375159
0.00710319
0.00433561
0.136303
0.181187
0.22104
0.255743
0.285439
0.310366
0.330759
0.346791
0.358574
0.366278
0.370396
0.371584
)
;

boundaryField
{
    top
    {
        type            calculated;
        value           nonuniform List<scalar> 
13
(
0.00249033
0.0031215
0.0037177
0.00423639
0.00467278
0.00503573
0.00533543
0.0055755
0.00574895
0.00584872
0.00590308
0.00591458
0.00579124
)
;
    }
    bottom
    {
        type            calculated;
        value           uniform 0;
    }
    frontAndBack
    {
        type            empty;
        value           nonuniform 0();
    }
    left_cyc
    {
        type            cyclic;
        value           nonuniform 0();
    }
    right_cyc
    {
        type            cyclic;
        value           nonuniform 0();
    }
    procBoundary1to0
    {
        type            processor;
        value           nonuniform List<scalar> 
16
(
0.379844
0.580578
0.554363
0.431333
0.272822
0.106926
-0.0510239
-0.190666
-0.303527
-0.381659
-0.415456
-0.39078
-0.191715
-0.205852
-0.101538
-0.0869769
)
;
    }
    procBoundary1to2
    {
        type            processor;
        value           nonuniform List<scalar> 
16
(
-0.387145
-0.532971
-0.488517
-0.415973
-0.333831
-0.232317
-0.10813
0.0331372
-0.0654469
0.185889
0.318693
0.407905
0.427009
0.380623
0.370883
0.370129
)
;
    }
}


// ************************************************************************* //
