/*--------------------------------*- C++ -*----------------------------------*\
| =========                 |                                                 |
| \\      /  F ield         | OpenFOAM: The Open Source CFD Toolbox           |
|  \\    /   O peration     | Version:  2.3.0                                 |
|   \\  /    A nd           | Web:      www.OpenFOAM.org                      |
|    \\/     M anipulation  |                                                 |
\*---------------------------------------------------------------------------*/
FoamFile
{
    version     2.0;
    format      ascii;
    class       volScalarField;
    location    "12000";
    object      T;
}
// * * * * * * * * * * * * * * * * * * * * * * * * * * * * * * * * * * * * * //

dimensions      [0 0 0 1 0 0 0];

internalField   nonuniform List<scalar> 
191
(
40.3117
40.0259
39.8376
39.842
39.9399
40.0334
40.0524
39.9499
39.7612
39.5155
39.2131
38.8431
38.3866
34.4299
33.7733
33.4048
33.2907
33.2815
33.2607
33.1538
32.9267
32.5315
32.0135
31.3981
30.6891
29.8776
30.6848
29.7234
29.2869
29.0235
28.8206
28.6046
28.3321
27.9814
27.5487
26.9939
26.3304
25.576
24.7323
28.9453
27.9749
27.5338
27.2321
26.9347
26.6112
26.2563
25.869
25.4493
24.998
24.5129
23.998
23.4603
28.474
27.6913
27.3553
27.1319
26.8659
26.5526
26.2177
25.8829
25.5606
25.2548
24.963
24.6753
24.3686
28.6333
28.0557
27.8901
27.7825
27.6165
27.3769
27.1023
26.8308
26.5858
26.376
26.1965
26.028
25.8325
29.1805
28.6677
28.6021
28.5936
28.5418
28.4029
28.2053
27.9895
27.7876
27.6165
27.4765
27.3486
27.189
29.9883
29.5059
29.3915
29.389
29.3756
29.3185
29.2043
29.0497
28.8802
28.7164
28.5664
28.4188
28.2328
30.8494
30.4143
30.2459
30.1913
30.1494
30.0861
29.9958
29.8747
29.7276
29.5616
29.3789
29.1683
31.6288
31.2542
31.0501
30.9259
30.8236
30.7135
30.5811
30.4235
30.2396
30.027
29.7773
29.4727
32.1823
31.8417
31.5873
31.3695
31.1574
30.9351
30.6944
30.4308
30.1407
29.8197
29.4461
29.0012
32.1069
31.7108
31.3329
30.9554
30.5683
30.1657
29.7423
29.2921
28.8093
28.2913
27.7427
27.1243
30.6459
30.1174
29.5627
28.9911
28.4072
27.8116
27.2009
26.5675
25.9022
25.1987
24.462
23.7105
22.96
24.1765
23.6267
23.0251
22.3937
21.7442
21.0813
20.4047
19.7101
18.991
18.244
17.4779
16.7099
15.9506
10.5437
10.2448
9.90226
9.53485
9.15496
8.76969
8.38197
7.99156
7.5968
7.19819
6.8028
6.41833
6.04427
)
;

boundaryField
{
    top
    {
        type            fixedValue;
        value           uniform 0;
    }
    bottom
    {
        type            fixedValue;
        value           uniform 43.8;
    }
    frontAndBack
    {
        type            empty;
    }
    left_cyc
    {
        type            cyclic;
    }
    right_cyc
    {
        type            cyclic;
    }
    procBoundary1to0
    {
        type            processor;
        value           nonuniform List<scalar> 
16
(
40.6636
35.5947
32.4076
30.7826
30.1708
30.1503
30.5402
31.116
31.7283
32.2812
32.6691
32.5446
32.5446
31.123
24.6317
10.7722
)
;
    }
    procBoundary1to2
    {
        type            processor;
        value           nonuniform List<scalar> 
16
(
37.817
28.9402
23.8026
22.8788
23.997
25.5466
26.922
27.9293
28.8947
28.8947
29.0759
28.4464
26.4036
22.1407
15.2351
5.68297
)
;
    }
}


// ************************************************************************* //
