/*--------------------------------*- C++ -*----------------------------------*\
| =========                 |                                                 |
| \\      /  F ield         | OpenFOAM: The Open Source CFD Toolbox           |
|  \\    /   O peration     | Version:  2.3.0                                 |
|   \\  /    A nd           | Web:      www.OpenFOAM.org                      |
|    \\/     M anipulation  |                                                 |
\*---------------------------------------------------------------------------*/
FoamFile
{
    version     2.0;
    format      ascii;
    class       volScalarField;
    location    "1000";
    object      p;
}
// * * * * * * * * * * * * * * * * * * * * * * * * * * * * * * * * * * * * * //

dimensions      [0 2 -2 0 0 0 0];

internalField   nonuniform List<scalar> 
192
(
-1855.37
-1838.31
-1818.18
-1799.98
-1786.97
-1781.92
-1786.97
-1799.67
-1817.4
-1837.5
-1855.78
-1866.56
-1862.75
-1673.41
-1665.57
-1655.69
-1646.44
-1639.46
-1636.78
-1639.7
-1646.77
-1656.19
-1666.52
-1675.41
-1680.34
-1677.61
-1513.62
-1510.94
-1506.47
-1501.34
-1496.91
-1495.19
-1497.42
-1502.21
-1507.71
-1512.83
-1516.35
-1517.83
-1516.35
-1362.77
-1363.06
-1361.61
-1358.67
-1355.61
-1354.46
-1356.28
-1359.79
-1363.14
-1365.23
-1365.58
-1365
-1364.64
-1216.19
-1217.69
-1217.52
-1215.63
-1213.53
-1212.85
-1214.18
-1216.72
-1218.92
-1219.56
-1218.52
-1217.1
-1217.6
-1070.65
-1072.51
-1072.94
-1071.89
-1070.97
-1070.89
-1071.41
-1072.65
-1073.87
-1073.73
-1072.1
-1070.52
-1071.6
-924.619
-926.456
-927.345
-927.432
-928.343
-929.253
-928.392
-927.615
-927.561
-926.796
-924.952
-923.513
-924.934
-777.458
-779.222
-780.713
-782.601
-786.444
-789.07
-785.95
-782.038
-780.055
-778.504
-776.535
-775.308
-776.904
-628.916
-630.823
-633.436
-638.178
-646.681
-652.23
-645.591
-636.816
-631.812
-628.968
-626.679
-625.599
-627.252
-479.063
-481.698
-486.643
-496.241
-512.304
-522.649
-510.76
-494.257
-484.126
-478.776
-475.56
-474.452
-476.087
-329.39
-334.278
-343.91
-361.218
-385.082
-397.53
-383.006
-358.992
-340.884
-330.708
-324.941
-323.142
-324.541
-183.568
-192.311
-206.297
-229.414
-267.623
-283.2
-267.475
-227.195
-202.639
-188.546
-178.751
-175.278
-176.098
-51.679
-70.534
-104.187
-125.235
-134.507
-142.059
-133.321
-121.04
-102.815
-69.3078
-48.2183
-39.8391
22.461
0.855515
-34.9829
-58.9757
-61.5944
-62.8926
-60.6624
-57.6132
-37.5188
2.25599
23.205
43.0955
19.8319
26.6342
19.0765
0.00189739
-17.0298
-23.3347
-15.4323
3.52631
25.5016
38.8949
35.47
34.8009
)
;

boundaryField
{
    top
    {
        type            calculated;
        value           nonuniform List<scalar> 
12
(
-9.81
-9.81
-9.81
-9.81
-9.81
-9.81
-9.81
-9.81
-9.81
-9.81
-9.81
-9.81
)
;
    }
    bottom
    {
        type            calculated;
        value           nonuniform List<scalar> 
13
(
-1948.23
-1929.08
-1906.73
-1886.21
-1871.6
-1865.82
-1871.61
-1885.8
-1905.64
-1927.9
-1948.21
-1960.69
-1956.31
)
;
    }
    frontAndBack
    {
        type            empty;
    }
    left_cyc
    {
        type            cyclic;
    }
    right_cyc
    {
        type            cyclic;
    }
    procBoundary0to1
    {
        type            processor;
        value           nonuniform List<scalar> 
16
(
-1848.64
-1669.62
-1512.7
-1363.92
-1218.61
-1073.69
-927.715
-780.019
-630.463
-479.284
-327.695
-179.418
-38.7533
-38.7533
50.0973
30.3432
)
;
    }
    procBoundary0to3throughleft_cyc
    {
        type            processorCyclic;
        value           nonuniform List<scalar> 
15
(
-1862.72
-1676.21
-1513.98
-1361.89
-1215.09
-1069.78
-924.106
-777.26
-628.88
-478.986
-328.663
-181.249
-45.0903
40.6698
18.7516
)
;
    }
}


// ************************************************************************* //
