/*--------------------------------*- C++ -*----------------------------------*\
| =========                 |                                                 |
| \\      /  F ield         | OpenFOAM: The Open Source CFD Toolbox           |
|  \\    /   O peration     | Version:  2.3.0                                 |
|   \\  /    A nd           | Web:      www.OpenFOAM.org                      |
|    \\/     M anipulation  |                                                 |
\*---------------------------------------------------------------------------*/
FoamFile
{
    version     2.0;
    format      ascii;
    class       surfaceScalarField;
    location    "1000";
    object      phi;
}
// * * * * * * * * * * * * * * * * * * * * * * * * * * * * * * * * * * * * * //

dimensions      [0 3 -1 0 0 0 0];

internalField   nonuniform List<scalar> 
356
(
-0.227388
0.146899
-0.288534
0.0611468
-0.268884
-0.0196509
-0.187828
-0.0810553
-0.0650633
-0.122765
0.0743116
-0.139375
0.195898
-0.121587
0.278023
-0.0821251
0.305233
-0.0272099
0.259881
0.0453522
0.131427
0.128453
-0.0571052
0.188533
0.169465
-0.255656
0.333639
-0.33237
0.137861
-0.310058
-0.0419633
-0.214497
-0.176616
-0.0704112
-0.266851
0.0914876
-0.301274
0.235656
-0.265755
0.334038
-0.180507
0.365631
-0.0588033
0.307816
0.103167
0.144061
0.292208
-0.097367
0.429961
0.391765
-0.183567
0.488482
-0.254255
0.208549
-0.245579
-0.050639
-0.172483
-0.249712
-0.0542212
-0.385113
0.0806089
-0.436104
0.199397
-0.384543
0.275346
-0.256457
0.291561
-0.0750181
0.235154
0.159574
0.0976674
0.429695
-0.097285
0.624914
0.574862
-0.0999589
0.58972
-0.155891
0.264481
-0.161105
-0.0454251
-0.116887
-0.29393
-0.0352183
-0.466781
0.0601598
-0.531482
0.14223
-0.466614
0.188372
-0.302598
0.187817
-0.0744633
0.139649
0.207742
0.0473461
0.521998
-0.0727311
0.744991
0.692304
-0.034375
0.635479
-0.0698168
0.299923
-0.0824651
-0.0327767
-0.0634558
-0.312939
-0.0184822
-0.511755
0.0356803
-0.585644
0.0807309
-0.511664
0.100436
-0.322304
0.0894958
-0.0635231
0.055846
0.241392
0.0115034
0.56634
-0.0353541
0.791848
0.744429
0.0120009
0.631044
0.000741873
0.311182
-0.0121084
-0.0199265
-0.0131808
-0.311867
-0.00374955
-0.521186
0.00865644
-0.59805
0.0179621
-0.52097
0.0166722
-0.321014
0.0032114
-0.0500625
-0.0108019
0.255405
-0.0102334
0.565772
0.0049309
0.776684
0.739488
0.0470477
0.583902
0.0618985
0.296331
0.0550508
-0.0130789
0.0377915
-0.294608
0.011302
-0.494697
-0.0203452
-0.566403
-0.04696
-0.494355
-0.0648585
-0.303115
-0.0737956
-0.0411255
-0.0645432
0.246152
-0.024229
0.525458
0.0401258
0.712329
0.687489
0.0793432
0.501675
0.120519
0.255156
0.123891
-0.016451
0.0927304
-0.263448
0.0289725
-0.430939
-0.0498929
-0.487538
-0.113741
-0.430507
-0.145792
-0.271065
-0.145397
-0.0415202
-0.111204
0.211958
-0.0370773
0.451331
0.064412
0.610839
0.598922
0.112978
0.392386
0.17787
0.190263
0.192073
-0.0306538
0.148319
-0.219694
0.048902
-0.331522
-0.0755707
-0.363065
-0.175312
-0.330765
-0.22058
-0.225796
-0.210203
-0.0518977
-0.153035
0.154791
-0.052241
0.350537
0.0748238
0.483775
0.484761
0.144015
0.267238
0.223371
0.110907
0.241662
-0.0489458
0.186089
-0.16412
0.0637083
-0.209142
-0.0868804
-0.212476
-0.21002
-0.207626
-0.268397
-0.16742
-0.25536
-0.064934
-0.184808
0.0842381
-0.0685541
0.234284
0.0710702
0.34415
0.357512
0.157345
0.146437
0.227673
0.0405794
0.229671
-0.050944
0.161582
-0.096031
0.052093
-0.0996523
-0.0638055
-0.0965779
-0.173114
-0.0983176
-0.244846
-0.0956875
-0.249881
-0.0598999
-0.19036
0.0247171
-0.0796056
0.12353
0.0548375
0.209707
0.232557
0.125792
0.0633151
0.152644
0.0137272
0.121212
-0.0195124
0.0653209
-0.0401395
0.017425
-0.0517564
-0.0209111
-0.0582418
-0.0664593
-0.0527694
-0.12213
-0.0400166
-0.159044
-0.0229865
-0.143265
0.00893822
-0.0712106
0.0514757
0.0318404
0.106656
0.0560291
0.0366297
0.055969
0.0137873
0.0426306
-0.00617399
0.0260208
-0.0235297
0.00860803
-0.0343436
-0.0107107
-0.0389231
-0.028435
-0.0350451
-0.0436549
-0.0247967
-0.0577341
-0.00890735
-0.0602761
0.0114803
-0.0401892
0.0313888
0.0572662
0.0438183
0.0202714
0.0463252
0.0112803
0.0395399
0.000611341
0.0259916
-0.0099814
0.00916182
-0.0175139
-0.00935759
-0.0204037
-0.0263984
-0.0180043
-0.0401902
-0.0110049
-0.0482475
-0.000850023
-0.0467945
0.0100272
-0.0342363
0.0188307
0.0268805
0.0316253
0.0403142
0.0388892
0.0279628
0.0104544
-0.00958873
-0.0276635
-0.0397843
-0.0429868
-0.0361598
-0.0206356
)
;

boundaryField
{
    top
    {
        type            calculated;
        value           nonuniform List<scalar> 
12
(
0.00249637
0.00259149
0.00203636
0.000945024
-5.5367e-06
-0.000360603
7.04878e-05
0.00111582
0.00235246
0.00320022
0.00330646
0.00346558
)
;
    }
    bottom
    {
        type            calculated;
        value           uniform 0;
    }
    frontAndBack
    {
        type            empty;
        value           nonuniform 0();
    }
    left_cyc
    {
        type            cyclic;
        value           nonuniform 0();
    }
    right_cyc
    {
        type            cyclic;
        value           nonuniform 0();
    }
    procBoundary0to1
    {
        type            processor;
        value           nonuniform List<scalar> 
16
(
-0.226571
-0.319667
-0.280382
-0.190174
-0.0874801
0.00987233
0.0921252
0.152978
0.188985
0.198319
0.179793
0.134487
0.12991
0.00920072
-0.00385057
0.00277938
)
;
    }
    procBoundary0to3throughleft_cyc
    {
        type            processorCyclic;
        value           nonuniform List<scalar> 
15
(
0.0804886
0.0689158
0.0287234
-0.00127892
-0.0113851
-0.00756604
9.50086e-05
0.00288308
-0.00368868
-0.0188665
-0.0365446
-0.0426697
-0.029344
-0.02746
-0.0138503
)
;
    }
}


// ************************************************************************* //
