/*--------------------------------*- C++ -*----------------------------------*\
| =========                 |                                                 |
| \\      /  F ield         | OpenFOAM: The Open Source CFD Toolbox           |
|  \\    /   O peration     | Version:  2.3.0                                 |
|   \\  /    A nd           | Web:      www.OpenFOAM.org                      |
|    \\/     M anipulation  |                                                 |
\*---------------------------------------------------------------------------*/
FoamFile
{
    version     2.0;
    format      ascii;
    class       volScalarField;
    location    "25000";
    object      NUEff;
}
// * * * * * * * * * * * * * * * * * * * * * * * * * * * * * * * * * * * * * //

dimensions      [0 2 -1 0 0 0 0];

internalField   nonuniform List<scalar> 
765
(
0.285631
0.274669
0.257984
0.239264
0.221082
0.204815
0.191206
0.181427
0.173682
0.167478
0.162732
0.159559
0.158226
0.159081
0.161858
0.166251
0.172112
0.179468
0.188722
0.201422
0.217112
0.234941
0.25374
0.271251
0.284008
0.288087
0.281396
0.267022
0.248889
0.230186
0.212846
0.197861
0.186196
0.177459
0.17049
0.164991
0.160986
0.158661
0.158359
0.16019
0.163777
0.168894
0.175473
0.183698
0.194366
0.208646
0.225451
0.243929
0.262437
0.278084
0.287029
0.964059
0.961999
0.957939
0.951145
0.939874
0.919859
0.878779
0.772105
0.50296
0.296683
0.224967
0.196838
0.187542
0.19339
0.216164
0.273143
0.436422
0.725059
0.861789
0.912922
0.936275
0.949047
0.956672
0.961283
0.963787
0.964483
0.963319
0.960317
0.955047
0.946377
0.931645
0.903826
0.839599
0.660787
0.376995
0.253036
0.208244
0.190478
0.188432
0.201661
0.236871
0.329932
0.581346
0.809713
0.892332
0.926072
0.943249
0.953153
0.959161
0.962683
0.964297
0.985526
0.984721
0.983194
0.980803
0.977211
0.971713
0.962751
0.946385
0.910953
0.805751
0.479461
0.284963
0.243678
0.268474
0.409032
0.754189
0.896763
0.940687
0.959863
0.970045
0.976156
0.980105
0.982737
0.984448
0.985421
0.985696
0.985236
0.984081
0.982155
0.979235
0.974837
0.967931
0.956097
0.932973
0.875929
0.67556
0.351702
0.255637
0.247194
0.310824
0.573971
0.845864
0.922958
0.95152
0.96544
0.973316
0.978242
0.981489
0.983645
0.984986
0.98562
0.9912
0.99063
0.989567
0.987952
0.985624
0.982241
0.977064
0.968345
0.951848
0.914598
0.802145
0.502652
0.362252
0.446522
0.749521
0.899527
0.946034
0.965523
0.975497
0.981259
0.984963
0.987492
0.989253
0.990438
0.991125
0.99132
0.990994
0.990181
0.988858
0.986922
0.984141
0.98002
0.973464
0.961784
0.938012
0.877137
0.673046
0.402036
0.373662
0.581428
0.844707
0.927406
0.95712
0.971008
0.97858
0.983207
0.98628
0.988409
0.989878
0.990816
0.991266
0.993493
0.992978
0.992026
0.990608
0.988629
0.98586
0.981785
0.975183
0.963425
0.939703
0.882423
0.730707
0.573056
0.68245
0.859199
0.931027
0.959505
0.973123
0.980594
0.985077
0.988078
0.99021
0.991745
0.992803
0.993423
0.993598
0.993304
0.992571
0.991395
0.989721
0.987399
0.98409
0.979022
0.970403
0.954211
0.918816
0.825579
0.631424
0.591153
0.780569
0.902375
0.947471
0.967085
0.977164
0.982959
0.986637
0.989178
0.991004
0.992302
0.993146
0.993552
0.99462
0.994093
0.993116
0.99168
0.989719
0.987063
0.983295
0.977414
0.967435
0.948723
0.909512
0.827228
0.744075
0.803046
0.895437
0.942298
0.964222
0.975623
0.982202
0.986323
0.98918
0.991278
0.992827
0.99391
0.994546
0.994725
0.994424
0.993671
0.99247
0.99079
0.988523
0.985403
0.980789
0.973285
0.959954
0.933555
0.876301
0.776552
0.754471
0.852411
0.922346
0.954654
0.970478
0.979146
0.984363
0.987798
0.990256
0.992077
0.993398
0.994264
0.99468
0.995288
0.994716
0.993652
0.992086
0.989971
0.987168
0.983325
0.977608
0.968392
0.952235
0.922134
0.870556
0.82749
0.857358
0.912355
0.946976
0.965517
0.975907
0.982226
0.986395
0.989391
0.991646
0.993332
0.994514
0.995206
0.995397
0.995073
0.994253
0.992942
0.991117
0.988693
0.985449
0.980843
0.973723
0.961761
0.940023
0.89974
0.843495
0.83248
0.885034
0.931471
0.957205
0.971144
0.979258
0.984397
0.987933
0.990546
0.992517
0.993958
0.994902
0.995352
0.995778
0.995153
0.993978
0.99224
0.989887
0.986792
0.982656
0.976859
0.96806
0.953772
0.930119
0.896143
0.872025
0.888416
0.923112
0.949374
0.965413
0.975184
0.98151
0.985943
0.989239
0.991745
0.993621
0.994927
0.995686
0.995893
0.99554
0.994639
0.993187
0.991155
0.988464
0.984916
0.980093
0.97307
0.962022
0.943729
0.914464
0.880571
0.874602
0.904965
0.937071
0.95802
0.970625
0.978497
0.98379
0.987631
0.990524
0.992719
0.994316
0.995356
0.995847
0.996214
0.995539
0.994272
0.992385
0.989815
0.986445
0.982057
0.976221
0.96793
0.955576
0.937418
0.915036
0.901041
0.910408
0.932476
0.951991
0.965536
0.974586
0.980869
0.985526
0.989101
0.991842
0.993882
0.995294
0.996111
0.996336
0.995954
0.994982
0.99341
0.991195
0.988252
0.984425
0.979424
0.972561
0.962538
0.947524
0.926598
0.905809
0.902428
0.920463
0.942474
0.959109
0.970276
0.97783
0.983235
0.987348
0.990509
0.992905
0.994637
0.995759
0.996289
0.996662
0.99597
0.994677
0.99275
0.990117
0.986666
0.982258
0.976657
0.96923
0.959159
0.946055
0.931994
0.924063
0.929307
0.942763
0.956414
0.967179
0.975133
0.981084
0.985724
0.989379
0.992191
0.994276
0.995717
0.996555
0.996788
0.996393
0.995399
0.993794
0.991527
0.988505
0.984605
0.979678
0.973286
0.964677
0.953096
0.938971
0.926671
0.924792
0.935196
0.949508
0.961917
0.971261
0.978161
0.983413
0.987583
0.990826
0.993281
0.995048
0.996194
0.99674
0.997159
0.996498
0.99528
0.99348
0.991035
0.98786
0.983887
0.979038
0.973039
0.965668
0.957182
0.949163
0.945015
0.947729
0.955204
0.963783
0.971458
0.977756
0.98284
0.986994
0.990349
0.992956
0.994903
0.996257
0.997054
0.997279
0.996899
0.995956
0.994451
0.992338
0.989541
0.985975
0.981607
0.976236
0.969584
0.961578
0.952993
0.946335
0.945368
0.950886
0.959297
0.967596
0.974623
0.98031
0.984913
0.988698
0.991691
0.993974
0.995628
0.996711
0.997234
0.997713
0.997141
0.996108
0.994616
0.992636
0.990129
0.987084
0.983518
0.979401
0.974809
0.970097
0.966114
0.964196
0.96544
0.96907
0.973705
0.978366
0.982602
0.986293
0.989453
0.992086
0.994187
0.995792
0.996934
0.997621
0.997819
0.997486
0.996678
0.995416
0.993684
0.991445
0.988667
0.985376
0.981543
0.977175
0.972454
0.967953
0.964789
0.964348
0.966928
0.971212
0.975958
0.980453
0.984435
0.987866
0.990786
0.993164
0.995023
0.996402
0.997324
0.99778
0.998322
0.99789
0.997134
0.996082
0.994746
0.993126
0.991238
0.989118
0.98683
0.984492
0.982317
0.980635
0.979868
0.980361
0.981868
0.98396
0.98628
0.98859
0.990754
0.992699
0.994383
0.995787
0.996906
0.997736
0.998251
0.998403
0.998148
0.997547
0.99664
0.995445
0.993967
0.992212
0.990206
0.987995
0.985665
0.983374
0.981391
0.9801
0.979926
0.980966
0.982811
0.985055
0.987397
0.989653
0.991722
0.993547
0.995098
0.996365
0.997346
0.998027
0.998373
0.998971
0.998711
0.998275
0.997701
0.997014
0.996228
0.995349
0.994392
0.993421
0.992497
0.991699
0.99112
0.990866
0.991028
0.99154
0.992296
0.993197
0.994162
0.995125
0.996026
0.996834
0.997545
0.998148
0.998621
0.998928
0.999021
0.998866
0.998511
0.998002
0.997369
0.996632
0.995801
0.994877
0.993907
0.992951
0.992079
0.991375
0.990942
0.990885
0.991231
0.991875
0.992713
0.993656
0.99463
0.995576
0.99643
0.997192
0.997853
0.998396
0.998793
0.999003
0.999645
0.999562
0.999431
0.99927
0.999092
0.998902
0.998692
0.99846
0.998233
0.998028
0.99786
0.997743
0.997692
0.997724
0.997827
0.997985
0.998182
0.998405
0.998637
0.998854
0.999048
0.999229
0.999394
0.999534
0.999631
0.999662
0.999611
0.999501
0.999353
0.999183
0.998999
0.998802
0.998576
0.998345
0.998128
0.997939
0.997794
0.997707
0.997696
0.997765
0.997896
0.998075
0.998287
0.998517
0.998749
0.998951
0.999137
0.999311
0.999466
0.999588
0.999656
)
;

boundaryField
{
    top
    {
        type            calculated;
        value           uniform 1;
    }
    bottom
    {
        type            calculated;
        value           uniform 0.148957;
    }
    frontAndBack
    {
        type            empty;
    }
    left_cyc
    {
        type            cyclic;
    }
    right_cyc
    {
        type            cyclic;
    }
}


// ************************************************************************* //
