/*--------------------------------*- C++ -*----------------------------------*\
| =========                 |                                                 |
| \\      /  F ield         | OpenFOAM: The Open Source CFD Toolbox           |
|  \\    /   O peration     | Version:  2.3.0                                 |
|   \\  /    A nd           | Web:      www.OpenFOAM.org                      |
|    \\/     M anipulation  |                                                 |
\*---------------------------------------------------------------------------*/
FoamFile
{
    version     2.0;
    format      ascii;
    class       volScalarField;
    location    "25000";
    object      NUEff;
}
// * * * * * * * * * * * * * * * * * * * * * * * * * * * * * * * * * * * * * //

dimensions      [0 2 -1 0 0 0 0];

internalField   nonuniform List<scalar> 
3060
(
0.186878
0.18639
0.185406
0.184001
0.182265
0.180299
0.178209
0.176097
0.174046
0.172118
0.170378
0.168721
0.167111
0.165549
0.164039
0.162567
0.161133
0.159744
0.158417
0.157178
0.156052
0.155062
0.154237
0.153603
0.153188
0.153019
0.153115
0.153463
0.154038
0.154813
0.155758
0.156848
0.158058
0.159362
0.160735
0.162159
0.163622
0.165124
0.166675
0.168277
0.169923
0.171638
0.173521
0.175541
0.177639
0.179736
0.181734
0.183527
0.185013
0.186098
0.186703
0.186768
0.186281
0.185299
0.183898
0.182166
0.180207
0.178124
0.176019
0.173976
0.172054
0.170318
0.168661
0.167052
0.16549
0.163979
0.162507
0.161073
0.159685
0.158361
0.157126
0.156004
0.155022
0.154204
0.153579
0.153174
0.153018
0.153125
0.153484
0.154069
0.154852
0.155804
0.156899
0.158113
0.15942
0.160795
0.162219
0.163682
0.165184
0.166735
0.168337
0.169984
0.171702
0.173591
0.175618
0.177724
0.179828
0.181832
0.18363
0.18512
0.186207
0.186814
0.849191
0.845236
0.836558
0.822296
0.800885
0.769931
0.726316
0.667274
0.593442
0.512141
0.434323
0.369959
0.320366
0.283351
0.255681
0.234343
0.217549
0.204167
0.193449
0.184882
0.178071
0.172726
0.168646
0.165712
0.163875
0.163142
0.163557
0.165087
0.167709
0.171456
0.176427
0.182797
0.190832
0.200896
0.213466
0.229213
0.249152
0.274872
0.309041
0.355097
0.415425
0.490152
0.571556
0.648363
0.711626
0.759127
0.793106
0.816754
0.832685
0.842666
0.847724
0.848248
0.844251
0.835482
0.821066
0.799422
0.768136
0.724086
0.664575
0.590429
0.509187
0.431785
0.367937
0.318791
0.282133
0.254719
0.233571
0.216923
0.203656
0.193034
0.184547
0.177803
0.172516
0.168489
0.165605
0.163818
0.163136
0.163603
0.165182
0.167854
0.171652
0.17668
0.183116
0.191227
0.201384
0.214064
0.229948
0.250064
0.276023
0.310532
0.357018
0.417862
0.493062
0.574619
0.651182
0.713985
0.761028
0.794646
0.818037
0.833795
0.84367
0.848674
0.961424
0.960872
0.959698
0.957869
0.955322
0.951957
0.947635
0.942153
0.935201
0.926264
0.914436
0.898149
0.874443
0.83726
0.775924
0.671677
0.522116
0.386121
0.301071
0.251995
0.222356
0.203475
0.191098
0.183091
0.178398
0.176581
0.177606
0.181465
0.188462
0.199448
0.216181
0.242152
0.284446
0.357188
0.479177
0.632607
0.751786
0.823132
0.865853
0.892492
0.910459
0.923322
0.932942
0.940373
0.946216
0.950824
0.954425
0.957173
0.959176
0.960509
0.96121
0.961285
0.96073
0.959549
0.95771
0.955148
0.951763
0.947413
0.941893
0.934887
0.92587
0.913914
0.897412
0.873321
0.835394
0.772686
0.666204
0.515566
0.38144
0.298331
0.250363
0.221327
0.202799
0.190651
0.182811
0.178254
0.176566
0.17772
0.181711
0.188865
0.200061
0.217111
0.24361
0.286861
0.361337
0.485478
0.638614
0.755504
0.82524
0.867111
0.893306
0.911026
0.923744
0.933274
0.940646
0.946448
0.951026
0.954605
0.957336
0.959328
0.960653
0.96135
0.979735
0.979483
0.978949
0.97813
0.977009
0.975564
0.973758
0.971541
0.968833
0.965511
0.961375
0.956106
0.949179
0.939697
0.926068
0.905352
0.870888
0.806553
0.676515
0.47879
0.335577
0.264845
0.228702
0.20895
0.198489
0.194626
0.196791
0.205232
0.2219
0.252243
0.310208
0.428805
0.623371
0.778398
0.856786
0.897412
0.921102
0.936334
0.946806
0.954344
0.960017
0.964433
0.967958
0.970821
0.973164
0.975075
0.976612
0.977814
0.978709
0.979314
0.979635
0.97967
0.979416
0.978881
0.978057
0.976931
0.975479
0.973664
0.971434
0.968709
0.965363
0.961191
0.955869
0.94886
0.939246
0.92539
0.904258
0.868935
0.802635
0.668726
0.470505
0.3312
0.262671
0.227529
0.208302
0.198179
0.194594
0.197034
0.20579
0.222923
0.25411
0.313895
0.436179
0.632008
0.783095
0.859078
0.898664
0.921864
0.936838
0.947153
0.954599
0.960212
0.964589
0.968088
0.970933
0.973262
0.975162
0.976692
0.977888
0.978779
0.979381
0.9797
0.986794
0.986633
0.986293
0.985774
0.985068
0.984167
0.983051
0.981696
0.980061
0.978084
0.975673
0.97268
0.968882
0.963921
0.9572
0.947736
0.933639
0.910974
0.870428
0.787143
0.611407
0.405773
0.297702
0.249365
0.227122
0.219447
0.223707
0.241184
0.280056
0.365743
0.546986
0.748623
0.852881
0.901895
0.928303
0.944297
0.954832
0.962208
0.967596
0.971682
0.974877
0.977437
0.979526
0.98125
0.982679
0.983857
0.984815
0.985571
0.986139
0.986524
0.98673
0.986753
0.986591
0.98625
0.985728
0.985019
0.984113
0.982992
0.98163
0.979985
0.977995
0.975564
0.972545
0.968707
0.963686
0.956871
0.947254
0.932885
0.909686
0.867947
0.781669
0.601295
0.398759
0.294584
0.247918
0.226495
0.219383
0.224193
0.242395
0.282645
0.371566
0.557219
0.755266
0.855855
0.903387
0.929156
0.944833
0.955192
0.962463
0.967785
0.971827
0.974992
0.977531
0.979605
0.981319
0.98274
0.983912
0.984865
0.985618
0.986183
0.986567
0.986772
0.990335
0.990213
0.989956
0.989565
0.989036
0.988363
0.987536
0.986537
0.985341
0.983907
0.982176
0.980057
0.977414
0.974037
0.969586
0.963523
0.954918
0.942028
0.921236
0.884004
0.807335
0.640131
0.428181
0.315415
0.269315
0.254633
0.262686
0.297821
0.385836
0.575371
0.771458
0.867837
0.912869
0.937115
0.95176
0.961358
0.968028
0.972874
0.976517
0.979346
0.981599
0.983432
0.984945
0.986205
0.987256
0.98813
0.988844
0.989411
0.989839
0.990131
0.990287
0.990305
0.990182
0.989924
0.989531
0.989
0.988324
0.987493
0.986489
0.985285
0.983842
0.982098
0.979961
0.977292
0.973876
0.969369
0.963217
0.954467
0.941322
0.920031
0.881687
0.802197
0.630002
0.420693
0.312253
0.268087
0.254513
0.263621
0.300383
0.392024
0.585882
0.777735
0.870611
0.914264
0.937912
0.952261
0.961693
0.968265
0.973047
0.976648
0.979448
0.981682
0.9835
0.985003
0.986255
0.987301
0.98817
0.988881
0.989446
0.989871
0.990162
0.990318
0.992344
0.992241
0.992024
0.991694
0.99125
0.990687
0.99
0.989176
0.988196
0.98703
0.985635
0.983944
0.981859
0.97923
0.975818
0.971252
0.964939
0.955826
0.941903
0.918919
0.876661
0.788163
0.608593
0.421498
0.332918
0.305956
0.32058
0.387318
0.547256
0.747253
0.857993
0.909497
0.936505
0.952428
0.962649
0.969629
0.974621
0.97832
0.981146
0.983371
0.985165
0.986639
0.987868
0.988899
0.989767
0.990492
0.991088
0.991565
0.991925
0.992173
0.992305
0.99232
0.992217
0.991999
0.991667
0.991221
0.990656
0.989966
0.989137
0.988151
0.986977
0.985572
0.983867
0.981762
0.979104
0.975651
0.971023
0.964611
0.955334
0.941119
0.917549
0.873964
0.782204
0.598627
0.415374
0.330618
0.30574
0.322306
0.392294
0.556972
0.754406
0.861235
0.911091
0.937396
0.952975
0.96301
0.969879
0.974801
0.978455
0.98125
0.983453
0.985231
0.986694
0.987914
0.988939
0.989802
0.990524
0.991118
0.991592
0.991951
0.992197
0.992329
0.993568
0.993473
0.993274
0.992971
0.992566
0.992056
0.991436
0.990699
0.989829
0.988804
0.987589
0.986131
0.98435
0.982126
0.979269
0.975493
0.970355
0.963105
0.952384
0.935525
0.906734
0.852085
0.739928
0.559607
0.426048
0.381141
0.40549
0.51161
0.69248
0.827727
0.894652
0.92884
0.948307
0.960428
0.968498
0.974148
0.978262
0.981351
0.983736
0.985633
0.987177
0.988459
0.989537
0.990451
0.991226
0.991879
0.99242
0.992854
0.993185
0.993412
0.993534
0.993548
0.993453
0.993253
0.992949
0.992542
0.992029
0.991407
0.990666
0.989791
0.988759
0.987535
0.986065
0.984268
0.98202
0.979129
0.975303
0.970089
0.962717
0.951789
0.934546
0.904969
0.848534
0.732751
0.551414
0.422235
0.38078
0.40837
0.518912
0.700551
0.83198
0.896723
0.929959
0.948974
0.960857
0.968789
0.974354
0.978413
0.981464
0.983824
0.985702
0.987234
0.988506
0.989577
0.990485
0.991256
0.991906
0.992444
0.992877
0.993206
0.993432
0.993554
0.994352
0.994259
0.994064
0.993769
0.993375
0.992883
0.992288
0.991587
0.990767
0.989811
0.98869
0.987358
0.985747
0.983754
0.981215
0.977893
0.973427
0.967224
0.958254
0.944603
0.922428
0.883404
0.809607
0.680108
0.542608
0.483287
0.516163
0.636598
0.778284
0.866844
0.913443
0.939298
0.954878
0.964943
0.971812
0.976706
0.980316
0.983055
0.985188
0.9869
0.988308
0.989489
0.990492
0.991352
0.992088
0.992713
0.993236
0.993657
0.99398
0.994201
0.994321
0.994334
0.994242
0.994046
0.99375
0.993354
0.992859
0.992262
0.991557
0.990733
0.989771
0.988642
0.987299
0.985674
0.98366
0.981092
0.977726
0.973197
0.966894
0.957761
0.943824
0.921107
0.880969
0.804933
0.673095
0.537826
0.482784
0.519941
0.643581
0.78367
0.869698
0.914965
0.940178
0.955426
0.965306
0.972063
0.976886
0.980449
0.983156
0.985266
0.986962
0.988359
0.989531
0.990528
0.991382
0.992115
0.992737
0.993257
0.993677
0.993998
0.994219
0.994338
0.994879
0.994784
0.994585
0.994284
0.993884
0.993385
0.992787
0.992087
0.991277
0.990342
0.989259
0.987986
0.986464
0.984599
0.982243
0.97919
0.975128
0.969558
0.96164
0.949887
0.931506
0.900991
0.847798
0.75895
0.652196
0.595816
0.627973
0.727528
0.826146
0.888557
0.924242
0.945382
0.958678
0.967511
0.973656
0.978094
0.981404
0.983942
0.985934
0.987548
0.98889
0.990029
0.991007
0.991855
0.992588
0.993216
0.993744
0.994173
0.994501
0.994728
0.994849
0.994863
0.994769
0.994569
0.994267
0.993865
0.993364
0.992763
0.99206
0.991246
0.990306
0.989214
0.987932
0.986396
0.984512
0.982129
0.979038
0.974919
0.969263
0.961208
0.949226
0.930435
0.899151
0.844556
0.754007
0.647944
0.595299
0.631513
0.732662
0.829832
0.890671
0.925459
0.946123
0.959155
0.967834
0.973882
0.978258
0.981526
0.984034
0.986006
0.987606
0.988937
0.990067
0.99104
0.991883
0.992613
0.993238
0.993764
0.994191
0.994518
0.994744
0.994865
0.995254
0.995155
0.994945
0.994629
0.994209
0.993687
0.993065
0.992341
0.991511
0.990563
0.989476
0.988216
0.986726
0.984919
0.98266
0.979761
0.975944
0.970769
0.963524
0.952995
0.937041
0.911808
0.870853
0.807633
0.732751
0.690424
0.714862
0.785758
0.854927
0.901867
0.930859
0.949
0.960824
0.968868
0.974556
0.978717
0.981852
0.98428
0.986206
0.987783
0.989109
0.990248
0.991238
0.992105
0.992862
0.993515
0.994066
0.994515
0.99486
0.995098
0.995225
0.99524
0.99514
0.99493
0.994613
0.994191
0.993668
0.993043
0.992316
0.991481
0.990528
0.989434
0.988164
0.986662
0.984837
0.982552
0.979618
0.975749
0.970498
0.963133
0.95241
0.936129
0.910333
0.868457
0.804209
0.729663
0.690019
0.717491
0.789314
0.857596
0.903532
0.931882
0.94965
0.961254
0.969165
0.974767
0.978871
0.981967
0.984368
0.986275
0.987838
0.989154
0.990284
0.991269
0.992131
0.992884
0.993535
0.994084
0.994532
0.994875
0.995112
0.995239
0.99554
0.995434
0.995211
0.994873
0.994424
0.993866
0.993204
0.992437
0.991563
0.990574
0.989452
0.988167
0.986665
0.984866
0.982642
0.979821
0.976146
0.971221
0.964423
0.954738
0.940478
0.918876
0.885962
0.839013
0.786656
0.757378
0.774246
0.823414
0.873691
0.910608
0.935045
0.951094
0.961898
0.969411
0.974807
0.978803
0.981846
0.984229
0.986144
0.987729
0.989078
0.99025
0.991281
0.992192
0.992992
0.993687
0.994275
0.994755
0.995123
0.995376
0.995512
0.995527
0.995421
0.995197
0.994858
0.994407
0.993848
0.993183
0.992413
0.991535
0.99054
0.989412
0.988117
0.986603
0.984787
0.982539
0.979685
0.975961
0.970965
0.96406
0.954208
0.939679
0.917649
0.884111
0.836571
0.78453
0.757097
0.776057
0.825913
0.875713
0.911972
0.935932
0.95168
0.962296
0.969689
0.975007
0.97895
0.981957
0.984314
0.98621
0.987781
0.98912
0.990285
0.99131
0.992217
0.993014
0.993706
0.994292
0.99477
0.995137
0.995389
0.995525
0.995776
0.995663
0.995423
0.995059
0.994574
0.993973
0.993259
0.992434
0.991497
0.990444
0.989261
0.987919
0.986371
0.984539
0.982305
0.979506
0.975901
0.97113
0.964642
0.955577
0.942594
0.923701
0.896529
0.860501
0.822976
0.80275
0.814313
0.849024
0.886778
0.916657
0.937722
0.952194
0.962239
0.969377
0.974587
0.978494
0.981506
0.983893
0.985837
0.987467
0.988872
0.990105
0.991201
0.992175
0.993036
0.993784
0.994418
0.994935
0.995331
0.995603
0.995749
0.995765
0.995651
0.99541
0.995045
0.994559
0.993956
0.993239
0.992411
0.99147
0.990412
0.989222
0.987871
0.98631
0.984461
0.982204
0.979373
0.975722
0.970886
0.9643
0.955089
0.941882
0.922658
0.895058
0.858704
0.821499
0.802557
0.81556
0.85083
0.888355
0.9178
0.938505
0.952729
0.962612
0.969642
0.974779
0.978637
0.981614
0.983976
0.985902
0.987519
0.988913
0.99014
0.991229
0.992199
0.993056
0.993802
0.994434
0.994949
0.995344
0.995615
0.995761
0.995987
0.995865
0.995607
0.995215
0.994692
0.994042
0.993268
0.992374
0.991361
0.990226
0.988958
0.987534
0.985909
0.98401
0.981729
0.978909
0.975323
0.970643
0.96438
0.955806
0.943863
0.927134
0.904359
0.876113
0.848516
0.834204
0.842332
0.867464
0.896471
0.921052
0.939441
0.952633
0.96207
0.968927
0.974017
0.977891
0.980917
0.983347
0.985355
0.987061
0.988549
0.989867
0.991047
0.9921
0.993032
0.993842
0.994527
0.995085
0.995511
0.995804
0.995959
0.995976
0.995854
0.995595
0.995202
0.994678
0.994026
0.99325
0.992352
0.991334
0.990194
0.988919
0.987486
0.985849
0.983933
0.98163
0.978779
0.975149
0.970408
0.964056
0.955354
0.943224
0.926237
0.903172
0.874762
0.847467
0.83407
0.843209
0.8688
0.897722
0.922019
0.940139
0.953126
0.962422
0.969181
0.974204
0.978031
0.981023
0.983429
0.985419
0.987112
0.98859
0.989901
0.991074
0.992123
0.993052
0.993859
0.994542
0.995098
0.995524
0.995815
0.99597
0.996187
0.996057
0.995781
0.995361
0.994799
0.994098
0.993261
0.992291
0.991192
0.989961
0.988592
0.987063
0.985336
0.983343
0.980985
0.97811
0.974504
0.969874
0.963791
0.955647
0.94463
0.929799
0.910579
0.888097
0.867327
0.856923
0.86279
0.881442
0.904123
0.92453
0.940622
0.952663
0.961562
0.968185
0.973197
0.977076
0.980153
0.982657
0.984757
0.986565
0.988158
0.98958
0.990857
0.992
0.99301
0.993886
0.994625
0.995224
0.995681
0.995993
0.996158
0.996176
0.996046
0.995769
0.995348
0.994785
0.994082
0.993242
0.99227
0.991166
0.98993
0.988554
0.987016
0.985277
0.983268
0.980887
0.977982
0.974335
0.969648
0.963484
0.955228
0.944057
0.929029
0.909614
0.887064
0.866563
0.856828
0.863423
0.882449
0.905126
0.925351
0.941242
0.953118
0.961894
0.968429
0.973379
0.977214
0.980258
0.982738
0.984821
0.986616
0.988199
0.989614
0.990885
0.992022
0.993029
0.993902
0.994639
0.995237
0.995692
0.996003
0.996169
0.996384
0.996246
0.995953
0.995507
0.994908
0.994158
0.993259
0.992213
0.991024
0.989691
0.988209
0.98656
0.984712
0.982604
0.980146
0.977199
0.973565
0.968975
0.963061
0.955331
0.945182
0.932031
0.915763
0.897707
0.88182
0.874098
0.878423
0.892514
0.910448
0.927462
0.941551
0.952532
0.960913
0.967312
0.972257
0.976152
0.979291
0.98189
0.984104
0.986034
0.987748
0.989287
0.99067
0.991905
0.992994
0.993935
0.994726
0.995365
0.99585
0.996181
0.996356
0.996374
0.996236
0.995943
0.995495
0.994895
0.994143
0.993241
0.992192
0.990999
0.989661
0.988171
0.986513
0.984653
0.982529
0.98005
0.977074
0.973401
0.968758
0.962772
0.954944
0.944669
0.931372
0.914977
0.896909
0.881254
0.874029
0.878888
0.893284
0.911255
0.928158
0.9421
0.952948
0.961225
0.967546
0.972434
0.976286
0.979394
0.98197
0.984167
0.986084
0.987789
0.98932
0.990697
0.991927
0.993012
0.993951
0.99474
0.995377
0.995861
0.996191
0.996365
0.996585
0.99644
0.996132
0.995662
0.995031
0.994238
0.993284
0.992169
0.990896
0.989464
0.987868
0.986095
0.984118
0.981886
0.979319
0.97629
0.97262
0.968072
0.962337
0.955027
0.945722
0.934109
0.920362
0.905813
0.893547
0.887738
0.89097
0.901732
0.915983
0.930161
0.942451
0.952417
0.960277
0.966443
0.971316
0.975229
0.978441
0.981145
0.98348
0.98554
0.987381
0.989037
0.990523
0.991846
0.993007
0.994006
0.994842
0.995515
0.996025
0.996373
0.996556
0.996576
0.996431
0.996122
0.995652
0.995019
0.994223
0.993267
0.992149
0.990871
0.989433
0.98783
0.986049
0.984059
0.981812
0.979225
0.976168
0.972462
0.967866
0.962067
0.954675
0.945269
0.933549
0.919723
0.905194
0.893124
0.887686
0.891316
0.902322
0.916631
0.930746
0.942932
0.952794
0.960567
0.966664
0.971485
0.97536
0.978542
0.981224
0.983543
0.98559
0.987422
0.989069
0.990549
0.991867
0.993025
0.994021
0.994855
0.995527
0.996036
0.996382
0.996565
0.996793
0.996642
0.996323
0.995836
0.99518
0.994354
0.993356
0.992186
0.990842
0.989322
0.987623
0.985735
0.983634
0.981282
0.97861
0.975504
0.971809
0.967323
0.961795
0.954938
0.946482
0.936314
0.924774
0.91308
0.903589
0.899194
0.901626
0.909874
0.921185
0.932933
0.943566
0.95253
0.95984
0.96574
0.970517
0.974437
0.977715
0.980518
0.982971
0.985155
0.987115
0.988877
0.990454
0.991851
0.993072
0.994116
0.994987
0.995686
0.996215
0.996574
0.996765
0.996785
0.996634
0.996314
0.995826
0.995169
0.994341
0.99334
0.992166
0.990818
0.989293
0.987587
0.985689
0.983577
0.98121
0.978519
0.975387
0.971659
0.96713
0.961547
0.954622
0.946087
0.935844
0.92426
0.912603
0.903273
0.899156
0.901883
0.910325
0.921701
0.933419
0.943981
0.952866
0.960105
0.965946
0.970678
0.974562
0.977813
0.980595
0.983032
0.985204
0.987155
0.988909
0.99048
0.991872
0.993089
0.994131
0.995
0.995697
0.996224
0.996583
0.996773
0.997011
0.996857
0.996531
0.996034
0.995365
0.99452
0.993495
0.992288
0.990895
0.989312
0.987535
0.985554
0.983353
0.980905
0.978151
0.974995
0.971307
0.966925
0.961658
0.955308
0.947731
0.938953
0.929385
0.920074
0.91277
0.909454
0.911281
0.917575
0.926481
0.936102
0.945175
0.953124
0.959832
0.96541
0.970045
0.973935
0.97725
0.980128
0.982674
0.984958
0.987013
0.988856
0.990499
0.991948
0.993207
0.99428
0.995171
0.995884
0.996422
0.996789
0.996983
0.997003
0.996849
0.996523
0.996025
0.995354
0.994507
0.99348
0.99227
0.990872
0.989284
0.987499
0.98551
0.983298
0.980836
0.978064
0.974884
0.971167
0.966747
0.961434
0.955031
0.947395
0.938567
0.928979
0.919711
0.912536
0.909426
0.91147
0.917916
0.926884
0.936498
0.945525
0.953417
0.96007
0.965599
0.970195
0.974053
0.977343
0.980202
0.982733
0.985006
0.987051
0.988887
0.990524
0.991968
0.993223
0.994293
0.995182
0.995894
0.996431
0.996797
0.99699
0.997239
0.997084
0.996758
0.996261
0.995591
0.994744
0.993714
0.992497
0.991087
0.989476
0.98766
0.98563
0.983375
0.980878
0.978092
0.974939
0.971321
0.967114
0.962188
0.956425
0.949776
0.942355
0.934577
0.92729
0.921747
0.919275
0.920633
0.925375
0.932275
0.940006
0.947589
0.954491
0.960523
0.965697
0.970116
0.973909
0.977203
0.980104
0.982694
0.985032
0.987136
0.989019
0.990691
0.992159
0.993428
0.994506
0.995399
0.996112
0.996651
0.997017
0.997212
0.997232
0.997077
0.996751
0.996252
0.995581
0.994732
0.9937
0.99248
0.991065
0.989449
0.987626
0.985588
0.983323
0.980813
0.97801
0.974838
0.971194
0.966956
0.961993
0.956188
0.949498
0.942047
0.934265
0.927019
0.921577
0.919255
0.92077
0.925627
0.932583
0.940319
0.947877
0.954739
0.96073
0.965865
0.970251
0.974018
0.97729
0.980174
0.982751
0.985077
0.987172
0.989048
0.990715
0.992178
0.993444
0.994519
0.99541
0.996122
0.996659
0.997025
0.997219
0.997478
0.997326
0.997006
0.996518
0.995862
0.995033
0.994024
0.992829
0.99144
0.989848
0.988048
0.986032
0.983792
0.98132
0.978582
0.97552
0.972065
0.968137
0.963657
0.958575
0.952911
0.946821
0.940677
0.935121
0.931014
0.929212
0.930201
0.933695
0.938907
0.944949
0.951104
0.956921
0.962189
0.966853
0.970949
0.974549
0.977733
0.980573
0.98313
0.985449
0.987537
0.989403
0.991055
0.9925
0.993747
0.994803
0.995677
0.996375
0.996902
0.997261
0.997452
0.997472
0.997319
0.996999
0.996511
0.995853
0.995022
0.994011
0.992813
0.991419
0.989823
0.988016
0.985992
0.983743
0.98126
0.978508
0.975429
0.971953
0.968
0.963492
0.958381
0.952691
0.946584
0.940445
0.934926
0.930894
0.929198
0.930298
0.933875
0.939134
0.945188
0.951331
0.957123
0.962362
0.966998
0.971068
0.974646
0.977811
0.980637
0.983182
0.985491
0.987571
0.989431
0.991077
0.992518
0.993761
0.994815
0.995687
0.996383
0.996909
0.997267
0.997458
0.997726
0.99758
0.997273
0.996807
0.996181
0.99539
0.994429
0.993291
0.991967
0.990449
0.98873
0.986804
0.984667
0.982318
0.979732
0.976875
0.973705
0.970178
0.966263
0.961958
0.957323
0.95252
0.947849
0.943764
0.940824
0.939553
0.940253
0.942743
0.946545
0.951093
0.955896
0.960606
0.965025
0.969066
0.972716
0.975998
0.978955
0.981627
0.984051
0.986259
0.988251
0.990031
0.991606
0.992982
0.994168
0.995173
0.996005
0.996671
0.997175
0.997519
0.997702
0.997721
0.997575
0.997267
0.9968
0.996172
0.99538
0.994417
0.993276
0.991949
0.990426
0.988702
0.986769
0.984623
0.982265
0.979668
0.976797
0.973611
0.970065
0.966131
0.961807
0.957157
0.952348
0.947685
0.943631
0.940743
0.939544
0.940318
0.942867
0.946704
0.951267
0.956066
0.960763
0.965163
0.969184
0.972815
0.976081
0.979023
0.981682
0.984097
0.986296
0.988282
0.990056
0.991626
0.992998
0.994181
0.995184
0.996014
0.996679
0.997181
0.997525
0.997708
0.997984
0.997847
0.99756
0.997126
0.996545
0.995813
0.994928
0.993881
0.992667
0.991278
0.989708
0.987953
0.986011
0.983889
0.981571
0.97904
0.976279
0.973274
0.970026
0.966564
0.962962
0.959358
0.955974
0.953105
0.951089
0.950231
0.950706
0.952409
0.955061
0.958328
0.961896
0.96552
0.96904
0.972363
0.975448
0.978289
0.980895
0.983281
0.985466
0.987466
0.989278
0.990902
0.99234
0.993601
0.99469
0.995615
0.996384
0.997001
0.997469
0.99779
0.997962
0.997979
0.997842
0.997555
0.99712
0.996537
0.995805
0.994917
0.993868
0.992651
0.991258
0.989683
0.987922
0.985974
0.983844
0.981517
0.978976
0.976203
0.973186
0.969926
0.966453
0.962843
0.959239
0.955864
0.953018
0.951038
0.950225
0.950748
0.952489
0.955167
0.958447
0.962016
0.965635
0.969144
0.972455
0.975528
0.978357
0.980951
0.983328
0.985505
0.987499
0.989305
0.990923
0.992358
0.993615
0.994701
0.995625
0.996392
0.997007
0.997475
0.997795
0.997966
0.998249
0.998124
0.997864
0.997472
0.996951
0.996298
0.995512
0.994588
0.993522
0.99231
0.990947
0.989432
0.987767
0.98596
0.984005
0.9819
0.979643
0.977242
0.974713
0.972098
0.969462
0.966912
0.964593
0.962681
0.961367
0.960815
0.961123
0.962232
0.96399
0.966212
0.968714
0.971342
0.973977
0.976542
0.97899
0.981297
0.983453
0.985457
0.987311
0.989021
0.990581
0.991986
0.993239
0.994343
0.995303
0.996123
0.996808
0.997361
0.997782
0.998073
0.998229
0.998245
0.99812
0.997859
0.997467
0.996944
0.99629
0.995503
0.994577
0.993509
0.992293
0.990926
0.989407
0.987737
0.985924
0.983963
0.981851
0.979586
0.977177
0.974642
0.97202
0.969383
0.966835
0.964524
0.962628
0.961336
0.960812
0.961149
0.962282
0.964057
0.966289
0.968795
0.971421
0.974051
0.976609
0.97905
0.981349
0.983497
0.985494
0.987343
0.989048
0.990603
0.992005
0.993254
0.994356
0.995313
0.996131
0.996815
0.997366
0.997787
0.998077
0.998233
0.998519
0.998409
0.998182
0.997842
0.997392
0.996833
0.996165
0.995388
0.994499
0.993497
0.99238
0.991151
0.989812
0.988373
0.986835
0.985203
0.983487
0.981701
0.979868
0.978024
0.976221
0.974528
0.973031
0.971827
0.971014
0.970677
0.970868
0.971553
0.972656
0.974081
0.97573
0.977513
0.979355
0.9812
0.983008
0.984751
0.986413
0.987983
0.989454
0.990824
0.992085
0.993233
0.994266
0.995185
0.99599
0.996685
0.99727
0.997746
0.998111
0.998365
0.998501
0.998515
0.998406
0.998178
0.997837
0.997387
0.996827
0.996158
0.995379
0.994488
0.993483
0.992364
0.991131
0.989789
0.988346
0.986804
0.985167
0.983446
0.981656
0.979819
0.977974
0.97617
0.97448
0.972989
0.971795
0.970996
0.970675
0.970883
0.971582
0.972696
0.974128
0.975781
0.977564
0.979405
0.981247
0.98305
0.984789
0.986446
0.988011
0.989479
0.990845
0.992103
0.993248
0.994278
0.995195
0.995998
0.996692
0.997276
0.99775
0.998116
0.998368
0.998505
0.998792
0.9987
0.99851
0.998229
0.997859
0.997405
0.996868
0.99625
0.995551
0.994774
0.993918
0.992988
0.991987
0.990923
0.989801
0.98863
0.987423
0.986193
0.984962
0.983755
0.982605
0.981553
0.980645
0.97993
0.979455
0.97926
0.979371
0.979772
0.980426
0.981286
0.982304
0.983433
0.98463
0.985861
0.987097
0.988316
0.989501
0.990641
0.991725
0.992745
0.993696
0.994572
0.995371
0.99609
0.996729
0.997286
0.997761
0.99815
0.998452
0.998663
0.998777
0.998789
0.998697
0.998507
0.998226
0.997855
0.9974
0.996862
0.996243
0.995543
0.994763
0.993906
0.992973
0.99197
0.990903
0.989779
0.988606
0.987396
0.986164
0.984931
0.983724
0.982575
0.981526
0.980622
0.979913
0.979445
0.979259
0.97938
0.979789
0.980449
0.981313
0.982334
0.983464
0.984661
0.985891
0.987125
0.988341
0.989524
0.990661
0.991743
0.992761
0.993709
0.994583
0.99538
0.996098
0.996735
0.997291
0.997765
0.998154
0.998456
0.998666
0.99878
0.999066
0.998993
0.998845
0.998627
0.998343
0.997998
0.997595
0.997138
0.99663
0.996072
0.995468
0.99482
0.994133
0.99341
0.992659
0.991889
0.991109
0.990332
0.989571
0.988842
0.988163
0.987555
0.987041
0.986642
0.986381
0.986275
0.986336
0.986557
0.98692
0.987406
0.987991
0.988654
0.989373
0.990129
0.990905
0.991687
0.992463
0.993222
0.993955
0.994654
0.995313
0.99593
0.9965
0.997022
0.997492
0.997909
0.998268
0.998566
0.9988
0.998965
0.999054
0.999064
0.998991
0.998843
0.998624
0.99834
0.997994
0.997591
0.997133
0.996624
0.996065
0.995459
0.99481
0.994121
0.993397
0.992644
0.991873
0.991092
0.990315
0.989553
0.988824
0.988146
0.98754
0.987028
0.986633
0.986376
0.986274
0.98634
0.986566
0.986933
0.987421
0.988008
0.988672
0.989391
0.990147
0.990922
0.991703
0.992478
0.993236
0.993968
0.994664
0.995322
0.995937
0.996507
0.997028
0.997497
0.997913
0.998271
0.998569
0.998803
0.998967
0.999057
0.999338
0.999287
0.999182
0.999028
0.998831
0.998594
0.998323
0.998019
0.997686
0.997328
0.996947
0.996544
0.996123
0.995683
0.995233
0.994779
0.994328
0.993887
0.993464
0.993066
0.992702
0.992382
0.992116
0.991912
0.99178
0.991726
0.991758
0.99187
0.992055
0.992306
0.992612
0.992966
0.993356
0.993775
0.994213
0.994663
0.995118
0.995571
0.996015
0.996442
0.99685
0.997238
0.997603
0.997942
0.998254
0.998534
0.998779
0.998986
0.99915
0.999266
0.99933
0.999337
0.999285
0.99918
0.999026
0.998829
0.998592
0.99832
0.998015
0.997682
0.997324
0.996941
0.996538
0.996116
0.995676
0.995225
0.99477
0.994319
0.993878
0.993454
0.993056
0.992693
0.992375
0.99211
0.991908
0.991777
0.991726
0.99176
0.991874
0.992061
0.992313
0.992621
0.992975
0.993366
0.993785
0.994223
0.994672
0.995127
0.995579
0.996022
0.996449
0.996856
0.997243
0.997607
0.997946
0.998257
0.998537
0.998782
0.998988
0.999152
0.999268
0.999332
0.999607
0.999576
0.999515
0.999425
0.999312
0.999178
0.999026
0.99886
0.998681
0.998492
0.998295
0.99809
0.997877
0.997656
0.997433
0.99721
0.996993
0.996784
0.996587
0.996405
0.996241
0.996098
0.995981
0.995893
0.995836
0.995813
0.995826
0.995874
0.995955
0.996065
0.996201
0.99636
0.996538
0.996732
0.996939
0.997155
0.997376
0.9976
0.997823
0.998038
0.998245
0.998445
0.998637
0.998818
0.998988
0.999144
0.999282
0.999401
0.999496
0.999564
0.999602
0.999606
0.999576
0.999514
0.999424
0.999311
0.999176
0.999025
0.998858
0.998679
0.99849
0.998292
0.998086
0.997874
0.997652
0.997428
0.997206
0.996989
0.99678
0.996583
0.996401
0.996237
0.996095
0.995979
0.995891
0.995834
0.995812
0.995827
0.995876
0.995958
0.996068
0.996205
0.996364
0.996543
0.996737
0.996943
0.997159
0.997381
0.997605
0.997827
0.998041
0.998248
0.998448
0.998639
0.99882
0.99899
0.999145
0.999284
0.999402
0.999497
0.999565
0.999603
0.999869
0.999859
0.999839
0.999811
0.999775
0.999733
0.999687
0.999637
0.999585
0.999531
0.999475
0.999419
0.999361
0.999298
0.999236
0.999174
0.999114
0.999057
0.999004
0.998956
0.998912
0.998875
0.998845
0.998822
0.998808
0.998802
0.998805
0.998818
0.998838
0.998867
0.998902
0.998944
0.998991
0.999043
0.999099
0.999158
0.99922
0.999283
0.999345
0.999405
0.999462
0.999517
0.999572
0.999625
0.999675
0.999723
0.999766
0.999803
0.999833
0.999856
0.999868
0.999869
0.999859
0.999839
0.99981
0.999775
0.999733
0.999686
0.999637
0.999584
0.99953
0.999475
0.999418
0.99936
0.999297
0.999234
0.999173
0.999113
0.999056
0.999003
0.998955
0.998911
0.998875
0.998844
0.998822
0.998808
0.998802
0.998806
0.998818
0.998839
0.998868
0.998903
0.998945
0.998992
0.999044
0.9991
0.99916
0.999221
0.999284
0.999346
0.999406
0.999462
0.999518
0.999573
0.999626
0.999676
0.999723
0.999766
0.999803
0.999834
0.999856
0.999868
)
;

boundaryField
{
    top
    {
        type            calculated;
        value           uniform 1;
    }
    bottom
    {
        type            calculated;
        value           uniform 0.148957;
    }
    frontAndBack
    {
        type            empty;
    }
    left_cyc
    {
        type            cyclic;
    }
    right_cyc
    {
        type            cyclic;
    }
}


// ************************************************************************* //
