/*--------------------------------*- C++ -*----------------------------------*\
| =========                 |                                                 |
| \\      /  F ield         | OpenFOAM: The Open Source CFD Toolbox           |
|  \\    /   O peration     | Version:  2.3.0                                 |
|   \\  /    A nd           | Web:      www.OpenFOAM.org                      |
|    \\/     M anipulation  |                                                 |
\*---------------------------------------------------------------------------*/
FoamFile
{
    version     2.0;
    format      ascii;
    class       volScalarField;
    location    "25000";
    object      p;
}
// * * * * * * * * * * * * * * * * * * * * * * * * * * * * * * * * * * * * * //

dimensions      [0 2 -2 0 0 0 0];

internalField   nonuniform List<scalar> 
765
(
-1662.46
-1671.3
-1679.96
-1689.14
-1699.77
-1712.78
-1728.67
-1746.83
-1765.1
-1779.59
-1784.41
-1775.11
-1758.7
-1740.04
-1722.48
-1707.54
-1695.46
-1685.44
-1676.52
-1667.85
-1658.82
-1649.05
-1638.37
-1626.6
-1613.53
-1598.83
-1581.97
-1562.04
-1537.53
-1506.2
-1464.47
-1408.35
-1341.43
-1263.55
-1171.51
-1109.79
-1126.76
-1208.51
-1297.04
-1368.95
-1432.92
-1482.78
-1519.73
-1547.95
-1570.38
-1588.94
-1604.85
-1618.85
-1631.38
-1642.71
-1653.02
-1497.28
-1505.79
-1514.56
-1523.91
-1534.19
-1545.59
-1558.01
-1570.91
-1582.7
-1591.25
-1594.14
-1588.63
-1578.72
-1566.23
-1553.33
-1541.22
-1530.19
-1520.26
-1511.13
-1502.48
-1493.97
-1485.33
-1476.29
-1466.68
-1456.34
-1445.1
-1432.67
-1418.67
-1402.46
-1383.58
-1360.67
-1332.05
-1298.67
-1274.29
-1281.55
-1282.47
-1282.88
-1276.82
-1280.69
-1312.95
-1344.37
-1370.37
-1391.45
-1409.17
-1424.4
-1437.7
-1449.62
-1460.48
-1470.51
-1479.88
-1488.74
-1359.59
-1366.65
-1374.14
-1382.1
-1390.56
-1399.46
-1408.57
-1417.15
-1424
-1428.19
-1429.6
-1426.93
-1421.82
-1414.16
-1405.24
-1396.17
-1387.4
-1379.1
-1371.3
-1363.97
-1357.02
-1350.37
-1343.86
-1337.38
-1330.84
-1324.23
-1317.56
-1310.86
-1304.19
-1297.69
-1284.36
-1268.09
-1247.7
-1212.45
-1204.31
-1203.22
-1203.68
-1205.3
-1224.88
-1257.74
-1273.52
-1291.05
-1300.2
-1306.66
-1313.38
-1320.08
-1326.74
-1333.33
-1339.84
-1346.31
-1352.85
-1237.02
-1242.01
-1247.3
-1252.81
-1258.46
-1264.16
-1269.68
-1274.24
-1277.01
-1277.91
-1278.14
-1277.71
-1276.3
-1272.8
-1267.79
-1262.14
-1256.44
-1250.83
-1245.39
-1240.2
-1235.33
-1230.81
-1226.64
-1222.8
-1219.2
-1215.81
-1212.55
-1209.28
-1205.8
-1201.82
-1186.91
-1161.16
-1139.33
-1129.92
-1122.93
-1117.6
-1119.14
-1125.74
-1133.23
-1143.47
-1172.38
-1195.07
-1203.38
-1207.01
-1210.39
-1213.65
-1216.96
-1220.43
-1224.11
-1228.07
-1232.37
-1118.05
-1120.87
-1123.79
-1126.74
-1129.67
-1132.55
-1135.16
-1136.9
-1137.15
-1136.15
-1135.62
-1136.6
-1137.32
-1136.5
-1134.37
-1131.61
-1128.7
-1125.76
-1122.82
-1119.93
-1117.17
-1114.63
-1112.35
-1110.29
-1108.39
-1106.49
-1104.34
-1101.65
-1098.06
-1093.82
-1083.77
-1062.66
-1030.32
-1022.7
-1022.93
-1021.59
-1022.07
-1022.95
-1024.63
-1038.77
-1072.79
-1089.52
-1095.44
-1099.46
-1102.63
-1105.05
-1107.07
-1108.95
-1110.9
-1113.03
-1115.42
-996.829
-997.819
-998.766
-999.643
-1000.45
-1001.16
-1001.59
-1001.36
-1000.08
-998.025
-997.079
-998.845
-1000.76
-1001.66
-1001.59
-1001.03
-1000.27
-999.438
-998.538
-997.576
-996.589
-995.63
-994.736
-993.894
-993.019
-991.945
-990.438
-988.242
-985.086
-981.181
-974.779
-961.819
-935.939
-931.761
-933.136
-932.671
-932.908
-932.322
-933.107
-944.403
-967.276
-978.171
-982.651
-986.331
-989.059
-990.942
-992.244
-993.215
-994.063
-994.923
-995.848
-871.254
-870.852
-870.345
-869.752
-869.071
-868.212
-867.049
-865.354
-862.962
-860.221
-859.093
-861.268
-864.004
-866.154
-867.627
-868.651
-869.425
-870.073
-870.641
-871.116
-871.483
-871.748
-871.923
-872.002
-871.931
-871.605
-870.881
-869.619
-867.713
-865.372
-861.989
-857.347
-847.541
-846.886
-846.501
-845.828
-846.095
-846.509
-847.783
-850.268
-858.52
-863.546
-866.194
-868.435
-870.072
-871.102
-871.651
-871.862
-871.868
-871.753
-871.549
-741.077
-739.677
-738.168
-736.552
-734.781
-732.741
-730.313
-727.393
-724.058
-720.879
-719.693
-722.041
-725.385
-728.609
-731.343
-733.599
-735.527
-737.233
-738.811
-740.286
-741.643
-742.867
-743.949
-744.879
-745.626
-746.142
-746.395
-746.376
-746.149
-745.983
-745.315
-748.712
-761.576
-765.853
-762.866
-761.191
-761.633
-764.797
-766.737
-753.908
-746.258
-745.715
-746.031
-746.226
-746.366
-746.268
-745.905
-745.293
-744.471
-743.482
-742.348
-606.946
-604.788
-602.504
-600.047
-597.329
-594.246
-590.686
-586.682
-582.552
-579.093
-577.883
-580.297
-584.088
-588.246
-592.102
-595.475
-598.414
-601.024
-603.412
-605.647
-607.764
-609.778
-611.703
-613.541
-615.279
-616.915
-618.508
-620.163
-622.099
-624.618
-626.953
-638.974
-675.835
-684.603
-679.223
-676.727
-677.36
-683.417
-686.343
-657.671
-633.201
-626.326
-623.781
-621.378
-619.542
-617.9
-616.29
-614.611
-612.83
-610.955
-608.997
-469.8
-466.889
-463.826
-460.515
-456.842
-452.698
-448.039
-443.03
-438.185
-434.472
-433.218
-435.685
-439.882
-444.882
-449.801
-454.278
-458.244
-461.774
-464.984
-467.981
-470.856
-473.682
-476.536
-479.475
-482.514
-485.684
-489.115
-492.984
-497.656
-503.481
-510.328
-533.707
-590.937
-600.23
-592.82
-590.725
-591.09
-597.099
-599.102
-561.76
-522.806
-507.414
-501.371
-495.865
-491.536
-487.834
-484.512
-481.394
-478.387
-475.477
-472.639
-331.299
-327.385
-323.306
-318.921
-314.093
-308.724
-302.843
-296.738
-291.08
-286.975
-285.612
-288.211
-292.946
-298.874
-304.954
-310.672
-315.848
-320.507
-324.768
-328.773
-332.661
-336.571
-340.664
-345.106
-349.937
-355.228
-361.207
-368.153
-376.645
-386.89
-399.837
-427.273
-492.82
-506.553
-502.148
-502.616
-502.257
-503.222
-504.298
-470.035
-415.308
-393.582
-382.934
-373.3
-365.532
-358.982
-353.296
-348.196
-343.508
-339.198
-335.188
-195.317
-189.884
-184.337
-178.48
-172.144
-165.232
-157.816
-150.28
-143.439
-138.574
-136.964
-139.915
-145.57
-152.784
-160.353
-167.626
-174.341
-180.498
-186.229
-191.717
-197.159
-202.755
-208.756
-215.405
-222.725
-230.777
-239.754
-249.461
-259.437
-267.638
-283.851
-320.094
-383.762
-402.593
-410.324
-415.396
-414.074
-407.244
-399.095
-361.842
-301.052
-275.754
-265.417
-255.941
-246.045
-236.517
-227.899
-220.14
-213.064
-206.658
-200.834
-67.9948
-60.1118
-52.0019
-43.5024
-34.4844
-24.9066
-14.9244
-5.03716
3.78258
10.0375
12.1273
8.43752
1.17029
-8.16909
-18.1852
-28.0789
-37.4822
-46.3225
-54.6817
-62.7041
-70.561
-78.4686
-86.9575
-96.6908
-107.286
-117.85
-127.816
-135.398
-141.078
-143.848
-158.133
-211.14
-276.451
-311.706
-333.578
-343.802
-341.185
-325.932
-299.657
-252.977
-184.563
-146.886
-144.121
-138.848
-133.284
-124.522
-114.289
-103.695
-93.3055
-84.0314
-75.842
23.6621
33.2844
43.0275
53.0923
63.7485
75.2364
87.5947
100.379
112.348
121.234
124.339
119.026
108.861
96.3704
83.5968
71.4806
60.27
49.8272
39.8843
30.1833
20.5724
11.1672
2.24098
-5.63507
-11.7367
-15.185
-15.916
-15.4394
-20.2636
-35.5753
-66.652
-119.257
-170.312
-202.72
-223.836
-233.623
-231.135
-216.663
-191.362
-152.296
-95.7044
-52.6573
-29.0769
-17.4282
-15.8991
-16.1651
-14.5429
-10.0688
-3.24613
5.06035
14.176
73.9353
69.1311
63.364
56.636
48.8139
39.7148
29.2633
17.7533
6.27105
-2.90733
-5.85339
-0.51647
9.93929
21.6992
32.9798
43.0047
51.6637
59.0996
65.4962
70.948
75.4106
78.9514
82.4835
86.0005
86.3183
81.8231
71.5583
53.2288
21.2961
-30.4261
-105.334
-194.842
-283.624
-354.899
-405.074
-428.872
-422.851
-388.063
-328.985
-250.326
-158.344
-74.6901
-8.47796
35.1909
60.9831
75.9513
83.93
86.6863
84.9843
81.1503
77.7543
)
;

boundaryField
{
    top
    {
        type            calculated;
        value           uniform -9.81;
    }
    bottom
    {
        type            calculated;
        value           nonuniform List<scalar> 
51
(
-1753.48
-1762.44
-1770.99
-1779.94
-1790.39
-1803.52
-1820.02
-1838.83
-1857.98
-1873.64
-1879.1
-1868.71
-1851.19
-1831.73
-1813.52
-1798.17
-1786.09
-1776.3
-1767.6
-1758.96
-1749.69
-1739.49
-1728.25
-1715.78
-1701.87
-1686.13
-1667.96
-1646.39
-1619.83
-1586.01
-1541.27
-1481.46
-1411.16
-1330.78
-1237
-1174.52
-1191.71
-1274.58
-1365.18
-1439.9
-1507.61
-1560.86
-1600.6
-1631.13
-1655.43
-1675.49
-1692.6
-1707.56
-1720.87
-1732.83
-1743.66
)
;
    }
    frontAndBack
    {
        type            empty;
    }
    left_cyc
    {
        type            cyclic;
    }
    right_cyc
    {
        type            cyclic;
    }
}


// ************************************************************************* //
