/*--------------------------------*- C++ -*----------------------------------*\
| =========                 |                                                 |
| \\      /  F ield         | OpenFOAM: The Open Source CFD Toolbox           |
|  \\    /   O peration     | Version:  2.3.0                                 |
|   \\  /    A nd           | Web:      www.OpenFOAM.org                      |
|    \\/     M anipulation  |                                                 |
\*---------------------------------------------------------------------------*/
FoamFile
{
    version     2.0;
    format      ascii;
    class       volScalarField;
    location    "25000";
    object      p_rgh;
}
// * * * * * * * * * * * * * * * * * * * * * * * * * * * * * * * * * * * * * //

dimensions      [0 2 -2 0 0 0 0];

internalField   nonuniform List<scalar> 
765
(
-1753.48
-1762.44
-1770.99
-1779.94
-1790.39
-1803.52
-1820.02
-1838.83
-1857.98
-1873.64
-1879.1
-1868.71
-1851.19
-1831.73
-1813.52
-1798.17
-1786.09
-1776.3
-1767.6
-1758.96
-1749.69
-1739.49
-1728.25
-1715.78
-1701.87
-1686.13
-1667.96
-1646.39
-1619.83
-1586.01
-1541.27
-1481.46
-1411.16
-1330.78
-1237
-1174.52
-1191.71
-1274.58
-1365.18
-1439.9
-1507.61
-1560.86
-1600.6
-1631.13
-1655.43
-1675.49
-1692.6
-1707.56
-1720.87
-1732.83
-1743.66
-1722.61
-1732.38
-1741.64
-1751.04
-1761.52
-1774.15
-1789.43
-1808
-1829.12
-1849.96
-1859.31
-1842.82
-1821.35
-1800.95
-1783.6
-1769
-1757.22
-1747.22
-1737.95
-1728.55
-1718.48
-1707.1
-1694.5
-1680.66
-1665.46
-1648.64
-1629.78
-1608.15
-1582.58
-1551.78
-1514.56
-1472.56
-1428.23
-1394.8
-1395.1
-1392.31
-1393.79
-1392.89
-1404.67
-1446.68
-1489.87
-1530.33
-1564.83
-1593.31
-1617.13
-1637.53
-1655.52
-1671.65
-1686.3
-1699.65
-1711.78
-1679.22
-1689.94
-1700.25
-1710.54
-1721.43
-1733.91
-1749.52
-1771.71
-1801.34
-1835.39
-1852.19
-1823.17
-1789.72
-1762.56
-1742.81
-1728.78
-1717.02
-1706.41
-1696.14
-1685.67
-1674.71
-1663.1
-1650.24
-1636.16
-1620.99
-1604.73
-1587.42
-1569
-1549.27
-1528.25
-1498.22
-1463.32
-1423.7
-1370.4
-1347.76
-1338.81
-1341.49
-1354.08
-1389.97
-1441.66
-1476.64
-1512.16
-1537.01
-1557.35
-1576.5
-1594.44
-1611.33
-1627.15
-1641.9
-1655.54
-1667.89
-1650.68
-1661.66
-1672.43
-1682.93
-1693.25
-1704.17
-1719.03
-1743.19
-1780.69
-1828.57
-1852.91
-1811.11
-1765.33
-1732.73
-1712.39
-1699.78
-1689.27
-1678.9
-1668.28
-1657.4
-1646.33
-1635.09
-1623.71
-1612.1
-1600.27
-1588.28
-1575.7
-1561.69
-1544.93
-1523.66
-1485.84
-1431.53
-1377.81
-1336.88
-1304.18
-1284.99
-1290.36
-1316.36
-1352.69
-1395.3
-1455.19
-1504.27
-1533.03
-1552.09
-1567.53
-1580.81
-1593.05
-1604.96
-1616.71
-1628.2
-1639.52
-1649.47
-1659.2
-1668.9
-1678
-1686.02
-1693.73
-1705.54
-1728.76
-1771.72
-1831.19
-1861.39
-1809.5
-1753.53
-1718.22
-1700.24
-1690.66
-1683.16
-1674.73
-1665.34
-1655.56
-1645.93
-1636.77
-1628.2
-1620.16
-1612.35
-1604.12
-1594.3
-1581.07
-1561.94
-1534.56
-1491.34
-1426.83
-1344.83
-1287.43
-1246.83
-1223.74
-1230.09
-1261.58
-1308.98
-1373.9
-1455.71
-1511.95
-1546.72
-1570.45
-1586.82
-1598.39
-1607.36
-1615.29
-1623.12
-1631.33
-1640.12
-1669.35
-1677.29
-1684.96
-1691.31
-1695.57
-1699.15
-1705.99
-1726.95
-1773.68
-1841.16
-1874.63
-1816.86
-1753.47
-1716.74
-1702.44
-1697.79
-1694.34
-1689.3
-1682.36
-1674.5
-1666.69
-1659.6
-1653.45
-1648.1
-1642.99
-1636.98
-1628.23
-1614.12
-1591.27
-1556.39
-1504.51
-1430.59
-1333.57
-1257.45
-1199.64
-1167.86
-1176.4
-1220.02
-1286.99
-1371.4
-1462.05
-1527.89
-1571.72
-1601.43
-1620.32
-1631.91
-1639.28
-1644.74
-1649.82
-1655.42
-1661.93
-1699.82
-1705.79
-1710.71
-1713.42
-1713.46
-1712.79
-1716.9
-1737.81
-1785.62
-1853.86
-1888.05
-1829.71
-1765.28
-1727.54
-1714.12
-1713.32
-1713.83
-1712.89
-1709.3
-1703.89
-1697.85
-1692.14
-1687.25
-1683.18
-1679.31
-1674.21
-1665.48
-1649.71
-1622.78
-1580.61
-1518.59
-1434.47
-1330.14
-1232.93
-1152.66
-1109.69
-1121.09
-1181.17
-1271.53
-1371.87
-1469.45
-1545.62
-1598.96
-1634.63
-1656.61
-1669.13
-1676.07
-1680.45
-1684.28
-1688.62
-1693.87
-1732.77
-1736.32
-1738.12
-1737.84
-1736.48
-1734.91
-1739.64
-1759.71
-1803.41
-1865.66
-1898.81
-1843.93
-1785.26
-1750.27
-1736.76
-1735.23
-1737.07
-1738.32
-1737.91
-1735.44
-1731.49
-1726.91
-1722.39
-1718.19
-1713.87
-1707.97
-1697.73
-1679.11
-1647.42
-1598.12
-1525.79
-1431.88
-1326.65
-1208.92
-1104.1
-1047.84
-1062.7
-1142.36
-1257.37
-1367.88
-1471.09
-1557.33
-1619.56
-1661.2
-1687.13
-1701.92
-1710.07
-1715.12
-1719.3
-1723.65
-1728.28
-1762.4
-1764.58
-1765.46
-1765.19
-1763.96
-1763.95
-1769.64
-1787.5
-1823.87
-1875.78
-1906.09
-1858.1
-1809.29
-1779.65
-1766.84
-1763.79
-1764.64
-1765.61
-1765.53
-1764.24
-1761.64
-1757.93
-1753.4
-1748.13
-1741.67
-1732.63
-1718.31
-1694.75
-1657.44
-1601.72
-1520.8
-1418.59
-1314.29
-1176.99
-1048.62
-978.627
-997.322
-1096.79
-1235.57
-1354.65
-1461.87
-1556.05
-1625.7
-1673.27
-1704.59
-1724.03
-1735.93
-1743.78
-1749.72
-1754.73
-1759.02
-1785.33
-1788.89
-1791.22
-1792.49
-1793.38
-1795.42
-1801.53
-1816.16
-1843.91
-1883.59
-1909.4
-1870.77
-1833.46
-1810.37
-1799.19
-1794.9
-1793.5
-1792.59
-1791.02
-1788.25
-1784.27
-1779.1
-1772.71
-1764.78
-1754.55
-1740.43
-1719.76
-1688.96
-1644.33
-1581.73
-1493.8
-1387.11
-1283.2
-1127.15
-979.135
-897.822
-919.734
-1033.92
-1190.06
-1319.59
-1431.05
-1530.92
-1607.89
-1662.53
-1701.32
-1727.77
-1745.6
-1758.04
-1767.3
-1774.62
-1780.57
-1787.1
-1795.41
-1802.54
-1808.57
-1813.86
-1819.27
-1826.56
-1838.61
-1858.65
-1886.64
-1906.86
-1878.52
-1852
-1834.71
-1824.55
-1818.11
-1812.85
-1807.34
-1800.93
-1793.37
-1784.6
-1774.58
-1763.25
-1749.73
-1733.16
-1711.74
-1682.94
-1643.74
-1591.64
-1523.11
-1430.15
-1314.52
-1207.56
-1045.51
-889.619
-802.256
-826.178
-945.35
-1110.73
-1252.78
-1361.26
-1468.01
-1550.78
-1611.96
-1658.84
-1693.71
-1719.42
-1738.79
-1754.06
-1766.69
-1777.54
-1732.98
-1750.63
-1766.87
-1781.79
-1795.51
-1808.26
-1820.75
-1834.4
-1851.08
-1871.2
-1886.04
-1866.38
-1846.65
-1830.92
-1817.71
-1805.15
-1792.03
-1777.85
-1762.42
-1745.65
-1727.43
-1707.63
-1686.41
-1664.2
-1638.97
-1609.07
-1572.29
-1525.56
-1465.77
-1387.37
-1290.56
-1180.43
-1075.12
-921.065
-777.037
-691.579
-715.652
-828.993
-983.956
-1119.89
-1221.19
-1329.02
-1419.16
-1488.73
-1543.13
-1585.62
-1619.52
-1647.48
-1671.49
-1693.12
-1713.79
-1549.8
-1579.15
-1606.62
-1632.56
-1657.19
-1680.58
-1702.77
-1723.93
-1744.31
-1763.35
-1774.84
-1759.39
-1739.38
-1718.53
-1696.87
-1674.13
-1650.19
-1625.03
-1598.51
-1570.35
-1540.2
-1507.91
-1474.33
-1441.17
-1408.89
-1372.62
-1330.88
-1279.76
-1216.19
-1134.38
-1042.84
-965.497
-882.048
-764.1
-649.425
-576.174
-597.287
-691.599
-811.141
-917.413
-991.458
-1073.79
-1167.32
-1239.83
-1298.82
-1345.66
-1384.96
-1419.5
-1451.71
-1485.12
-1518.32
-1151.81
-1185.88
-1218.44
-1249.67
-1279.49
-1307.58
-1333.48
-1356.76
-1377.04
-1393.42
-1401.12
-1390.1
-1372.11
-1350.66
-1326.31
-1299.49
-1270.65
-1240.22
-1208.44
-1175.29
-1140.55
-1103.88
-1065.57
-1026.1
-985.407
-944.776
-900.924
-852.501
-803.338
-754.426
-706.528
-663.974
-607.592
-529.035
-449.855
-396.908
-412.45
-479.465
-560.532
-631.884
-678.263
-723.595
-772.505
-820.442
-870.107
-916.861
-959.033
-999.304
-1039.27
-1078.22
-1115.92
-427.586
-458.353
-489.83
-522.105
-555.268
-589.229
-623.494
-656.845
-686.847
-709.311
-717.134
-704.018
-678.365
-646.766
-612.777
-578.41
-544.592
-511.646
-479.575
-448.27
-417.664
-387.728
-358.024
-329.062
-303.985
-284.57
-272.434
-269.582
-279.678
-307.04
-353.262
-408.632
-457.961
-486.499
-495.954
-493.097
-494.853
-494.088
-477.296
-440.282
-385.605
-333.704
-294.199
-273.603
-269.061
-275.334
-290.448
-311.82
-338.408
-367.864
-397.503
)
;

boundaryField
{
    top
    {
        type            fixedValue;
        value           uniform 0;
    }
    bottom
    {
        type            fixedFluxPressure;
        gradient        uniform 0;
        value           nonuniform List<scalar> 
51
(
-1753.48
-1762.44
-1770.99
-1779.94
-1790.39
-1803.52
-1820.02
-1838.83
-1857.98
-1873.64
-1879.1
-1868.71
-1851.19
-1831.73
-1813.52
-1798.17
-1786.09
-1776.3
-1767.6
-1758.96
-1749.69
-1739.49
-1728.25
-1715.78
-1701.87
-1686.13
-1667.96
-1646.39
-1619.83
-1586.01
-1541.27
-1481.46
-1411.16
-1330.78
-1237
-1174.52
-1191.71
-1274.58
-1365.18
-1439.9
-1507.61
-1560.86
-1600.6
-1631.13
-1655.43
-1675.49
-1692.6
-1707.56
-1720.87
-1732.83
-1743.66
)
;
    }
    frontAndBack
    {
        type            empty;
    }
    left_cyc
    {
        type            cyclic;
    }
    right_cyc
    {
        type            cyclic;
    }
}


// ************************************************************************* //
