/*--------------------------------*- C++ -*----------------------------------*\
| =========                 |                                                 |
| \\      /  F ield         | OpenFOAM: The Open Source CFD Toolbox           |
|  \\    /   O peration     | Version:  2.3.0                                 |
|   \\  /    A nd           | Web:      www.OpenFOAM.org                      |
|    \\/     M anipulation  |                                                 |
\*---------------------------------------------------------------------------*/
FoamFile
{
    version     2.0;
    format      ascii;
    class       volScalarField;
    location    "25000";
    object      p_rgh;
}
// * * * * * * * * * * * * * * * * * * * * * * * * * * * * * * * * * * * * * //

dimensions      [0 2 -2 0 0 0 0];

internalField   nonuniform List<scalar> 
3060
(
-967
-970.273
-977.05
-986.963
-999.47
-1013.94
-1029.89
-1047.44
-1067.64
-1092.09
-1121.79
-1156.17
-1193.61
-1232.4
-1270.79
-1307.08
-1339.89
-1368.33
-1391.6
-1408.69
-1419.84
-1426
-1428.55
-1429.01
-1428.69
-1428.43
-1428.53
-1428.81
-1428.59
-1426.69
-1421.6
-1411.86
-1396.41
-1374.73
-1347.55
-1315.84
-1280.38
-1242.43
-1203.63
-1165.74
-1130.48
-1099.51
-1073.74
-1052.57
-1034.49
-1018.21
-1003.39
-990.403
-979.873
-972.369
-968.301
-967.891
-971.162
-977.933
-987.835
-1000.33
-1014.78
-1030.73
-1048.3
-1068.6
-1093.19
-1123.03
-1157.51
-1195
-1233.8
-1272.14
-1308.33
-1340.99
-1369.26
-1392.3
-1409.15
-1420.09
-1426.08
-1428.53
-1428.95
-1428.65
-1428.42
-1428.56
-1428.86
-1428.62
-1426.64
-1421.4
-1411.45
-1395.76
-1373.84
-1346.48
-1314.62
-1279.04
-1241.03
-1202.23
-1164.38
-1129.21
-1098.37
-1072.74
-1051.69
-1033.65
-1017.37
-1002.53
-989.53
-978.989
-971.479
-967.41
-1085.48
-1085.48
-1085.51
-1085.6
-1085.88
-1086.81
-1089.4
-1095.35
-1106.78
-1124.95
-1149.36
-1177.95
-1208.6
-1239.6
-1269.38
-1296.87
-1322.87
-1348.4
-1371.58
-1389.37
-1401.42
-1408.86
-1412.97
-1414.99
-1415.84
-1416.07
-1415.9
-1415.2
-1413.52
-1410.03
-1403.59
-1392.87
-1376.72
-1354.77
-1329.55
-1303.65
-1276.72
-1247.55
-1216.81
-1186.01
-1156.81
-1131.21
-1111.37
-1098.3
-1091.14
-1087.88
-1086.64
-1086.23
-1086.1
-1086.03
-1085.98
-1085.96
-1085.96
-1085.98
-1086.06
-1086.34
-1087.3
-1089.95
-1096.03
-1107.63
-1125.98
-1150.5
-1179.14
-1209.8
-1240.76
-1270.45
-1297.85
-1323.84
-1349.33
-1372.35
-1389.89
-1401.74
-1409.02
-1413.04
-1415
-1415.84
-1416.07
-1415.89
-1415.18
-1413.46
-1409.89
-1403.31
-1392.4
-1376
-1353.85
-1328.57
-1302.67
-1275.67
-1246.41
-1215.61
-1184.81
-1155.65
-1130.15
-1110.47
-1097.59
-1090.57
-1087.39
-1086.17
-1085.77
-1085.63
-1085.55
-1085.5
-1085.05
-1085.93
-1087.86
-1090.93
-1095.36
-1101.46
-1109.72
-1120.7
-1134.84
-1152.17
-1172.09
-1193.59
-1215.91
-1238.76
-1262.31
-1287.2
-1313.46
-1338.45
-1359.03
-1375.32
-1387.99
-1396.11
-1400.59
-1402.93
-1404.1
-1404.51
-1404.25
-1403.27
-1401.27
-1397.47
-1390.48
-1378.98
-1363.64
-1344.38
-1320.44
-1294.2
-1268.92
-1245.14
-1222.22
-1199.84
-1178.15
-1157.79
-1139.76
-1124.79
-1113.04
-1104.12
-1097.49
-1092.65
-1089.23
-1087
-1085.82
-1085.68
-1086.57
-1088.51
-1091.6
-1096.05
-1102.19
-1110.51
-1121.56
-1135.78
-1153.17
-1173.12
-1194.62
-1216.92
-1239.76
-1263.33
-1288.26
-1314.52
-1339.36
-1359.73
-1375.87
-1388.37
-1396.31
-1400.68
-1402.98
-1404.12
-1404.51
-1404.23
-1403.23
-1401.19
-1397.3
-1390.15
-1378.46
-1362.98
-1343.51
-1319.4
-1293.13
-1267.89
-1244.14
-1221.21
-1198.81
-1177.12
-1156.78
-1138.8
-1123.91
-1112.23
-1103.38
-1096.79
-1091.98
-1088.58
-1086.35
-1085.19
-1050.71
-1052.18
-1055.34
-1060.24
-1066.99
-1075.81
-1086.97
-1100.69
-1117.01
-1135.58
-1155.67
-1176.51
-1197.67
-1219.04
-1240.76
-1263.09
-1286.29
-1309.47
-1331.5
-1351.39
-1366.35
-1376.92
-1383.25
-1386.55
-1388.31
-1388.98
-1388.58
-1387.11
-1384.31
-1379.03
-1369.58
-1356.02
-1337.33
-1315.73
-1292.87
-1269.57
-1247.05
-1225.25
-1203.84
-1182.67
-1161.76
-1141.45
-1122.44
-1105.49
-1091.07
-1079.26
-1069.85
-1062.56
-1057.19
-1053.57
-1051.66
-1051.44
-1052.92
-1056.09
-1061
-1067.79
-1076.65
-1087.85
-1101.63
-1118.01
-1136.61
-1156.71
-1177.54
-1198.68
-1220.05
-1241.77
-1264.12
-1287.34
-1310.46
-1332.42
-1352.13
-1366.86
-1377.26
-1383.41
-1386.63
-1388.35
-1388.99
-1388.54
-1387.04
-1384.17
-1378.73
-1369.11
-1355.33
-1336.43
-1314.75
-1291.83
-1268.53
-1246.03
-1224.24
-1202.82
-1181.64
-1160.72
-1140.41
-1121.42
-1104.52
-1090.17
-1078.41
-1069.04
-1061.79
-1056.44
-1052.84
-1050.93
-1016.89
-1018.63
-1022.34
-1028.01
-1035.68
-1045.42
-1057.34
-1071.5
-1087.9
-1106.32
-1126.38
-1147.62
-1169.66
-1192.22
-1215.06
-1237.88
-1260.44
-1282.64
-1304.67
-1325.44
-1342.39
-1354.94
-1362.66
-1367.04
-1369.59
-1370.66
-1370.05
-1367.89
-1364.13
-1357.55
-1346.43
-1330.69
-1310.89
-1288.97
-1266.86
-1244.42
-1221.66
-1198.82
-1176.19
-1154.02
-1132.56
-1112.17
-1093.29
-1076.35
-1061.59
-1049.09
-1038.78
-1030.56
-1024.37
-1020.15
-1017.89
-1017.63
-1019.38
-1023.1
-1028.78
-1036.48
-1046.26
-1058.22
-1072.43
-1088.86
-1107.32
-1127.41
-1148.66
-1170.71
-1193.27
-1216.11
-1238.92
-1261.47
-1283.66
-1305.68
-1326.31
-1343.06
-1355.38
-1362.9
-1367.18
-1369.66
-1370.67
-1369.98
-1367.77
-1363.92
-1357.17
-1345.8
-1329.87
-1309.89
-1287.95
-1265.83
-1243.38
-1220.61
-1197.76
-1175.14
-1152.98
-1131.53
-1111.16
-1092.31
-1075.41
-1060.7
-1048.24
-1037.97
-1029.78
-1023.61
-1019.4
-1017.15
-982.067
-984.106
-988.419
-994.954
-1003.67
-1014.55
-1027.57
-1042.68
-1059.78
-1078.66
-1099.03
-1120.57
-1143.02
-1166.18
-1189.88
-1213.89
-1237.83
-1261.13
-1283.14
-1303.31
-1321.01
-1334.07
-1342.08
-1346.16
-1348.69
-1350.06
-1349.26
-1346.96
-1343.62
-1336.91
-1325.38
-1308.8
-1289.22
-1267.69
-1244.7
-1220.89
-1196.87
-1173.08
-1149.78
-1127.15
-1105.36
-1084.66
-1065.36
-1047.77
-1032.11
-1018.53
-1007.08
-997.778
-990.661
-985.761
-983.127
-982.825
-984.869
-989.193
-995.745
-1004.49
-1015.4
-1028.45
-1043.6
-1060.74
-1079.65
-1100.05
-1121.61
-1144.08
-1167.25
-1190.97
-1214.99
-1238.92
-1262.19
-1284.13
-1304.22
-1321.76
-1334.57
-1342.35
-1346.29
-1348.78
-1350.07
-1349.18
-1346.84
-1343.39
-1336.47
-1324.68
-1307.91
-1288.24
-1266.64
-1243.61
-1219.79
-1195.78
-1171.99
-1148.71
-1126.09
-1104.33
-1083.65
-1064.39
-1046.84
-1031.22
-1017.67
-1006.25
-996.979
-989.882
-984.996
-982.369
-949.085
-951.392
-956.249
-963.551
-973.186
-985.043
-999.006
-1014.95
-1032.72
-1052.13
-1072.94
-1094.95
-1117.96
-1141.82
-1166.41
-1191.53
-1216.8
-1241.72
-1265.61
-1287.51
-1306.09
-1319.16
-1325.75
-1327.99
-1328.82
-1329.64
-1329.14
-1328.34
-1326.83
-1321.86
-1310.66
-1293.41
-1272.29
-1248.87
-1224.19
-1198.97
-1173.79
-1149.05
-1124.99
-1101.75
-1079.46
-1058.3
-1038.49
-1020.25
-1003.79
-989.279
-976.84
-966.597
-958.665
-953.156
-950.18
-949.838
-952.15
-957.018
-964.337
-973.995
-985.88
-999.876
-1015.86
-1033.66
-1053.1
-1073.95
-1095.99
-1119.03
-1142.92
-1167.55
-1192.68
-1217.96
-1242.86
-1266.69
-1288.49
-1306.89
-1319.66
-1325.97
-1328.06
-1328.87
-1329.65
-1329.08
-1328.29
-1326.66
-1321.43
-1309.93
-1292.47
-1271.23
-1247.74
-1223.03
-1197.82
-1172.65
-1147.93
-1123.9
-1100.69
-1078.44
-1057.31
-1037.54
-1019.34
-1002.91
-988.431
-976.022
-965.805
-957.891
-952.395
-949.426
-918.676
-921.278
-926.732
-934.873
-945.511
-958.443
-973.464
-990.371
-1008.96
-1029.04
-1050.43
-1072.95
-1096.51
-1121.02
-1146.43
-1172.57
-1199.09
-1225.47
-1251.02
-1274.78
-1295.41
-1310.49
-1317
-1316.71
-1314.87
-1314.2
-1314.6
-1316.31
-1317.63
-1313.51
-1300.68
-1281.31
-1258.29
-1233.15
-1206.95
-1180.44
-1154.18
-1128.55
-1103.8
-1079.98
-1057.15
-1035.43
-1014.96
-995.927
-978.524
-962.956
-949.429
-938.15
-929.326
-923.15
-919.798
-919.413
-922.02
-927.484
-935.641
-946.301
-959.26
-974.313
-991.255
-1009.88
-1030
-1051.42
-1073.99
-1097.59
-1122.14
-1147.6
-1173.77
-1200.3
-1226.67
-1252.18
-1275.85
-1296.31
-1311.06
-1317.17
-1316.67
-1314.83
-1314.2
-1314.63
-1316.36
-1317.53
-1313.04
-1299.84
-1280.26
-1257.14
-1231.95
-1205.73
-1179.24
-1153
-1127.42
-1102.71
-1078.93
-1056.14
-1034.46
-1014.03
-995.031
-977.664
-962.129
-948.63
-937.374
-928.568
-922.405
-919.06
-890.795
-893.745
-899.907
-909.045
-920.881
-935.109
-951.423
-969.535
-989.185
-1010.15
-1032.27
-1055.42
-1079.56
-1104.69
-1130.83
-1157.87
-1185.48
-1213.19
-1240.28
-1265.78
-1288.32
-1305.86
-1315.04
-1314.99
-1311.31
-1309.38
-1310.57
-1314.21
-1316.09
-1309.77
-1294.25
-1272.89
-1248.1
-1221.37
-1193.79
-1166.12
-1138.9
-1112.5
-1087.1
-1062.68
-1039.23
-1016.79
-995.459
-975.392
-956.803
-939.945
-925.104
-912.586
-902.701
-895.737
-891.943
-891.508
-894.463
-900.634
-909.789
-921.645
-935.899
-952.244
-970.39
-990.078
-1011.09
-1033.25
-1056.45
-1080.64
-1105.81
-1132.01
-1159.1
-1186.74
-1214.45
-1241.52
-1266.93
-1289.31
-1306.56
-1315.3
-1314.91
-1311.2
-1309.37
-1310.67
-1314.32
-1315.94
-1309.16
-1293.31
-1271.77
-1246.88
-1220.11
-1192.52
-1164.88
-1137.71
-1111.36
-1086.01
-1061.64
-1038.24
-1015.84
-994.553
-974.524
-955.97
-939.143
-924.33
-911.835
-901.967
-895.016
-891.229
-864.934
-868.31
-875.338
-885.703
-899.021
-914.868
-932.818
-952.478
-973.513
-995.661
-1018.75
-1042.69
-1067.5
-1093.25
-1120.06
-1147.87
-1176.41
-1205.24
-1233.7
-1260.79
-1285.18
-1305.03
-1317.67
-1321.12
-1318.75
-1316.75
-1318.05
-1320.98
-1319.87
-1309.82
-1291.74
-1268.46
-1242.02
-1213.87
-1185.11
-1156.46
-1128.43
-1101.33
-1075.29
-1050.21
-1025.99
-1002.6
-980.127
-958.706
-938.588
-920.094
-903.611
-889.56
-878.371
-870.444
-866.112
-865.619
-868.999
-876.036
-886.417
-899.755
-915.627
-933.607
-953.302
-974.375
-996.565
-1019.7
-1043.7
-1068.56
-1094.37
-1121.26
-1149.12
-1177.7
-1206.56
-1234.99
-1262.02
-1286.26
-1305.85
-1318.11
-1321.16
-1318.65
-1316.73
-1318.14
-1321
-1319.54
-1309.07
-1290.71
-1267.27
-1240.73
-1212.56
-1183.8
-1155.2
-1127.23
-1100.19
-1074.21
-1049.19
-1025.02
-1001.69
-979.25
-957.869
-937.786
-919.323
-902.866
-888.837
-877.666
-869.751
-865.426
-840.379
-844.272
-852.356
-864.224
-879.368
-897.224
-917.226
-938.855
-961.675
-985.364
-1009.72
-1034.69
-1060.32
-1086.75
-1114.21
-1142.67
-1171.95
-1201.69
-1231.26
-1259.72
-1285.79
-1307.78
-1323.6
-1331.46
-1332.69
-1331.99
-1332.59
-1332.54
-1326.98
-1313.36
-1292.94
-1267.89
-1240.02
-1210.7
-1180.97
-1151.55
-1122.85
-1095.09
-1068.37
-1042.49
-1017.29
-992.678
-968.706
-945.538
-923.473
-902.925
-884.401
-868.461
-855.677
-846.578
-841.596
-841.034
-844.931
-853.024
-864.907
-880.07
-897.951
-917.982
-939.645
-962.504
-986.236
-1010.65
-1035.67
-1061.36
-1087.87
-1115.4
-1143.93
-1173.27
-1203.04
-1232.6
-1261.01
-1286.94
-1308.71
-1324.21
-1331.7
-1332.7
-1331.99
-1332.6
-1332.38
-1326.46
-1312.49
-1291.83
-1266.63
-1238.68
-1209.35
-1179.65
-1150.27
-1121.64
-1093.96
-1067.31
-1041.5
-1016.35
-991.789
-967.861
-944.733
-922.703
-902.185
-883.686
-867.769
-855.002
-845.915
-840.941
-816.4
-820.908
-830.25
-843.918
-861.26
-881.55
-904.06
-928.119
-953.171
-978.809
-1004.79
-1031.06
-1057.71
-1084.93
-1113.04
-1142.05
-1171.91
-1202.32
-1232.72
-1262.24
-1289.66
-1313.44
-1331.86
-1343.41
-1348.37
-1349.46
-1349.04
-1345.64
-1336.19
-1319.68
-1297.31
-1270.82
-1241.82
-1211.62
-1181.2
-1151.17
-1121.91
-1093.54
-1066.05
-1039.19
-1012.74
-986.567
-960.703
-935.35
-910.879
-887.818
-866.819
-848.605
-833.913
-823.417
-817.666
-817.023
-821.535
-830.887
-844.569
-861.931
-882.246
-904.784
-928.876
-953.967
-979.649
-1005.69
-1032.01
-1058.72
-1086.03
-1114.21
-1143.31
-1173.23
-1203.68
-1234.09
-1263.56
-1290.87
-1314.47
-1332.6
-1343.82
-1348.51
-1349.47
-1348.95
-1345.31
-1335.53
-1318.72
-1296.13
-1269.51
-1240.45
-1210.25
-1179.86
-1149.9
-1120.72
-1092.43
-1065.01
-1038.22
-1011.83
-985.709
-959.89
-934.576
-910.139
-887.108
-866.135
-847.943
-833.268
-822.785
-817.041
-792.346
-797.566
-808.37
-824.134
-844.046
-867.198
-892.673
-919.633
-947.376
-975.392
-1003.38
-1031.27
-1059.17
-1087.34
-1116.11
-1145.62
-1175.89
-1206.73
-1237.65
-1267.85
-1296.19
-1321.28
-1341.56
-1355.73
-1363.47
-1366.04
-1364.76
-1358.78
-1346.57
-1328.01
-1304.21
-1276.72
-1246.99
-1216.24
-1185.37
-1154.93
-1125.19
-1096.2
-1067.82
-1039.77
-1011.78
-983.672
-955.498
-927.505
-900.159
-874.123
-850.214
-829.342
-812.427
-800.312
-793.671
-792.937
-798.161
-808.975
-824.754
-844.686
-867.862
-893.368
-920.36
-948.142
-976.202
-1004.25
-1032.19
-1060.16
-1088.41
-1117.26
-1146.86
-1177.21
-1208.1
-1239.03
-1269.19
-1297.44
-1322.36
-1342.39
-1356.25
-1363.71
-1366.07
-1364.58
-1358.33
-1345.81
-1326.98
-1303
-1275.39
-1245.61
-1214.87
-1184.04
-1153.67
-1124.02
-1095.1
-1066.8
-1038.83
-1010.89
-982.843
-954.714
-926.759
-899.448
-873.441
-849.559
-828.709
-811.812
-799.71
-793.078
-767.687
-773.711
-786.166
-804.301
-827.128
-853.538
-882.411
-912.717
-943.594
-974.411
-1004.79
-1034.63
-1064.03
-1093.31
-1122.8
-1152.77
-1183.35
-1214.39
-1245.5
-1275.98
-1304.77
-1330.59
-1351.98
-1367.73
-1377.24
-1380.79
-1378.92
-1371.3
-1357.4
-1337.61
-1313.01
-1285
-1254.96
-1224.01
-1192.94
-1162.24
-1132.08
-1102.42
-1073.01
-1043.55
-1013.69
-983.285
-952.387
-921.316
-890.65
-861.203
-833.98
-810.092
-790.665
-776.723
-769.082
-768.247
-774.275
-786.74
-804.891
-827.739
-854.174
-883.077
-913.417
-944.332
-975.192
-1005.63
-1035.52
-1064.99
-1094.35
-1123.93
-1153.99
-1184.63
-1215.73
-1246.87
-1277.32
-1306.02
-1331.7
-1352.86
-1368.33
-1377.54
-1380.82
-1378.69
-1370.77
-1356.59
-1336.56
-1311.78
-1283.67
-1253.6
-1222.66
-1191.64
-1161
-1130.93
-1101.35
-1072.03
-1042.63
-1012.84
-982.483
-951.629
-920.597
-889.964
-860.548
-833.352
-809.488
-790.08
-776.152
-768.52
-742.015
-748.922
-763.194
-783.937
-809.972
-839.975
-872.613
-906.655
-941.061
-975.066
-1008.2
-1040.31
-1071.49
-1102.05
-1132.36
-1162.79
-1193.59
-1224.63
-1255.63
-1285.96
-1314.69
-1340.62
-1362.46
-1379.02
-1389.48
-1393.6
-1391.4
-1382.86
-1368.08
-1347.75
-1322.96
-1294.99
-1265.09
-1234.27
-1203.24
-1172.38
-1141.8
-1111.41
-1080.82
-1049.69
-1017.67
-984.6
-950.594
-916.053
-881.678
-848.448
-817.567
-790.363
-768.176
-752.228
-743.488
-742.543
-749.455
-763.737
-784.497
-810.554
-840.584
-873.253
-907.329
-941.773
-975.821
-1009.01
-1041.17
-1072.42
-1103.06
-1133.45
-1163.97
-1194.84
-1225.94
-1256.96
-1287.28
-1315.92
-1341.72
-1363.34
-1379.64
-1389.82
-1393.63
-1391.14
-1382.3
-1367.25
-1346.7
-1321.75
-1293.69
-1263.76
-1232.95
-1201.97
-1171.18
-1140.69
-1110.38
-1079.87
-1048.8
-1016.84
-983.822
-949.86
-915.357
-881.016
-847.818
-816.966
-789.787
-767.62
-751.687
-742.957
-715.023
-722.883
-739.104
-762.634
-792.091
-825.929
-862.602
-900.68
-938.926
-976.442
-1012.66
-1047.34
-1080.56
-1112.59
-1143.82
-1174.71
-1205.56
-1236.42
-1267.05
-1296.93
-1325.2
-1350.81
-1372.56
-1389.33
-1400.17
-1404.54
-1402.19
-1393.27
-1378.23
-1357.89
-1333.37
-1305.84
-1276.4
-1245.98
-1215.19
-1184.32
-1153.4
-1122.2
-1090.27
-1057.22
-1022.73
-986.687
-949.251
-910.925
-872.545
-835.254
-800.468
-769.73
-744.598
-726.503
-716.583
-715.519
-723.383
-739.615
-763.164
-792.645
-826.513
-863.219
-901.332
-939.616
-977.175
-1013.44
-1048.18
-1081.45
-1113.56
-1144.87
-1175.84
-1206.76
-1237.67
-1268.33
-1298.19
-1326.39
-1351.87
-1373.44
-1389.96
-1400.52
-1404.57
-1401.92
-1392.71
-1377.41
-1356.87
-1332.21
-1304.59
-1275.13
-1244.72
-1213.97
-1183.18
-1152.33
-1121.2
-1089.35
-1056.36
-1021.93
-985.931
-948.537
-910.25
-871.904
-834.647
-799.892
-769.181
-744.072
-725.993
-716.083
-686.481
-695.357
-713.62
-740.042
-773.031
-810.818
-851.635
-893.856
-936.101
-977.326
-1016.85
-1054.35
-1089.82
-1123.51
-1155.81
-1187.25
-1218.19
-1248.8
-1278.91
-1308.1
-1335.64
-1360.58
-1381.84
-1398.37
-1409.18
-1413.58
-1411.21
-1402.28
-1387.41
-1367.5
-1343.61
-1316.8
-1288.08
-1258.23
-1227.76
-1196.88
-1165.53
-1133.38
-1099.94
-1064.76
-1027.56
-988.307
-947.235
-904.955
-862.436
-820.988
-782.199
-747.823
-719.643
-699.307
-688.137
-686.944
-695.824
-714.1
-740.542
-773.557
-811.375
-852.227
-894.486
-936.77
-978.038
-1017.61
-1055.16
-1090.69
-1124.44
-1156.81
-1188.32
-1219.33
-1249.99
-1280.12
-1309.29
-1336.77
-1361.59
-1382.68
-1398.98
-1409.52
-1413.62
-1410.94
-1401.74
-1386.63
-1366.53
-1342.5
-1315.62
-1286.87
-1257.03
-1226.6
-1195.79
-1164.51
-1132.43
-1099.05
-1063.92
-1026.78
-987.57
-946.54
-904.298
-861.816
-820.404
-781.648
-747.302
-719.147
-698.83
-687.671
-656.182
-666.083
-686.381
-715.661
-752.126
-793.802
-838.727
-885.101
-931.396
-976.435
-1019.42
-1059.93
-1097.87
-1133.41
-1166.95
-1199.08
-1230.22
-1260.59
-1290.14
-1318.53
-1345.15
-1369.19
-1389.69
-1405.66
-1416.17
-1420.48
-1418.15
-1409.46
-1395.07
-1375.87
-1352.85
-1326.96
-1299.07
-1269.85
-1239.7
-1208.74
-1176.82
-1143.55
-1108.4
-1070.88
-1030.79
-988.158
-943.335
-897.04
-850.373
-804.793
-762.053
-724.098
-692.913
-670.352
-657.929
-656.609
-666.515
-686.826
-716.129
-752.623
-794.333
-839.296
-885.709
-932.046
-977.128
-1020.16
-1060.71
-1098.71
-1134.3
-1167.91
-1200.1
-1231.3
-1261.71
-1291.27
-1319.64
-1346.21
-1370.14
-1390.48
-1406.24
-1416.5
-1420.51
-1417.9
-1408.95
-1394.34
-1374.96
-1351.81
-1325.85
-1297.94
-1268.73
-1238.61
-1207.7
-1175.84
-1142.64
-1107.54
-1070.07
-1030.03
-987.438
-942.656
-896.401
-849.774
-804.232
-761.529
-723.606
-692.449
-669.909
-657.499
-623.962
-634.837
-657.051
-689.008
-728.726
-774.053
-822.867
-873.221
-923.458
-972.28
-1018.77
-1062.4
-1102.97
-1140.54
-1175.54
-1208.56
-1240.06
-1270.32
-1299.35
-1326.94
-1352.59
-1375.62
-1395.21
-1410.45
-1420.5
-1424.63
-1422.4
-1414.08
-1400.35
-1382.01
-1359.97
-1335.07
-1308.03
-1279.39
-1249.45
-1218.25
-1185.56
-1150.98
-1113.94
-1073.91
-1030.79
-984.724
-936.165
-885.949
-835.297
-785.797
-739.345
-698.04
-664.044
-639.395
-625.789
-624.35
-635.231
-657.46
-689.442
-729.192
-774.557
-823.412
-873.809
-924.09
-972.955
-1019.49
-1063.16
-1103.78
-1141.39
-1176.44
-1209.51
-1241.07
-1271.36
-1300.41
-1327.97
-1353.57
-1376.5
-1395.93
-1410.99
-1420.8
-1424.66
-1422.16
-1413.61
-1399.66
-1381.17
-1359.01
-1334.04
-1306.98
-1278.35
-1248.43
-1217.27
-1184.64
-1150.11
-1113.11
-1073.12
-1030.05
-984.021
-935.503
-885.329
-834.72
-785.262
-738.849
-697.58
-663.615
-638.989
-625.396
-589.71
-601.447
-625.337
-659.623
-702.17
-750.692
-802.946
-856.881
-910.741
-963.124
-1013.01
-1059.75
-1103.02
-1142.77
-1179.42
-1213.56
-1245.64
-1275.99
-1304.68
-1331.58
-1356.33
-1378.37
-1397.01
-1411.47
-1420.99
-1424.9
-1422.79
-1414.91
-1401.88
-1384.44
-1363.38
-1339.4
-1313.1
-1284.89
-1254.97
-1223.3
-1189.63
-1153.52
-1114.42
-1071.79
-1025.64
-976.23
-924.136
-870.301
-816.05
-763.072
-713.366
-669.149
-632.712
-606.243
-591.598
-590.056
-601.8
-625.706
-660.019
-702.602
-751.165
-803.465
-857.447
-911.354
-963.783
-1013.71
-1060.49
-1103.8
-1143.59
-1180.28
-1214.46
-1246.58
-1276.95
-1305.65
-1332.53
-1357.22
-1379.17
-1397.67
-1411.96
-1421.27
-1424.94
-1422.57
-1414.47
-1401.25
-1383.67
-1362.51
-1338.46
-1312.13
-1283.92
-1254.02
-1222.38
-1188.75
-1152.68
-1113.62
-1071.02
-1024.91
-975.542
-923.49
-869.7
-815.495
-762.563
-712.902
-668.723
-632.32
-605.877
-591.247
-553.366
-565.783
-590.972
-627.05
-671.775
-722.779
-777.755
-834.596
-891.487
-946.956
-999.892
-1049.54
-1095.44
-1137.42
-1175.88
-1211.34
-1244.26
-1274.95
-1303.54
-1329.98
-1354
-1375.19
-1392.96
-1406.68
-1415.69
-1419.39
-1417.38
-1409.92
-1397.56
-1380.95
-1360.74
-1337.52
-1311.75
-1283.73
-1253.56
-1221.17
-1186.28
-1148.47
-1107.25
-1062.06
-1013.05
-960.609
-905.429
-848.547
-791.36
-735.621
-683.383
-636.924
-598.615
-570.742
-555.287
-553.666
-566.09
-591.298
-627.406
-672.169
-723.218
-778.244
-835.137
-892.079
-947.596
-1000.58
-1050.26
-1096.2
-1138.21
-1176.7
-1212.2
-1245.14
-1275.85
-1304.44
-1330.85
-1354.82
-1375.91
-1393.56
-1407.13
-1415.94
-1419.42
-1417.19
-1409.53
-1397
-1380.25
-1359.95
-1336.66
-1310.85
-1282.82
-1252.67
-1220.31
-1185.44
-1147.67
-1106.47
-1061.31
-1012.34
-959.939
-904.804
-847.969
-790.833
-735.144
-682.954
-636.538
-598.265
-570.42
-554.981
-514.912
-527.752
-553.721
-590.851
-636.851
-689.337
-746.001
-804.742
-863.737
-921.486
-976.82
-1028.89
-1077.13
-1121.21
-1161.49
-1198.42
-1232.37
-1263.66
-1292.42
-1318.66
-1342.21
-1362.75
-1379.84
-1392.94
-1401.51
-1405.01
-1403.1
-1395.99
-1384.2
-1368.25
-1348.68
-1325.96
-1300.45
-1272.33
-1241.67
-1208.34
-1172.08
-1132.52
-1089.25
-1041.76
-990.347
-935.501
-878.015
-818.991
-759.866
-702.4
-648.645
-600.876
-561.477
-532.776
-516.83
-515.163
-528.01
-553.999
-591.16
-637.202
-689.737
-746.455
-805.252
-864.303
-922.104
-977.484
-1029.59
-1077.86
-1121.97
-1162.28
-1199.22
-1233.2
-1264.49
-1293.24
-1319.46
-1342.95
-1363.41
-1380.38
-1393.34
-1401.73
-1405.04
-1402.92
-1395.64
-1383.68
-1367.61
-1347.95
-1325.18
-1299.62
-1271.5
-1240.84
-1207.52
-1171.28
-1131.75
-1088.5
-1041.04
-989.658
-934.853
-877.414
-818.443
-759.372
-701.96
-648.257
-600.535
-561.174
-532.502
-516.573
-474.377
-487.308
-513.385
-550.614
-596.724
-649.381
-706.353
-765.61
-825.383
-884.196
-940.866
-994.488
-1044.41
-1090.17
-1132.04
-1170.35
-1205.4
-1237.42
-1266.56
-1292.85
-1316.18
-1336.32
-1352.91
-1365.55
-1373.77
-1377.13
-1375.28
-1368.44
-1357.06
-1341.57
-1322.42
-1299.96
-1274.45
-1246.03
-1214.7
-1180.35
-1142.76
-1101.64
-1056.66
-1007.52
-954.523
-898.298
-839.695
-779.842
-720.158
-662.355
-608.416
-560.544
-521.062
-492.271
-476.244
-474.573
-487.512
-513.61
-550.872
-597.025
-649.734
-706.764
-766.081
-825.913
-884.783
-941.503
-995.167
-1045.12
-1090.9
-1132.8
-1171.12
-1206.18
-1238.2
-1267.33
-1293.58
-1316.86
-1336.91
-1353.4
-1365.91
-1373.97
-1377.15
-1375.11
-1368.12
-1356.59
-1341
-1321.76
-1299.23
-1273.68
-1245.24
-1213.91
-1179.57
-1141.99
-1100.89
-1055.95
-1006.82
-953.862
-897.68
-839.127
-779.33
-719.705
-661.961
-608.077
-560.253
-520.812
-492.051
-476.042
-431.824
-444.439
-469.809
-505.978
-550.768
-601.976
-657.514
-715.493
-774.267
-832.447
-888.891
-942.694
-993.15
-1039.72
-1082.56
-1121.82
-1157.69
-1190.34
-1219.86
-1246.27
-1269.51
-1289.39
-1305.64
-1317.94
-1325.9
-1329.14
-1327.33
-1320.69
-1309.6
-1294.43
-1275.54
-1253.19
-1227.59
-1198.84
-1166.94
-1131.8
-1093.27
-1051.17
-1005.32
-955.579
-902.336
-846.258
-788.214
-729.298
-670.853
-614.475
-562.01
-515.513
-477.174
-449.19
-433.583
-431.96
-444.583
-469.974
-506.177
-551.011
-602.273
-657.871
-715.913
-774.75
-832.99
-889.489
-943.337
-993.828
-1040.42
-1083.28
-1122.55
-1158.43
-1191.07
-1220.57
-1246.95
-1270.13
-1289.93
-1306.08
-1318.26
-1326.08
-1329.15
-1327.18
-1320.39
-1309.18
-1293.91
-1274.93
-1252.52
-1226.88
-1198.11
-1166.19
-1131.05
-1092.53
-1050.45
-1004.63
-954.918
-901.711
-845.681
-787.692
-728.837
-670.453
-614.137
-561.729
-515.282
-476.983
-449.03
-433.442
-387.41
-399.236
-422.952
-456.716
-498.517
-546.358
-598.366
-652.864
-708.392
-763.712
-817.793
-869.793
-919.026
-964.935
-1007.51
-1046.73
-1082.65
-1115.34
-1144.82
-1171.1
-1194.08
-1213.62
-1229.51
-1241.46
-1249.18
-1252.3
-1250.53
-1244.07
-1233.27
-1218.44
-1199.87
-1177.77
-1152.33
-1123.62
-1091.68
-1056.47
-1017.94
-976.037
-930.74
-882.11
-830.554
-776.734
-721.464
-665.737
-610.752
-557.927
-508.901
-465.511
-429.737
-403.6
-388.996
-387.48
-399.313
-423.051
-456.848
-498.693
-546.587
-598.655
-653.217
-708.81
-764.192
-818.331
-870.381
-919.653
-965.588
-1008.18
-1047.41
-1083.34
-1116.02
-1145.48
-1171.72
-1194.64
-1214.11
-1229.91
-1241.75
-1249.34
-1252.32
-1250.39
-1243.8
-1232.89
-1217.96
-1199.31
-1177.15
-1151.67
-1122.93
-1090.98
-1055.77
-1017.25
-975.365
-930.096
-881.498
-829.985
-776.218
-721.006
-665.342
-610.421
-557.658
-508.688
-465.347
-429.614
-403.507
-388.92
-341.202
-351.715
-372.738
-402.614
-439.578
-481.905
-528.006
-576.471
-626.085
-675.824
-724.832
-772.407
-817.963
-861.013
-901.357
-938.821
-973.317
-1004.8
-1033.23
-1058.55
-1080.65
-1099.39
-1114.57
-1125.97
-1133.3
-1136.26
-1134.55
-1128.39
-1118.07
-1103.88
-1086.06
-1064.81
-1040.28
-1012.59
-981.794
-947.95
-911.094
-871.297
-828.706
-783.583
-736.306
-687.441
-637.67
-587.819
-538.881
-492.035
-448.651
-410.289
-378.651
-355.505
-342.543
-341.2
-351.721
-372.763
-402.67
-439.675
-482.053
-528.211
-576.737
-626.415
-676.216
-725.283
-772.911
-818.512
-861.595
-901.964
-939.442
-973.942
-1005.42
-1033.83
-1059.11
-1081.16
-1099.83
-1114.93
-1126.23
-1133.44
-1136.27
-1134.43
-1128.15
-1117.73
-1103.45
-1085.56
-1064.25
-1039.68
-1011.96
-981.156
-947.311
-910.466
-870.691
-828.132
-783.049
-735.821
-687.012
-637.301
-587.513
-538.637
-491.849
-448.52
-410.204
-378.604
-355.485
-342.54
-293.185
-301.84
-319.084
-343.525
-373.715
-408.264
-445.915
-485.575
-526.318
-567.382
-608.142
-648.1
-686.859
-724.1
-759.447
-792.589
-823.336
-851.554
-877.136
-899.97
-919.926
-936.847
-950.551
-960.825
-967.43
-970.094
-968.536
-962.955
-953.631
-940.804
-924.692
-905.481
-883.335
-858.386
-830.75
-800.535
-767.863
-732.909
-695.947
-657.421
-617.605
-576.882
-535.731
-494.751
-454.68
-416.411
-381.004
-349.685
-323.822
-304.858
-294.209
-293.107
-301.768
-319.029
-343.498
-373.723
-408.316
-446.018
-485.733
-526.534
-567.655
-608.472
-648.483
-687.291
-724.574
-759.951
-793.112
-823.865
-852.079
-877.644
-900.448
-920.36
-937.224
-950.857
-961.046
-967.552
-970.103
-968.431
-962.748
-953.335
-940.433
-924.259
-905.002
-882.821
-857.851
-830.207
-799.994
-767.337
-732.408
-695.483
-657.004
-617.24
-576.572
-535.479
-494.558
-454.543
-416.326
-380.967
-349.689
-323.858
-304.918
-294.283
-248.704
-254.879
-267.106
-284.336
-305.508
-329.63
-355.828
-383.366
-411.646
-440.201
-468.682
-496.849
-524.566
-551.79
-578.018
-602.885
-626.161
-647.685
-667.322
-684.94
-700.403
-713.561
-724.246
-732.276
-737.45
-739.538
-738.298
-733.902
-726.588
-716.561
-704.006
-689.09
-671.968
-652.778
-631.652
-608.724
-584.146
-558.131
-531.005
-503.321
-475.165
-446.656
-418.011
-389.558
-361.741
-335.13
-310.435
-288.501
-270.299
-256.882
-249.308
-248.526
-254.707
-266.946
-284.197
-305.398
-329.554
-355.791
-383.373
-411.7
-440.303
-468.832
-497.048
-524.814
-552.087
-578.35
-603.24
-626.529
-648.056
-667.686
-685.286
-700.72
-713.838
-724.471
-732.44
-737.541
-739.545
-738.218
-733.746
-726.368
-716.287
-703.688
-688.741
-671.597
-652.397
-631.271
-608.352
-583.794
-557.807
-530.721
-503.088
-474.983
-446.524
-417.928
-389.523
-361.751
-335.182
-310.524
-288.621
-270.444
-257.045
-249.482
-169.126
-172.842
-180.159
-190.415
-202.955
-217.176
-232.562
-248.692
-265.238
-281.967
-298.734
-315.496
-332.33
-349.467
-366.326
-382.55
-397.922
-412.284
-425.504
-437.455
-448.007
-457.029
-464.382
-469.922
-473.498
-474.941
-474.074
-471.024
-465.965
-459.05
-450.424
-440.224
-428.585
-415.635
-401.501
-386.316
-370.229
-353.442
-336.277
-319.331
-302.502
-285.678
-268.88
-252.229
-235.941
-220.324
-205.78
-192.807
-181.989
-173.975
-169.43
-168.962
-172.682
-180.007
-190.276
-202.834
-217.077
-232.489
-248.646
-265.223
-281.984
-298.785
-315.583
-332.456
-349.638
-366.528
-382.773
-398.157
-412.525
-425.744
-437.684
-448.219
-457.214
-464.533
-470.032
-473.56
-474.945
-474.019
-470.918
-465.816
-458.866
-450.211
-439.992
-428.34
-415.386
-401.255
-386.08
-370.011
-353.248
-336.116
-319.217
-302.427
-285.64
-268.875
-252.256
-235.998
-220.408
-205.888
-192.934
-182.132
-174.13
-169.592
-253.25
-251.539
-247.755
-241.842
-233.819
-223.78
-211.892
-198.379
-183.513
-167.602
-150.986
-134.052
-117.282
-101.427
-86.2732
-71.8829
-58.4003
-45.9753
-34.7443
-24.8224
-16.3023
-9.25285
-3.71978
0.274299
2.73056
3.67816
3.17145
1.16833
-2.36949
-7.45043
-14.0586
-22.155
-31.6773
-42.5397
-54.6328
-67.8258
-81.9715
-96.9231
-112.591
-129.176
-146.1
-162.823
-178.935
-194.084
-207.954
-220.263
-230.773
-239.305
-245.746
-250.059
-252.283
-252.527
-250.816
-247.033
-241.122
-233.101
-223.066
-211.182
-197.676
-182.818
-166.919
-150.318
-133.404
-116.663
-100.854
-85.7365
-71.3841
-57.9419
-45.5607
-34.3762
-24.5036
-16.0347
-9.038
-3.5584
0.382157
2.78567
3.68243
3.12548
1.06987
-2.52146
-7.65606
-14.3173
-22.4655
-32.0377
-42.9476
-55.0852
-68.3195
-82.5032
-97.4896
-113.192
-129.817
-146.767
-163.506
-179.631
-194.79
-208.666
-220.98
-231.493
-240.027
-246.468
-250.782
-253.007
)
;

boundaryField
{
    top
    {
        type            fixedValue;
        value           uniform 0;
    }
    bottom
    {
        type            fixedFluxPressure;
        gradient        nonuniform List<scalar> 
102
(
0
0
0
0
0
0
0
0
0
0
0
0
0
0
0
0
0
0
0
0
0
0
0
0
0
0
0
0
0
0
0
0
0
0
0
0
0
0
0
0
0
0
0
0
0
0
0
0
0
0
0
0
0
0
0
0
0
0
0
0
0
0
0
0
0
0
0
0
0
0
0
0
0
0
0
0
0
0
0
0
0
0
0
0
0
0
0
0
0
0
0
0
0
0
0
0
0
0
0
0
0
-2.07202e-14
)
;
        value           nonuniform List<scalar> 
102
(
-967
-970.273
-977.05
-986.963
-999.47
-1013.94
-1029.89
-1047.44
-1067.64
-1092.09
-1121.79
-1156.17
-1193.61
-1232.4
-1270.79
-1307.08
-1339.89
-1368.33
-1391.6
-1408.69
-1419.84
-1426
-1428.55
-1429.01
-1428.69
-1428.43
-1428.53
-1428.81
-1428.59
-1426.69
-1421.6
-1411.86
-1396.41
-1374.73
-1347.55
-1315.84
-1280.38
-1242.43
-1203.63
-1165.74
-1130.48
-1099.51
-1073.74
-1052.57
-1034.49
-1018.21
-1003.39
-990.403
-979.873
-972.369
-968.301
-967.891
-971.162
-977.933
-987.835
-1000.33
-1014.78
-1030.73
-1048.3
-1068.6
-1093.19
-1123.03
-1157.51
-1195
-1233.8
-1272.14
-1308.33
-1340.99
-1369.26
-1392.3
-1409.15
-1420.09
-1426.08
-1428.53
-1428.95
-1428.65
-1428.42
-1428.56
-1428.86
-1428.62
-1426.64
-1421.4
-1411.45
-1395.76
-1373.84
-1346.48
-1314.62
-1279.04
-1241.03
-1202.23
-1164.38
-1129.21
-1098.37
-1072.74
-1051.69
-1033.65
-1017.37
-1002.53
-989.53
-978.989
-971.479
-967.41
)
;
    }
    frontAndBack
    {
        type            empty;
    }
    left_cyc
    {
        type            cyclic;
    }
    right_cyc
    {
        type            cyclic;
    }
}


// ************************************************************************* //
