/*--------------------------------*- C++ -*----------------------------------*\
| =========                 |                                                 |
| \\      /  F ield         | OpenFOAM: The Open Source CFD Toolbox           |
|  \\    /   O peration     | Version:  2.3.0                                 |
|   \\  /    A nd           | Web:      www.OpenFOAM.org                      |
|    \\/     M anipulation  |                                                 |
\*---------------------------------------------------------------------------*/
FoamFile
{
    version     2.0;
    format      ascii;
    class       volScalarField;
    location    "25000";
    object      p_rgh;
}
// * * * * * * * * * * * * * * * * * * * * * * * * * * * * * * * * * * * * * //

dimensions      [0 2 -2 0 0 0 0];

internalField   nonuniform List<scalar> 
765
(
-71.5684
-85.4754
-110.959
-146.813
-191.368
-242.148
-295.309
-345.738
-389.642
-424.938
-447.007
-455.962
-458.3
-456.898
-449.951
-431.547
-398.505
-356.53
-307.299
-254.296
-202.527
-156.214
-118.09
-89.9682
-73.1418
-68.5016
-76.366
-96.2288
-127.085
-167.528
-215.56
-268.12
-320.585
-368.292
-408.075
-438.08
-452.81
-457.873
-458.337
-454.824
-443.324
-417.19
-379.681
-333.806
-282.252
-229.23
-179.695
-137.097
-103.665
-80.935
-70.0172
-113.918
-124.697
-144.028
-170.728
-203.543
-241.08
-281.987
-325.649
-367.067
-397.964
-418.97
-430.679
-434.104
-431.984
-422.643
-403.515
-375.181
-335.778
-291.86
-250.105
-211.611
-177.508
-149.199
-127.957
-114.975
-111.322
-117.487
-132.725
-155.918
-185.855
-221.23
-260.62
-303.107
-346.92
-383.696
-409.379
-426.307
-433.297
-434.024
-429.033
-414.689
-391.524
-357.749
-314.787
-271.655
-231.479
-194.969
-163.538
-138.539
-121.205
-112.694
-61.2473
-72.7599
-93.1963
-121.185
-155.406
-194.691
-238.005
-284.594
-330.109
-365.83
-390.803
-403.691
-407.56
-405.043
-394.87
-372.383
-339.264
-295.325
-248.327
-204.155
-163.807
-128.263
-98.6472
-76.2422
-62.4172
-58.4707
-65.1057
-81.2955
-105.706
-136.979
-173.871
-215.294
-260.382
-307.413
-348.994
-379.38
-398.863
-406.427
-407.334
-401.882
-385.787
-358.166
-319.516
-272.954
-227.034
-184.619
-146.478
-113.674
-87.4141
-69.043
-59.9201
7.76052
-5.60071
-29.0357
-60.6761
-98.7773
-141.893
-188.816
-238.436
-287.295
-330.923
-362.198
-376.246
-380.345
-377.752
-366.742
-339.445
-297.694
-249.73
-199.796
-152.184
-108.083
-68.6768
-35.3351
-9.73675
6.25979
10.8717
3.1291
-15.551
-43.3426
-78.4131
-119.164
-164.297
-212.66
-262.611
-309.348
-348.362
-371.07
-379.274
-380.19
-374.285
-356.281
-320.93
-275.653
-226.092
-177.001
-130.903
-88.9018
-52.2418
-22.4449
-1.30753
9.31311
65.5148
49.7085
22.4182
-13.6036
-55.917
-102.826
-153.466
-207.616
-262.434
-312.952
-350.672
-368.545
-374.141
-370.495
-356.38
-323.063
-274.404
-220.064
-165.279
-113.952
-66.1731
-22.6755
15.0435
44.6975
63.5615
69.0436
59.8413
37.892
5.87844
-33.5411
-78.2732
-127.06
-179.396
-234.457
-287.864
-333.743
-361.852
-372.497
-373.808
-365.979
-343.333
-301.247
-249.139
-194.063
-140.732
-90.9566
-45.0657
-4.10633
30.0234
54.7579
67.3586
118.498
98.9427
65.6289
22.7128
-26.1396
-78.5507
-133.7
-192.082
-251.586
-308.005
-354.102
-380.656
-389.324
-383.875
-362.032
-319.7
-264.792
-205.545
-146.61
-90.8698
-37.8651
11.9419
56.5527
92.5654
115.854
122.64
111.233
84.215
45.5678
-0.68083
-51.4572
-105.192
-161.825
-221.103
-279.704
-332.344
-369.839
-386.815
-388.708
-376.237
-344.301
-294.682
-237.03
-177.532
-119.962
-65.4672
-13.7936
33.8832
74.8273
105.161
120.775
168.247
143.562
101.911
49.3481
-8.72567
-68.7967
-129.629
-191.807
-254.246
-313.805
-364.39
-397.592
-409.77
-402.115
-373.709
-326.346
-268.166
-206.042
-143.728
-82.7275
-22.5285
36.1817
90.4633
135.304
164.667
173.216
158.818
124.819
76.9366
21.0834
-38.2006
-98.5962
-159.925
-222.339
-283.855
-340.026
-383.211
-406.168
-408.816
-391.488
-353.227
-299.65
-238.983
-176.486
-114.704
-54.0423
5.73151
62.8698
113.324
151.388
171.107
218.402
187.335
135.338
70.7371
0.988598
-68.9376
-136.88
-202.363
-265.952
-325.802
-377.02
-412.39
-426.462
-417.531
-386.704
-338.436
-280.031
-217.073
-152.086
-84.9111
-15.4649
54.5582
120.945
176.746
213.66
224.418
206.283
163.614
104.25
36.3296
-33.8082
-102.762
-169.225
-233.708
-295.803
-352.225
-396.706
-422.189
-425.297
-405.616
-365.588
-311.612
-250.546
-186.494
-120.561
-52.0129
18.1323
87.2043
149.503
197.161
221.996
271.564
233.212
169.87
92.2376
9.79298
-70.7571
-145.798
-214.356
-278.196
-336.74
-386.464
-421.462
-435.968
-426.708
-395.96
-349.045
-292.142
-229.425
-162.125
-88.8582
-9.56832
72.7848
152.279
220.036
265.458
278.869
256.323
203.993
132.152
51.1427
-30.8575
-108.754
-180.203
-246.215
-307.617
-362.432
-405.818
-431.507
-434.744
-414.657
-375.362
-322.98
-262.963
-198.092
-128.234
-51.6403
29.8439
111.888
187.026
245.283
276.055
330.333
285.173
211.696
122.551
28.6559
-61.9487
-144.165
-216.269
-280.643
-337.654
-385.103
-418.515
-432.643
-423.598
-394.171
-349.518
-294.474
-231.825
-161.757
-82.2157
6.56943
100.153
191.256
269.633
322.894
338.913
312.098
250.976
168.097
75.4389
-17.4975
-104.225
-180.924
-248.874
-309.625
-362.33
-403.587
-428.285
-431.456
-412.009
-374.588
-324.442
-265.568
-199.529
-125.422
-40.7032
51.3637
145.021
231.497
299.3
335.717
397.033
347.406
267.688
171.534
70.3217
-27.3516
-115.366
-191.192
-256.882
-313.118
-358.678
-390.401
-403.923
-395.258
-367.343
-324.681
-270.806
-207.41
-134.201
-49.3376
46.3376
147.247
245.47
330.333
388.639
406.484
376.739
310.058
220.469
120.588
20.342
-73.0295
-154.467
-224.915
-285.84
-337.04
-376.309
-399.762
-402.805
-384.263
-348.702
-300.29
-241.744
-173.807
-95.4652
-4.48523
94.8028
195.747
289.1
362.846
403.052
473.526
423.905
345.095
250.35
150.177
52.4871
-36.698
-114.278
-180.883
-236.722
-280.945
-311.302
-324.266
-315.962
-289.314
-248.116
-194.942
-130.955
-56.1309
30.1502
126.158
226.252
323.08
406.849
464.944
483.011
453.013
386.783
298.454
199.905
100.211
6.18639
-76.8747
-148.753
-209.929
-260.158
-297.917
-320.292
-323.209
-305.475
-271.37
-224.128
-165.646
-96.4692
-16.253
75.5703
174.538
274.245
366.219
439.27
479.64
561.407
518.403
450.982
370.351
284.707
199.8
119.826
47.6138
-15.24
-67.8732
-109.208
-137.377
-149.441
-141.717
-117.032
-78.6284
-28.6076
31.8019
101.757
179.93
263.887
349.707
432.122
503.635
553.792
569.65
543.425
486.453
411.184
327.258
241.486
158.691
82.5505
15.036
-42.7361
-89.8914
-125.013
-145.735
-148.449
-131.984
-100.296
-56.0281
-0.810798
64.4138
138.728
220.215
305.714
390.731
469.012
531.655
566.793
661.831
633.616
590.482
539.919
486.655
433.147
380.163
328.788
282.518
243.05
211.734
190.229
180.91
186.883
205.749
234.881
272.486
317.174
367.399
420.222
473.537
526.94
578.439
623.932
656.629
667.227
649.799
612.91
565.309
513.044
459.605
406.541
353.893
304.916
261.947
226.394
199.702
183.826
181.725
194.396
218.541
252.015
293.288
341.039
393.413
446.354
499.825
552.673
601.937
642.242
665.446
776.598
771.443
765.322
760.346
757.104
754.802
751.001
744.056
736.677
729.64
723.431
718.68
716.368
717.878
722.138
728.038
734.886
742.175
749.24
753.975
756.288
759.141
763.67
769.629
775.289
777.485
773.997
767.999
762.322
758.297
755.826
753.431
747.565
740.329
733.115
726.469
720.917
717.233
716.691
719.739
724.927
731.385
738.551
745.954
752.72
755.569
757.841
761.433
766.777
772.915
777.367
)
;

boundaryField
{
    top
    {
        type            fixedFluxPressure;
        gradient        nonuniform List<scalar> 
51
(
1973.78
2416.95
3106.37
3928.28
4811.12
5727.07
6702.73
7743.56
8722.04
9576.46
10258.9
10722.9
10918.8
10794
10388.4
9753.61
8936.38
7983.97
6953.54
5952.24
5028.27
4137.49
3296.43
2566.03
2050.05
1885.77
2157.05
2741.77
3509.24
4366.57
5263.56
6195.24
7225.16
8242.98
9165.32
9940.08
10520.8
10860.3
10903.9
10635.3
10112
9382.34
8492.2
7490.14
6442.13
5494.82
4590.15
3719.39
2922.1
2280.68
1917.95
)
;
        value           nonuniform List<scalar> 
51
(
842.39
852.008
868.868
891.288
917.475
945.704
974.425
1002.17
1027.41
1048.86
1065.39
1076.11
1080.33
1077.68
1068.42
1053.16
1032.77
1008.31
981.025
952.383
923.897
897.057
873.551
855.163
843.624
840.343
845.899
859.391
879.296
903.849
931.278
959.939
988.404
1015.1
1038.63
1057.81
1071.61
1079.24
1080.15
1074.25
1061.99
1044.13
1021.62
995.625
967.458
938.729
910.846
885.412
864.18
848.938
841.298
)
;
    }
    bottom
    {
        type            fixedFluxPressure;
        gradient        uniform 0;
        value           nonuniform List<scalar> 
51
(
-71.5684
-85.4754
-110.959
-146.813
-191.368
-242.148
-295.309
-345.738
-389.642
-424.938
-447.007
-455.962
-458.3
-456.898
-449.951
-431.547
-398.505
-356.53
-307.299
-254.296
-202.527
-156.214
-118.09
-89.9682
-73.1418
-68.5016
-76.366
-96.2288
-127.085
-167.528
-215.56
-268.12
-320.585
-368.292
-408.075
-438.08
-452.81
-457.873
-458.337
-454.824
-443.324
-417.19
-379.681
-333.806
-282.252
-229.23
-179.695
-137.097
-103.665
-80.935
-70.0172
)
;
    }
    frontAndBack
    {
        type            empty;
    }
    left_cyc
    {
        type            cyclic;
    }
    right_cyc
    {
        type            cyclic;
    }
}


// ************************************************************************* //
