/*--------------------------------*- C++ -*----------------------------------*\
| =========                 |                                                 |
| \\      /  F ield         | OpenFOAM: The Open Source CFD Toolbox           |
|  \\    /   O peration     | Version:  2.3.0                                 |
|   \\  /    A nd           | Web:      www.OpenFOAM.org                      |
|    \\/     M anipulation  |                                                 |
\*---------------------------------------------------------------------------*/
FoamFile
{
    version     2.0;
    format      ascii;
    class       surfaceScalarField;
    location    "25000";
    object      phi;
}
// * * * * * * * * * * * * * * * * * * * * * * * * * * * * * * * * * * * * * //

dimensions      [0 3 -1 0 0 0 0];

internalField   nonuniform List<scalar> 
5988
(
0.00369197
-0.00322778
0.0068632
-0.00317122
0.00993023
-0.00306704
0.012848
-0.00291781
0.0155751
-0.0027271
0.0180749
-0.00249974
0.0203169
-0.00224201
0.0222777
-0.00196085
0.0239395
-0.00166179
0.0252854
-0.00134589
0.0262927
-0.00100725
0.0269254
-0.000632763
0.0271305
-0.000205081
0.02684
0.000290486
0.0259846
0.000855479
0.0245203
0.00146425
0.0224558
0.00206456
0.0198589
0.00259682
0.0168829
0.00297606
0.0137484
0.00313448
0.0106652
0.00308321
0.00779627
0.00286892
0.00521705
0.00257922
0.00290609
0.00231096
0.000772101
0.00213399
-0.00131142
0.00208352
-0.0034795
0.00216808
-0.00585257
0.00237307
-0.00850738
0.00265481
-0.011442
0.00293465
-0.0145562
0.00311418
-0.0176697
0.00311352
-0.0205664
0.00289664
-0.0230347
0.00246832
-0.0249458
0.00191112
-0.0262485
0.00130269
-0.0269488
0.000700249
-0.0271
0.000151228
-0.0267735
-0.000326512
-0.0260342
-0.000739309
-0.0249307
-0.00110347
-0.023495
-0.00143571
-0.0217477
-0.00174734
-0.0197054
-0.00204225
-0.0173875
-0.00231791
-0.0148194
-0.00256811
-0.0120334
-0.00278596
-0.00906786
-0.00296556
-0.0059654
-0.00310246
-0.00277199
-0.00319341
0.000464039
-0.00323603
0.00369289
-0.00322885
0.00686508
-0.00317219
0.00993288
-0.00306781
0.0128512
-0.0029183
0.0155784
-0.00272722
0.0180778
-0.00249944
0.0203191
-0.00224122
0.0222786
-0.00195952
0.0239384
-0.00165979
0.0252814
-0.00134299
0.0262844
-0.00100307
0.0269112
-0.000626787
0.027108
-0.000196786
0.0268066
0.000301432
0.0259377
0.000868857
0.0244588
0.00147891
0.02238
0.00207881
0.0197715
0.0026085
0.0167891
0.00298237
0.0136544
0.00313473
0.0105763
0.00307806
0.00771592
0.00286042
0.00514569
0.00257023
0.00284171
0.00230398
0.000711192
0.00213052
-0.00137294
0.00208413
-0.0035456
0.00217267
-0.00592644
0.00238084
-0.0085904
0.00266396
-0.0115328
0.00294244
-0.0146508
0.00311793
-0.0177624
0.00311163
-0.020651
0.00288855
-0.0231066
0.00245561
-0.0250031
0.00189654
-0.0262913
0.00128819
-0.0269788
0.000687456
-0.0271198
0.000141012
-0.0267856
-0.00033414
-0.0260409
-0.000744763
-0.0249336
-0.00110729
-0.0234952
-0.00143837
-0.021746
-0.00174918
-0.0197025
-0.00204347
-0.0173839
-0.0023186
-0.0148156
-0.00256833
-0.0120298
-0.00278577
-0.00906483
-0.00296502
-0.00596318
-0.00310165
-0.00277076
-0.00319242
-0.00323495
0.00552417
-0.00805877
0.010315
-0.0079621
0.0150324
-0.00778436
0.0196458
-0.00753121
0.0241278
-0.00720911
0.0284514
-0.0068234
0.0325854
-0.00637597
0.0364879
-0.00586334
0.0401018
-0.00527573
0.0433529
-0.00459696
0.04615
-0.00380437
0.0483854
-0.00286817
0.049932
-0.00175168
0.0506389
-0.000416425
0.0503395
0.0011549
0.048884
0.00291978
0.046175
0.00477358
0.0422039
0.00656783
0.0371318
0.00804818
0.0313026
0.0089637
0.0251093
0.00927647
0.0189214
0.00905682
0.0129822
0.00851842
0.00735959
0.00793361
0.00197318
0.0075204
-0.00334254
0.00739924
-0.0087755
0.00760104
-0.0144757
0.00807328
-0.0204907
0.00866981
-0.0267076
0.00915152
-0.0328429
0.00924952
-0.0385102
0.00878082
-0.0433218
0.00770825
-0.0469689
0.00611546
-0.0493432
0.00428534
-0.0504818
0.00244131
-0.0504984
0.000716874
-0.0495514
-0.000795766
-0.0478056
-0.0020723
-0.0454058
-0.00313914
-0.0424738
-0.00403546
-0.0391132
-0.00479637
-0.0354108
-0.00544972
-0.0314366
-0.00601646
-0.0272434
-0.0065111
-0.0228697
-0.00694174
-0.0183454
-0.0073103
-0.0136972
-0.00761377
-0.00895335
-0.00784631
-0.00414524
-0.00800152
0.000693047
-0.00807431
0.00552629
-0.00806209
0.0103194
-0.0079653
0.0150389
-0.00778733
0.0196544
-0.00753381
0.0241384
-0.00721119
0.0284637
-0.00682472
0.0325987
-0.00637619
0.0365011
-0.00586199
0.0401135
-0.00527217
0.0433609
-0.0045904
0.0461517
-0.00379382
0.0483774
-0.00285248
0.0499101
-0.00172956
0.0505983
-0.000386733
0.0502749
0.0011922
0.0487912
0.00296265
0.0460515
0.00481857
0.0420506
0.00660933
0.0369556
0.00807741
0.0311136
0.00897668
0.0249185
0.00927317
0.0187374
0.00904157
0.0128088
0.00849878
0.00719575
0.00791706
0.00181443
0.00751184
-0.0035022
0.00740075
-0.0089418
0.00761227
-0.0146524
0.0080914
-0.0206774
0.00868904
-0.026899
0.00916396
-0.0330294
0.00924835
-0.038681
0.00876322
-0.043467
0.0076746
-0.0470835
0.00607208
-0.0494274
0.00424045
-0.0505388
0.00239959
-0.0505328
0.000681502
-0.0495685
-0.000823352
-0.0478101
-0.00209257
-0.0454015
-0.00315334
-0.0424639
-0.00404487
-0.0391002
-0.00480209
-0.0353967
-0.00545268
-0.0314227
-0.0060174
-0.0272307
-0.00651061
-0.0228588
-0.00694026
-0.0183364
-0.00730812
-0.0136904
-0.0076111
-0.00894872
-0.0078433
-0.00414284
-0.0079983
-0.00807098
0.00619096
-0.0134728
0.0115539
-0.0133251
0.0168217
-0.0130521
0.0219504
-0.0126599
0.0268957
-0.0121544
0.0316121
-0.0115397
0.036051
-0.010815
0.0401609
-0.00997325
0.0438871
-0.00900183
0.0471733
-0.00788317
0.0499651
-0.00659624
0.0522143
-0.00511729
0.0538832
-0.00342061
0.0549457
-0.00147895
0.05536
0.000740636
0.0549938
0.00328597
0.0535768
0.00619059
0.0507985
0.00934612
0.0464571
0.0123895
0.0405738
0.0148471
0.0335084
0.0163418
0.0258359
0.0167294
0.0180303
0.0163239
0.010337
0.0156269
0.0027875
0.0150699
-0.00471307
0.0148998
-0.0122928
0.0151808
-0.0200234
0.0158039
-0.0278252
0.0164716
-0.0353908
0.0167171
-0.0422011
0.0160598
-0.0477014
0.0142811
-0.0516255
0.0116323
-0.0540211
0.00851111
-0.05513
0.00539426
-0.0552678
0.00257906
-0.0546721
0.000121241
-0.0534435
-0.00202443
-0.0516143
-0.00390144
-0.049213
-0.00554047
-0.0462803
-0.00696819
-0.0428668
-0.00820986
-0.0390279
-0.00928858
-0.0348198
-0.0102246
-0.0302967
-0.0110342
-0.0255095
-0.0117289
-0.020506
-0.0123138
-0.0153314
-0.0127883
-0.01003
-0.0131477
-0.00464579
-0.0133857
0.000776748
-0.0134969
0.00619288
-0.0134782
0.0115579
-0.0133303
0.0168275
-0.0130569
0.0219576
-0.0126639
0.0269039
-0.0121575
0.0316205
-0.0115413
0.0360587
-0.0108144
0.0401667
-0.00996996
0.0438894
-0.00899491
0.0471707
-0.00787165
0.0499559
-0.00657907
0.0521968
-0.00509338
0.0538562
-0.00338889
0.0549078
-0.00143836
0.0553087
0.000791334
0.054923
0.00334833
0.0534772
0.00626434
0.0506618
0.00942471
0.0462798
0.0124595
0.0403601
0.0148963
0.0332732
0.0163601
0.0255944
0.0167204
0.0177923
0.0163008
0.0101053
0.0156041
0.00255964
0.0150575
-0.00494165
0.014902
-0.0125263
0.0151969
-0.0202631
0.0158281
-0.0280663
0.0164922
-0.0356216
0.0167193
-0.0424054
0.0160322
-0.047867
0.0142248
-0.0517507
0.0115583
-0.0541112
0.0084326
-0.055194
0.00532328
-0.0553144
0.00251999
-0.0547063
7.3419e-05
-0.0534671
-0.00206254
-0.0516287
-0.00393099
-0.0492195
-0.00556251
-0.0462806
-0.00698381
-0.0428626
-0.00822014
-0.0390207
-0.00929454
-0.034811
-0.0102271
-0.0302874
-0.0110342
-0.0255006
-0.011727
-0.0204981
-0.0123106
-0.0153251
-0.0127841
-0.0100256
-0.0131428
-0.00464342
-0.0133804
-0.0134914
0.00647324
-0.0191333
0.0120685
-0.0189203
0.0175417
-0.0185253
0.0228366
-0.0179548
0.0278974
-0.0172153
0.0326692
-0.0163115
0.037098
-0.0152438
0.041132
-0.0140073
0.0447225
-0.0125924
0.0478249
-0.0109855
0.0503996
-0.00917096
0.0524133
-0.00713094
0.0538384
-0.0048457
0.05465
-0.00229062
0.0548202
0.000570512
0.0543183
0.00378784
0.0531189
0.00738998
0.0511453
0.0113197
0.0481066
0.0154282
0.0435332
0.0194205
0.0372186
0.0226564
0.0294691
0.0244789
0.0209375
0.0248555
0.0121354
0.024429
0.00329004
0.0239153
-0.00555309
0.0237429
-0.0143952
0.0240229
-0.0231576
0.0245663
-0.0315449
0.0248589
-0.038979
0.0241512
-0.0448481
0.0219289
-0.0489843
0.0184174
-0.0516997
0.0143477
-0.0534526
0.010264
-0.0544636
0.00640532
-0.0547835
0.0028989
-0.0544382
-0.00022407
-0.0534585
-0.00300406
-0.0518714
-0.00548854
-0.049702
-0.00770995
-0.0469791
-0.00969108
-0.0437379
-0.011451
-0.0400197
-0.0130068
-0.0358703
-0.014374
-0.0313396
-0.0155649
-0.0264802
-0.0165883
-0.0213466
-0.0174474
-0.0159942
-0.0181407
-0.0104792
-0.0186628
-0.00485799
-0.0190069
0.000812318
-0.0191672
0.00647441
-0.0191403
0.012071
-0.0189269
0.0175452
-0.0185311
0.0228406
-0.0179594
0.0279013
-0.0172182
0.032672
-0.016312
0.0370988
-0.0152412
0.0411296
-0.0140008
0.0447157
-0.012581
0.0478122
-0.0109682
0.0503798
-0.00914666
0.0523851
-0.00709863
0.0538005
-0.00480435
0.0546013
-0.00223912
0.0547591
0.000633576
0.0542434
0.00386395
0.0530288
0.00747898
0.0510349
0.0114186
0.047963
0.0155314
0.0433444
0.019515
0.0369853
0.0227192
0.0292072
0.0244985
0.0206649
0.0248431
0.0118617
0.0244074
0.00301718
0.023902
-0.00582617
0.0237454
-0.0146691
0.0240399
-0.0234285
0.0245876
-0.0318007
0.0248645
-0.0392005
0.024119
-0.0450232
0.0218549
-0.0491166
0.0183182
-0.0518031
0.0142447
-0.0535377
0.0101673
-0.054534
0.00631959
-0.0548405
0.00282641
-0.0544832
-0.000283874
-0.053493
-0.00305274
-0.0518965
-0.00552742
-0.049719
-0.00774009
-0.0469892
-0.00971352
-0.0437426
-0.0114668
-0.0400202
-0.013017
-0.0358679
-0.0143795
-0.0313354
-0.0155667
-0.0264752
-0.0165872
-0.0213416
-0.0174442
-0.0159898
-0.0181358
-0.0104759
-0.0186568
-0.00485612
-0.0190002
-0.0191602
0.00652803
-0.0248416
0.0121604
-0.0245527
0.0176512
-0.0240161
0.022936
-0.0232396
0.0279525
-0.0222318
0.0326407
-0.0209997
0.0369444
-0.0195474
0.0408119
-0.0178748
0.0441968
-0.0159773
0.0470583
-0.0138471
0.049361
-0.0114737
0.0510746
-0.00884453
0.0521731
-0.00594419
0.0526354
-0.00275291
0.0524501
0.000755826
0.051626
0.00461195
0.0501903
0.00882569
0.0481505
0.0133595
0.0454455
0.0181333
0.0418743
0.0229916
0.0369627
0.027568
0.0302733
0.0311683
0.0220411
0.0330877
0.0129575
0.0335126
0.00353572
0.0333371
-0.00595715
0.0332358
-0.0153232
0.033389
-0.0242472
0.0334903
-0.0321412
0.0327529
-0.0383611
0.0303711
-0.0428651
0.0264329
-0.0461772
0.0217295
-0.0486951
0.0168656
-0.0505721
0.0121409
-0.0518472
0.00768039
-0.0525027
0.00355441
-0.0525141
-0.0002127
-0.0518787
-0.00363943
-0.0506114
-0.00675583
-0.0487348
-0.00958654
-0.0462761
-0.0121498
-0.043267
-0.0144601
-0.0397444
-0.0165294
-0.0357508
-0.0183675
-0.0313342
-0.0199815
-0.0265478
-0.0213747
-0.0214491
-0.0225461
-0.016099
-0.0234908
-0.0105608
-0.024201
-0.00489932
-0.0246684
0.000819267
-0.0248857
0.00652829
-0.0248493
0.0121612
-0.0245598
0.0176521
-0.0240221
0.0229366
-0.0232438
0.0279519
-0.0222335
0.0326381
-0.0209982
0.0369387
-0.0195418
0.0408021
-0.0178641
0.0441816
-0.0159605
0.0470366
-0.0138232
0.0493315
-0.0114416
0.0510361
-0.00880321
0.0521244
-0.00589264
0.0525754
-0.00269013
0.0523781
0.000830907
0.0515418
0.00470015
0.0500941
0.00892675
0.0480411
0.0134716
0.0453189
0.0182536
0.0417208
0.0231131
0.0367646
0.0276754
0.0300262
0.0312369
0.0217619
0.0331074
0.0126647
0.0335045
0.00323887
0.0333278
-0.00625339
0.0332377
-0.0156134
0.0333999
-0.0245194
0.0334935
-0.032375
0.0327201
-0.0385449
0.0302889
-0.0430092
0.0263192
-0.046298
0.0216071
-0.0488003
0.016747
-0.0506645
0.0120315
-0.0519275
0.00758263
-0.0525709
0.00346974
-0.0525703
-0.000284413
-0.0519239
-0.00369916
-0.0506467
-0.00680465
-0.0487613
-0.00962542
-0.0462951
-0.0121798
-0.0432797
-0.0144821
-0.0397521
-0.0165446
-0.0357546
-0.0183769
-0.0313352
-0.0199861
-0.026547
-0.0213755
-0.0214473
-0.0225438
-0.016097
-0.0234862
-0.010559
-0.0241948
-0.00489809
-0.0246611
-0.024878
0.00640459
-0.0304418
0.0119215
-0.0300696
0.0172836
-0.0293782
0.0224215
-0.0283775
0.0272687
-0.027079
0.0317632
-0.0254942
0.0358481
-0.0236323
0.0394726
-0.0214992
0.0425924
-0.0190971
0.0451699
-0.0164245
0.0471732
-0.013477
0.0485759
-0.0102472
0.0493568
-0.00672513
0.0495015
-0.00289759
0.0490068
0.00125048
0.047888
0.00573082
0.0461772
0.0105364
0.0439096
0.0156271
0.0411101
0.0209328
0.0377538
0.026348
0.0336396
0.0316823
0.0282885
0.0365194
0.0212475
0.0401287
0.012762
0.0419981
0.00351652
0.0425826
-0.00591194
0.0426643
-0.0150234
0.0425004
-0.0231969
0.0416638
-0.0297926
0.0393486
-0.0347637
0.0353422
-0.0386454
0.0303146
-0.0418454
0.0249295
-0.0445051
0.0195253
-0.0466275
0.0142633
-0.0481838
0.00923673
-0.0491383
0.00450888
-0.049462
0.000111003
-0.0491451
-0.00395635
-0.0481942
-0.00770667
-0.0466261
-0.0111547
-0.0444633
-0.0143126
-0.0417337
-0.0171896
-0.0384709
-0.0197923
-0.0347143
-0.0221242
-0.0305101
-0.0241857
-0.0259111
-0.0259738
-0.0209758
-0.0274814
-0.0157679
-0.0286987
-0.0103548
-0.0296141
-0.0048068
-0.0302163
0.000803802
-0.0304963
0.00640391
-0.0304494
0.0119206
-0.0300764
0.017282
-0.0293835
0.0224186
-0.0283804
0.0272638
-0.0270788
0.0317555
-0.0254899
0.0358366
-0.0236229
0.0394562
-0.0214837
0.04257
-0.0190744
0.0451404
-0.0163935
0.0471354
-0.0134367
0.0485288
-0.0101966
0.0492994
-0.00666322
0.0494329
-0.00282358
0.0489265
0.0013373
0.0477959
0.00583072
0.0460738
0.0106488
0.0437951
0.0157504
0.0409843
0.0210645
0.0376133
0.026484
0.0334741
0.0318146
0.0280801
0.0366308
0.0209916
0.0401959
0.0124755
0.0420206
0.00321824
0.0425851
-0.00620833
0.0426642
-0.0153032
0.0424948
-0.02344
0.0416303
-0.0299868
0.0392669
-0.0349203
0.0352223
-0.0387807
0.0301797
-0.0419677
0.024794
-0.0446161
0.0193955
-0.0467273
0.0141427
-0.0482722
0.00912749
-0.0492149
0.00441241
-0.0495269
2.76022e-05
-0.0491989
-0.00402715
-0.0482379
-0.00776562
-0.0466607
-0.0112027
-0.0444899
-0.0143505
-0.0417535
-0.0172185
-0.0384849
-0.0198132
-0.0347237
-0.0221382
-0.0305159
-0.0241939
-0.0259143
-0.0259771
-0.0209772
-0.0274809
-0.0157681
-0.0286952
-0.0103545
-0.0296085
-0.00480627
-0.0302093
-0.0304886
0.00613559
-0.0358067
0.0114129
-0.0353469
0.0165278
-0.0344931
0.0214083
-0.0332579
0.0259864
-0.0316572
0.0301998
-0.0297076
0.0339922
-0.0274248
0.0373147
-0.0248217
0.0401257
-0.021908
0.0423906
-0.0186894
0.0440816
-0.015168
0.0451771
-0.0113427
0.0456617
-0.00720977
0.045528
-0.00276384
0.0447793
0.00199914
0.0434338
0.00707629
0.041523
0.0124473
0.039084
0.018066
0.0361552
0.0238616
0.0327663
0.0297369
0.0288939
0.0355546
0.0243301
0.0410833
0.018611
0.0458478
0.0114385
0.0491706
0.0031932
0.0508278
-0.00535369
0.0512111
-0.0133901
0.0505369
-0.0201969
0.0484705
-0.0255673
0.044719
-0.0299151
0.03969
-0.033651
0.0340506
-0.0369193
0.0281978
-0.0397216
0.0223276
-0.0420236
0.0165653
-0.043787
0.0110001
-0.0449753
0.00569721
-0.04556
0.000695723
-0.0455271
-0.00398929
-0.0448762
-0.0083575
-0.0436174
-0.0124136
-0.0417676
-0.0161624
-0.0393502
-0.019607
-0.036395
-0.0227475
-0.0329384
-0.0255808
-0.0290242
-0.0280999
-0.0247036
-0.0302944
-0.0200347
-0.0321503
-0.0150818
-0.0336516
-0.00991416
-0.0347817
-0.00460499
-0.0355255
0.000770037
-0.0358714
0.00613403
-0.0358134
0.0114103
-0.0353527
0.0165237
-0.0344969
0.0214022
-0.0332588
0.0259777
-0.0316542
0.0301875
-0.0296998
0.0339756
-0.027411
0.0372927
-0.0248009
0.0400973
-0.0218789
0.0423548
-0.018651
0.0440375
-0.0151193
0.0451237
-0.0112828
0.0455981
-0.0071377
0.0454536
-0.002679
0.0446937
0.00209711
0.0433372
0.00718728
0.0414156
0.0125704
0.0389663
0.0181996
0.0360276
0.0240032
0.0326286
0.0298829
0.028743
0.0357002
0.0241549
0.0412189
0.0183961
0.0459547
0.0111846
0.0492321
0.00291947
0.0508502
-0.00562407
0.0512078
-0.0136341
0.0505049
-0.0203992
0.0483954
-0.0257337
0.0446014
-0.0300613
0.0395499
-0.0337855
0.0339039
-0.0370438
0.0280523
-0.0398362
0.0221878
-0.0421277
0.0164342
-0.0438802
0.01088
-0.0450573
0.00558955
-0.0456308
0.000601161
-0.0455872
-0.00407082
-0.0449263
-0.00842646
-0.0436584
-0.0124707
-0.0418004
-0.0162085
-0.0393759
-0.019643
-0.0364146
-0.0227746
-0.0329528
-0.0255999
-0.0290344
-0.0281123
-0.0247105
-0.0303011
-0.020039
-0.0321523
-0.0150843
-0.03365
-0.0099153
-0.0347774
-0.00460514
-0.0355194
-0.0358645
0.00574873
-0.0408332
0.0106861
-0.0402843
0.0154583
-0.0392653
0.0199929
-0.0377925
0.0242223
-0.0358866
0.0280853
-0.0335706
0.0315277
-0.0308672
0.0345033
-0.0277974
0.0369738
-0.0243785
0.0389087
-0.0206243
0.0402847
-0.016544
0.0410856
-0.0121436
0.0413021
-0.0074263
0.0409331
-0.00239483
0.0399873
0.00294495
0.0384851
0.00857853
0.0364573
0.014475
0.0339415
0.0205819
0.0309785
0.0268246
0.0276098
0.0331056
0.0238639
0.0393005
0.0197095
0.0452377
0.0149429
0.0506143
0.00923216
0.0548813
0.00259885
0.0574611
-0.00434612
0.0581561
-0.0107797
0.0569705
-0.0162245
0.0539153
-0.0208001
0.0492945
-0.0248371
0.043727
-0.0284843
0.0376978
-0.0317489
0.0314624
-0.0345971
0.0251758
-0.0369867
0.0189549
-0.0388774
0.0128909
-0.0402333
0.00705306
-0.0410257
0.00148815
-0.0412374
-0.00377757
-0.0408625
-0.00873241
-0.0399045
-0.0133716
-0.0383744
-0.0176924
-0.0362906
-0.0216908
-0.0336783
-0.0253598
-0.0305701
-0.0286889
-0.0270067
-0.0316633
-0.0230366
-0.0342644
-0.0187163
-0.0364707
-0.0141089
-0.038259
-0.00928381
-0.0396068
-0.00431473
-0.0404946
0.000721459
-0.0409076
0.0057464
-0.0408384
0.010682
-0.0402883
0.0154521
-0.039267
0.0199841
-0.0377908
0.0242103
-0.0358804
0.0280693
-0.0335588
0.031507
-0.0308486
0.0344769
-0.0277708
0.0369409
-0.0243429
0.0388684
-0.0205785
0.0402362
-0.0164871
0.0410281
-0.0120747
0.0412349
-0.00734457
0.0408558
-0.00229987
0.0398997
0.00305325
0.0383872
0.00869974
0.0363496
0.014608
0.0338243
0.0207249
0.0308526
0.0269749
0.0274756
0.0332599
0.0237211
0.0394547
0.0195547
0.0453853
0.0147663
0.0507432
0.0090258
0.0549726
0.00237261
0.0575034
-0.00456869
0.0581491
-0.0109776
0.0569137
-0.0163935
0.0538113
-0.0209504
0.0491584
-0.024977
0.0435764
-0.0286159
0.0375428
-0.0318722
0.0313086
-0.0347114
0.025027
-0.0370914
0.0188142
-0.0389722
0.0127607
-0.0403177
0.00693507
-0.0410997
0.00138322
-0.0413014
-0.00386917
-0.0409169
-0.00881092
-0.03995
-0.0134376
-0.0384119
-0.0177466
-0.0363208
-0.021734
-0.0337022
-0.0253933
-0.0305885
-0.0287136
-0.0270205
-0.0316803
-0.0230466
-0.0342749
-0.0187232
-0.0364758
-0.0141134
-0.0382598
-0.00928625
-0.0396045
-0.00431548
-0.0404902
-0.0409022
0.00526669
-0.0454381
0.0097832
-0.0448008
0.0141362
-0.0436183
0.0182545
-0.0419108
0.0220725
-0.0397046
0.0255315
-0.0370296
0.0285805
-0.0339162
0.0311769
-0.0303938
0.0332866
-0.0264882
0.0348837
-0.0222213
0.0359501
-0.0176104
0.0364752
-0.0126688
0.0364561
-0.00740713
0.0358974
-0.00183614
0.0348128
0.00402949
0.0332257
0.0101657
0.0311679
0.0165328
0.0286779
0.0230719
0.0257992
0.0297032
0.0225796
0.0363253
0.0190676
0.0428125
0.0153013
0.049004
0.011261
0.0546547
0.00681664
0.0593257
0.00190522
0.0623726
-0.00318394
0.0632453
-0.00798676
0.0617733
-0.0123111
0.0582396
-0.0162715
0.0532549
-0.0199723
0.0474278
-0.0234112
0.0411367
-0.0265448
0.0345961
-0.0293244
0.0279553
-0.031703
0.0213335
-0.0336384
0.0148263
-0.0350937
0.00850827
-0.0360388
0.00243328
-0.0364531
-0.00336328
-0.0363253
-0.00886022
-0.0356527
-0.0140442
-0.0344406
-0.0189045
-0.0327016
-0.0234298
-0.0304558
-0.0276056
-0.0277314
-0.0314133
-0.024565
-0.0348297
-0.0210017
-0.0378277
-0.0170948
-0.0403776
-0.0129052
-0.0424485
-0.00850045
-0.0440116
-0.00395304
-0.045042
0.000660924
-0.0455215
0.00526374
-0.0454412
0.00977796
-0.0448025
0.0141283
-0.0436174
0.0182436
-0.0419061
0.022058
-0.0396949
0.0255127
-0.0370135
0.0285567
-0.0338926
0.0311474
-0.0303615
0.0332506
-0.0264461
0.0348405
-0.0221684
0.035899
-0.0175456
0.0364158
-0.0125914
0.0363877
-0.0073165
0.0358198
-0.00173201
0.0347261
0.00414702
0.0331299
0.0102959
0.0310634
0.0166745
0.0285654
0.0232229
0.0256795
0.0298608
0.0224533
0.0364861
0.0189357
0.0429723
0.0151639
0.0491571
0.0111152
0.0547919
0.00665742
0.0594304
0.00173504
0.0624258
-0.00335196
0.0632361
-0.00814176
0.0617035
-0.0124538
0.0581234
-0.0164071
0.0531116
-0.0201024
0.0472718
-0.0235355
0.0409759
-0.0266624
0.0344355
-0.0294344
0.027799
-0.0318048
0.0211846
-0.0337314
0.0146874
-0.0351775
0.00838112
-0.0361133
0.00231907
-0.0365184
-0.00346406
-0.0363818
-0.00894757
-0.0357009
-0.0141185
-0.0344811
-0.0189664
-0.032735
-0.0234802
-0.0304828
-0.0276454
-0.0277529
-0.0314435
-0.0245817
-0.0348516
-0.0210142
-0.0378424
-0.0171038
-0.0403862
-0.0129113
-0.0424524
-0.00850397
-0.0440119
-0.00395431
-0.0450399
-0.0455183
0.00470796
-0.0495544
0.00873872
-0.0488316
0.0126114
-0.047491
0.0162579
-0.0455573
0.0196158
-0.0430626
0.0226303
-0.040044
0.0252544
-0.0365404
0.0274501
-0.0325895
0.0291881
-0.0282262
0.0304476
-0.0234808
0.0312162
-0.018379
0.0314891
-0.0129417
0.0312692
-0.0071873
0.0305673
-0.00113424
0.0294021
0.00519476
0.0278005
0.0117673
0.0257972
0.0185361
0.0234335
0.0254357
0.0207569
0.0323798
0.0178218
0.0392603
0.0146907
0.0459437
0.0114334
0.0522613
0.00811292
0.0579752
0.00474453
0.062694
0.00130147
0.0658156
-0.00217649
0.0667233
-0.00559946
0.0651962
-0.0089524
0.0615926
-0.0122597
0.0565622
-0.0154898
0.0506579
-0.0185749
0.0442217
-0.0214464
0.0374676
-0.0240443
0.0305532
-0.0263158
0.0236051
-0.0282152
0.0167257
-0.0297027
0.00999581
-0.0307457
0.00347622
-0.0313191
-0.00278986
-0.0314064
-0.00877289
-0.0309991
-0.0144515
-0.0300962
-0.0198074
-0.0287047
-0.0248214
-0.0268392
-0.0294711
-0.0245228
-0.0337297
-0.0217875
-0.0375651
-0.0186737
-0.0409415
-0.0152309
-0.0438204
-0.0115163
-0.0461632
-0.007594
-0.0479339
-0.00353383
-0.0491022
0.000590758
-0.0496461
0.00470455
-0.049555
0.0087326
-0.0488306
0.0126023
-0.0474871
0.0162454
-0.0455492
0.0195995
-0.043049
0.0226096
-0.0400235
0.0252287
-0.0365118
0.0274188
-0.0325516
0.0291505
-0.0281779
0.0304033
-0.0234211
0.0311646
-0.018307
0.0314299
-0.0128566
0.0312021
-0.00708877
0.0304922
-0.00102211
0.0293191
0.00532016
0.0277099
0.0119051
0.0256996
0.0186848
0.0233296
0.0255929
0.0206477
0.0325428
0.0177085
0.0394253
0.0145746
0.0461062
0.0113161
0.0524156
0.0079954
0.0581126
0.00462578
0.0628
0.00118085
0.0658707
-0.00229669
0.0667136
-0.00571763
0.0651245
-0.00906976
0.0614755
-0.0123767
0.0564185
-0.0156052
0.0505003
-0.0186871
0.0440577
-0.021554
0.0373025
-0.0241462
0.0303912
-0.0264112
0.0234496
-0.0283034
0.0165795
-0.0297832
0.00986095
-0.0308182
0.00335402
-0.0313835
-0.00289868
-0.031463
-0.00886815
-0.031048
-0.0145334
-0.030138
-0.0198765
-0.0287398
-0.0248784
-0.0268682
-0.029517
-0.0245463
-0.0337654
-0.0218061
-0.0375918
-0.018688
-0.0409604
-0.0152415
-0.0438328
-0.0115235
-0.0461703
-0.00759834
-0.047937
-0.00353551
-0.0491027
-0.0496454
0.00408742
-0.0531282
0.00758033
-0.0523245
0.0109242
-0.0508349
0.0140553
-0.0486883
0.0169159
-0.0459232
0.019456
-0.0425841
0.0216337
-0.0387181
0.0234161
-0.0343719
0.0247792
-0.0295893
0.0257079
-0.0244096
0.0261953
-0.0188664
0.0262426
-0.0129889
0.0258584
-0.00680311
0.0250591
-0.000334935
0.0238685
0.00638537
0.0223178
0.0133179
0.0204454
0.0204085
0.0182962
0.0275848
0.0159222
0.0347538
0.0133838
0.0417988
0.0107517
0.0485758
0.00810939
0.0549036
0.00554681
0.0605377
0.00312761
0.0651132
0.000839844
0.0681034
-0.00140513
0.0689682
-0.00372025
0.0675114
-0.00617824
0.0640506
-0.00876842
0.0591523
-0.0114154
0.0533049
-0.0140291
0.0468354
-0.0165293
0.0399678
-0.0188481
0.032872
-0.0209276
0.0256845
-0.0227175
0.0185156
-0.0241747
0.011453
-0.0252626
0.00456412
-0.0259518
-0.00210063
-0.0262205
-0.00850416
-0.0260545
-0.0146176
-0.0254468
-0.020415
-0.0243987
-0.0258695
-0.0229192
-0.0309507
-0.021026
-0.0356229
-0.0187455
-0.0398456
-0.0161132
-0.0435737
-0.0131734
-0.0467601
-0.00997868
-0.049358
-0.00658851
-0.0513241
-0.00306827
-0.0526224
0.000512831
-0.0532272
0.00408373
-0.0531259
0.00757366
-0.0523205
0.0109143
-0.0508278
0.0140419
-0.0486767
0.0168986
-0.0459057
0.0194343
-0.0425592
0.0216071
-0.0386846
0.0233842
-0.0343287
0.0247416
-0.0295353
0.0256642
-0.0243437
0.0261451
-0.0187879
0.0261857
-0.0128972
0.0257947
-0.00669786
0.0249888
-0.000216197
0.0237919
0.00651709
0.0222354
0.0134615
0.0203579
0.0205623
0.0182045
0.0277464
0.0158274
0.0349199
0.0132873
0.0419654
0.0106553
0.0487381
0.00801533
0.0550555
0.00545717
0.0606708
0.00304297
0.0652142
0.000758213
0.0681555
-0.00148729
0.0689591
-0.0038062
0.0674434
-0.00626925
0.0639386
-0.00886332
0.0590126
-0.011512
0.053149
-0.0141252
0.046671
-0.0166233
0.0398006
-0.0189387
0.0327065
-0.0210136
0.0255245
-0.0227981
0.018364
-0.0242492
0.0113121
-0.0253307
0.00443545
-0.0260132
-0.00221616
-0.0262751
-0.00860619
-0.0261024
-0.0147062
-0.0254883
-0.0204905
-0.0244341
-0.0259326
-0.0229489
-0.0310022
-0.0210504
-0.0356639
-0.0187651
-0.0398771
-0.0161286
-0.0435969
-0.013185
-0.0467763
-0.00998673
-0.0493685
-0.00659342
-0.0513304
-0.00307024
-0.0526259
-0.0532294
0.00341695
-0.0561157
0.00633016
-0.0552377
0.00910664
-0.0536114
0.0116884
-0.0512701
0.0140237
-0.0482585
0.0160681
-0.0446285
0.0177858
-0.0404357
0.0191494
-0.0357355
0.0201408
-0.0305807
0.0207502
-0.025019
0.0209766
-0.0190927
0.0208265
-0.0128388
0.0203141
-0.00629078
0.0194611
0.000518104
0.0182959
0.00755056
0.0168539
0.0147599
0.0151769
0.0220855
0.013313
0.0294487
0.0113173
0.0367495
0.00925287
0.0438632
0.00719234
0.0506363
0.00521844
0.0568775
0.00341716
0.062339
0.00184755
0.0666829
0.000484367
0.0694666
-0.000809813
0.0702624
-0.00221683
0.0689184
-0.00384757
0.0656813
-0.00570009
0.0610049
-0.00770356
0.0553084
-0.00977117
0.048903
-0.0118226
0.0420192
-0.0137878
0.0348373
-0.0156059
0.0275026
-0.0172237
0.0201334
-0.0185947
0.0128239
-0.0196786
0.00564809
-0.020442
-0.0013373
-0.0208579
-0.0080882
-0.0209069
-0.0145686
-0.0205767
-0.0207452
-0.0198628
-0.0265835
-0.0187685
-0.0320449
-0.0173061
-0.0370854
-0.0154961
-0.0416555
-0.0133684
-0.0457014
-0.0109615
-0.0491671
-0.00832179
-0.0519976
-0.00550321
-0.0541426
-0.00256525
-0.0555604
0.000428633
-0.0562211
0.00341314
-0.0561104
0.00632327
-0.0552307
0.00909648
-0.053601
0.0116747
-0.051255
0.0140062
-0.0482371
0.0160464
-0.0445995
0.0177595
-0.0403977
0.0191183
-0.0356874
0.0201045
-0.0305215
0.0207085
-0.0249478
0.0209294
-0.0190087
0.0207737
-0.0127416
0.020256
-0.00618015
0.0193979
0.00064194
0.0182281
0.00768691
0.0167821
0.0149075
0.015102
0.0222424
0.013236
0.0296123
0.0112395
0.0369163
0.00917591
0.0440291
0.00711808
0.050796
0.00514905
0.0570246
0.00335466
0.0624651
0.00179243
0.0667765
0.000433887
0.069514
-0.000861137
0.0702541
-0.00227394
0.0688562
-0.00391217
0.0655768
-0.00577108
0.0608715
-0.00777877
0.0551567
-0.00984848
0.0487407
-0.0119002
0.0418523
-0.0138643
0.0346706
-0.01568
0.0273402
-0.0172943
0.0199784
-0.0186611
0.0126788
-0.0197402
0.0055146
-0.0204983
-0.00145807
-0.0209088
-0.00819572
-0.0209522
-0.0146628
-0.0206164
-0.0208263
-0.0198971
-0.026652
-0.0187977
-0.0321016
-0.0173304
-0.0371312
-0.015516
-0.0416915
-0.0133842
-0.0457288
-0.0109734
-0.0491871
-0.00833023
-0.0520117
-0.00550842
-0.0541522
-0.0025674
-0.0555669
-0.0562262
0.00270602
-0.0584816
0.00500587
-0.0575375
0.0071844
-0.0557899
0.00919067
-0.0532764
0.0109798
-0.0500477
0.0125142
-0.046163
0.0137644
-0.0416858
0.0147092
-0.0366804
0.0153363
-0.0312078
0.0156416
-0.0253243
0.0156291
-0.0190802
0.0153105
-0.0125203
0.0147051
-0.00568532
0.0138386
0.00138455
0.0127437
0.00864546
0.011459
0.0160447
0.0100286
0.0235159
0.00850241
0.0309749
0.006936
0.0383159
0.00539107
0.0454081
0.00393556
0.0520918
0.00264156
0.0581714
0.00157629
0.0634043
0.000774707
0.0674844
0.000191917
0.0700494
-0.000319672
0.070774
-0.000948255
0.069547
-0.00181711
0.0665502
-0.00294603
0.0621338
-0.00428767
0.05665
-0.00577189
0.0503873
-0.00732717
0.0435745
-0.00888712
0.0363972
-0.0103916
0.0290071
-0.0117866
0.0215284
-0.0130236
0.014061
-0.0140599
0.0066844
-0.0148584
-0.000538828
-0.0153882
-0.00755842
-0.0156251
-0.0143317
-0.015552
-0.0208183
-0.0151591
-0.0269763
-0.0144447
-0.0327593
-0.013415
-0.0381151
-0.012085
-0.0429855
-0.010478
-0.0473084
-0.0086261
-0.0510191
-0.00656896
-0.0540548
-0.00435343
-0.0563582
-0.00203191
-0.0578819
0.000339354
-0.0585924
0.00270227
-0.0584733
0.00499907
-0.0575275
0.00717439
-0.0557764
0.00917728
-0.0532579
0.0109628
-0.0500227
0.0124934
-0.04613
0.0137394
-0.0416438
0.01468
-0.036628
0.0153026
-0.0311441
0.0156034
-0.0252485
0.0155864
-0.0189918
0.0152636
-0.0124188
0.0146542
-0.00557071
0.0137842
0.00151189
0.0126865
0.00878467
0.0113997
0.0161943
0.00996822
0.0236739
0.00844212
0.0311384
0.00687714
0.0384813
0.00533521
0.045571
0.00388445
0.0522467
0.00259703
0.058312
0.00153975
0.0635224
0.000746014
0.0675702
0.000167971
0.0700921
-0.000344477
0.0707666
-0.00097903
0.0694907
-0.00185603
0.0664538
-0.00299262
0.0620081
-0.00434032
0.0565044
-0.00582875
0.0502291
-0.00738656
0.0434101
-0.00894752
0.0362315
-0.0104517
0.0288444
-0.0118453
0.021372
-0.01308
0.0139136
-0.0141132
0.00654781
-0.014908
-0.000663299
-0.0154336
-0.00767006
-0.0156662
-0.0144302
-0.0155885
-0.0209039
-0.0151911
-0.0270494
-0.0144723
-0.0328205
-0.0134383
-0.0381652
-0.0121042
-0.0430256
-0.0104934
-0.0473395
-0.00863788
-0.0510427
-0.00657738
-0.0540722
-0.00435868
-0.0563709
-0.00203411
-0.0578915
-0.0586005
0.00196234
-0.0601972
0.0036218
-0.059197
0.00517821
-0.0573463
0.00658894
-0.0546871
0.00781702
-0.0512758
0.00883235
-0.0471783
0.00961237
-0.0424659
0.0101424
-0.0372104
0.010416
-0.0314813
0.0104342
-0.0253425
0.010206
-0.018852
0.00974747
-0.0120618
0.00908172
-0.00501957
0.00823814
0.00222813
0.00725204
0.00963156
0.00616393
0.0171328
0.00501898
0.0246608
0.00386657
0.0321273
0.00275998
0.0394225
0.0017558
0.0464123
0.000912442
0.0529352
0.000286105
0.0587978
-7.95343e-05
0.0637699
-0.000176275
0.0675812
-6.52562e-05
0.0699383
0.000111129
0.0705976
0.000179479
0.0694786
1.62513e-05
0.0667134
-0.000418875
0.0625689
-0.00110547
0.0573366
-0.00199503
0.0512768
-0.00303012
0.0446096
-0.00415255
0.0375196
-0.00530647
0.030161
-0.00643954
0.0226614
-0.0075034
0.0151249
-0.00845404
0.00763503
-0.00925221
0.000259337
-0.00986404
-0.00694659
-0.0102618
-0.013934
-0.0104241
-0.0206559