/*--------------------------------*- C++ -*----------------------------------*\
| =========                 |                                                 |
| \\      /  F ield         | OpenFOAM: The Open Source CFD Toolbox           |
|  \\    /   O peration     | Version:  2.3.0                                 |
|   \\  /    A nd           | Web:      www.OpenFOAM.org                      |
|    \\/     M anipulation  |                                                 |
\*---------------------------------------------------------------------------*/
FoamFile
{
    version     2.0;
    format      ascii;
    class       surfaceScalarField;
    location    "25000";
    object      phi;
}
// * * * * * * * * * * * * * * * * * * * * * * * * * * * * * * * * * * * * * //

dimensions      [0 3 -1 0 0 0 0];

internalField   nonuniform List<scalar> 
5988
(
3.63493e-08
-3.18077e-08
6.76057e-08
-3.12564e-08
9.78504e-08
-3.02447e-08
1.26656e-07
-2.88053e-08
1.53636e-07
-2.69806e-08
1.78457e-07
-2.48203e-08
2.00835e-07
-2.23779e-08
2.20537e-07
-1.97022e-08
2.37359e-07
-1.68222e-08
2.51086e-07
-1.37269e-08
2.61434e-07
-1.03484e-08
2.67997e-07
-6.56219e-09
2.70207e-07
-2.21087e-09
2.67374e-07
2.83372e-09
2.58813e-07
8.56055e-09
2.44128e-07
1.46856e-08
2.23479e-07
2.06488e-08
1.97701e-07
2.57782e-08
1.68381e-07
2.93193e-08
1.37561e-07
3.08201e-08
1.07175e-07
3.03864e-08
7.8738e-08
2.84368e-08
5.29518e-08
2.57862e-08
2.96309e-08
2.33209e-08
7.94425e-09
2.16867e-08
-1.32716e-08
2.12159e-08
-3.5263e-08
2.19914e-08
-5.91373e-08
2.38743e-08
-8.55944e-08
2.64571e-08
-1.14612e-07
2.90179e-08
-1.45266e-07
3.06534e-08
-1.75886e-07
3.06199e-08
-2.04485e-07
2.85993e-08
-2.29075e-07
2.45905e-08
-2.48251e-07
1.91755e-08
-2.61356e-07
1.31049e-08
-2.68383e-07
7.02753e-09
-2.69831e-07
1.44813e-09
-2.66409e-07
-3.42271e-09
-2.58785e-07
-7.62372e-09
-2.47486e-07
-1.12991e-08
-2.32884e-07
-1.46017e-08
-2.15242e-07
-1.76423e-08
-1.94769e-07
-2.04732e-08
-1.71676e-07
-2.30929e-08
-1.4621e-07
-2.54655e-08
-1.18671e-07
-2.75397e-08
-8.94078e-08
-2.92629e-08
-5.88208e-08
-3.0587e-08
-2.73485e-08
-3.14723e-08
4.54038e-09
-3.18888e-08
3.63596e-08
-3.18192e-08
6.76266e-08
-3.1267e-08
9.788e-08
-3.02534e-08
1.26691e-07
-2.88114e-08
1.53675e-07
-2.69832e-08
1.78493e-07
-2.48186e-08
2.00864e-07
-2.23709e-08
2.20553e-07
-1.96885e-08
2.37352e-07
-1.67998e-08
2.51045e-07
-1.36926e-08
2.61343e-07
-1.02976e-08
2.67831e-07
-6.48896e-09
2.69941e-07
-2.10947e-09
2.66974e-07
2.96664e-09
2.58253e-07
8.72137e-09
2.43393e-07
1.486e-08
2.22579e-07
2.08143e-08
1.96671e-07
2.59079e-08
1.67283e-07
2.9388e-08
1.3646e-07
3.0823e-08
1.0613e-07
3.033e-08
7.77862e-08
2.83436e-08
5.20986e-08
2.56876e-08
2.88544e-08
2.32442e-08
7.20608e-09
2.16484e-08
-1.40164e-08
2.12225e-08
-3.60583e-08
2.20419e-08
-6.00178e-08
2.39596e-08
-8.65752e-08
2.65574e-08
-1.15679e-07
2.91035e-08
-1.46373e-07
3.06945e-08
-1.76972e-07
3.05991e-08
-2.05484e-07
2.85114e-08
-2.29931e-07
2.44476e-08
-2.48936e-07
1.90047e-08
-2.61868e-07
1.29318e-08
-2.68741e-07
6.8733e-09
-2.70065e-07
1.3238e-09
-2.66549e-07
-3.51603e-09
-2.58859e-07
-7.69043e-09
-2.47513e-07
-1.13453e-08
-2.32881e-07
-1.46327e-08
-2.15218e-07
-1.76625e-08
-1.94733e-07
-2.04853e-08
-1.71634e-07
-2.30989e-08
-1.46168e-07
-2.54664e-08
-1.18631e-07
-2.75365e-08
-8.93749e-08
-2.92563e-08
-5.8797e-08
-3.05779e-08
-2.73355e-08
-3.14615e-08
-3.18772e-08
5.49449e-08
-7.99009e-08
1.02652e-07
-7.8964e-08
1.49651e-07
-7.72438e-08
1.95646e-07
-7.47993e-08
2.40362e-07
-7.16968e-08
2.83528e-07
-6.79865e-08
3.24828e-07
-6.36786e-08
3.6385e-07
-5.87236e-08
4.00032e-07
-5.30047e-08
4.32644e-07
-4.63386e-08
4.60774e-07
-3.84779e-08
4.83323e-07
-2.91114e-08
4.98988e-07
-1.78758e-08
5.06232e-07
-4.41018e-09
5.03354e-07
1.14384e-08
4.88789e-07
2.92499e-08
4.61539e-07
4.78992e-08
4.21655e-07
6.56622e-08
3.70902e-07
8.00726e-08
3.12717e-07
8.90051e-08
2.51021e-07
9.20823e-08
1.89394e-07
9.00636e-08
1.30158e-07
8.50223e-08
7.39454e-08
7.95332e-08
1.99847e-08
7.56473e-08
-3.32975e-08
7.44981e-08
-8.76859e-08
7.63798e-08
-1.44613e-07
8.08012e-08
-2.04551e-07
8.63953e-08
-2.66449e-07
9.09157e-08
-3.27603e-07
9.18075e-08
-3.84249e-07
8.72656e-08
-4.32504e-07
7.68547e-08
-4.6925e-07
6.13362e-08
-4.93203e-07
4.31293e-08
-5.04637e-07
2.45379e-08
-5.04731e-07
7.12198e-09
-4.95129e-07
-8.15382e-09
-4.77509e-07
-2.10425e-08
-4.53351e-07
-3.17816e-08
-4.23907e-07
-4.0743e-08
-3.90229e-07
-4.82799e-08
-3.53184e-07
-5.46875e-08
-3.1346e-07
-6.01972e-08
-2.71577e-07
-6.49757e-08
-2.2792e-07
-6.91226e-08
-1.82789e-07
-7.26707e-08
-1.36455e-07
-7.55972e-08
-8.91959e-08
-7.78457e-08
-4.13178e-08
-7.93504e-08
6.85095e-09
-8.00576e-08
5.49715e-08
-7.99398e-08
1.02706e-07
-7.90017e-08
1.49732e-07
-7.72792e-08
1.95752e-07
-7.48312e-08
2.40492e-07
-7.17232e-08
2.83678e-07
-6.80046e-08
3.24991e-07
-6.36841e-08
3.64013e-07
-5.87106e-08
4.00178e-07
-5.2965e-08
4.32748e-07
-4.62621e-08
4.60803e-07
-3.83523e-08
4.83236e-07
-2.89227e-08
4.98736e-07
-1.76089e-08
5.05755e-07
-4.05238e-09
5.02589e-07
1.18875e-08
4.87683e-07
2.97658e-08
4.60062e-07
4.84346e-08
4.19827e-07
6.61438e-08
3.68806e-07
8.04089e-08
3.10475e-07
8.91538e-08
2.4876e-07
9.2045e-08
1.87212e-07
8.98916e-08
1.28098e-07
8.48016e-08
7.19945e-08
7.93474e-08
1.80916e-08
7.55512e-08
-3.52008e-08
7.45149e-08
-8.96645e-08
7.65056e-08
-1.46709e-07
8.10044e-08
-2.06764e-07
8.66117e-08
-2.68717e-07
9.10566e-08
-3.29817e-07
9.17947e-08
-3.86281e-07
8.70634e-08
-4.34238e-07
7.64685e-08
-4.7062e-07
6.08295e-08
-4.94208e-07
4.25925e-08
-5.05312e-07
2.40358e-08
-5.05135e-07
6.69619e-09
-4.95325e-07
-8.48637e-09
-4.77554e-07
-2.12869e-08
-4.53292e-07
-3.1952e-08
-4.23783e-07
-4.08545e-08
-3.9007e-07
-4.8346e-08
-3.53012e-07
-5.47198e-08
-3.13292e-07
-6.02052e-08
-2.71424e-07
-6.4967e-08
-2.27788e-07
-6.91027e-08
-1.82681e-07
-7.26432e-08
-1.36373e-07
-7.55648e-08
-8.91409e-08
-7.78099e-08
-4.12899e-08
-7.93125e-08
-8.00187e-08
6.15631e-08
-1.33786e-07
1.14942e-07
-1.32343e-07
1.67376e-07
-1.29677e-07
2.18424e-07
-1.25848e-07
2.67643e-07
-1.20916e-07
3.14576e-07
-1.14919e-07
3.5874e-07
-1.07843e-07
3.99628e-07
-9.96113e-08
4.36707e-07
-9.00845e-08
4.69439e-07
-7.90707e-08
4.97301e-07
-6.634e-08
5.19827e-07
-5.16369e-08
5.36645e-07
-3.46937e-08
5.47473e-07
-1.52385e-08
5.51861e-07
7.05104e-09
5.48483e-07
3.2628e-08
5.34665e-07
6.17171e-08
5.07195e-07
9.31314e-08
4.63849e-07
1.23419e-07
4.04974e-07
1.4788e-07
3.34487e-07
1.62569e-07
2.58087e-07
1.66464e-07
1.80341e-07
1.62768e-07
1.0359e-07
1.56284e-07
2.81578e-08
1.5108e-07
-4.68191e-08
1.49475e-07
-1.22518e-07
1.52079e-07
-1.99593e-07
1.57876e-07
-2.7728e-07
1.64083e-07
-3.52664e-07
1.663e-07
-4.20729e-07
1.59872e-07
-4.75888e-07
1.42425e-07
-5.15102e-07
1.16069e-07
-5.38808e-07
8.50427e-08
-5.49634e-07
5.3955e-08
-5.50791e-07
2.56943e-08
-5.44635e-07
9.66067e-10
-5.32193e-07
-2.05952e-08
-5.13826e-07
-3.94096e-08
-4.89829e-07
-5.57784e-08
-4.60602e-07
-6.99703e-08
-4.26631e-07
-8.22511e-08
-3.88448e-07
-9.2871e-08
-3.46593e-07
-1.02051e-07
-3.01597e-07
-1.09972e-07
-2.53962e-07
-1.16758e-07
-2.04164e-07
-1.22469e-07
-1.52658e-07
-1.27103e-07
-9.9889e-08
-1.30615e-07
-4.62966e-08
-1.32943e-07
7.67682e-09
-1.34031e-07
6.1587e-08
-1.3385e-07
1.1499e-07
-1.32405e-07
1.67445e-07
-1.29734e-07
2.18511e-07
-1.25897e-07
2.67741e-07
-1.20953e-07
3.14675e-07
-1.14939e-07
3.5883e-07
-1.07839e-07
3.99695e-07
-9.95751e-08
4.36735e-07
-9.00052e-08
4.69409e-07
-7.89362e-08
4.97194e-07
-6.61374e-08
5.19624e-07
-5.13527e-08
5.3633e-07
-3.4315e-08
5.4703e-07
-1.47527e-08
5.51259e-07
7.65863e-09
5.47651e-07
3.3374e-08
5.33492e-07
6.25934e-08
5.05576e-07
9.40601e-08
4.61736e-07
1.24249e-07
4.02433e-07
1.48457e-07
3.31698e-07
1.6278e-07
2.55226e-07
1.66363e-07
1.77519e-07
1.62509e-07
1.00837e-07
1.56029e-07
2.54483e-08
1.5094e-07
-4.95365e-08
1.495e-07
-1.2529e-07
1.52259e-07
-2.02433e-07
1.58147e-07
-2.80136e-07
1.64315e-07
-3.55403e-07
1.66324e-07
-4.23162e-07
1.59554e-07
-4.77861e-07
1.41762e-07
-5.16584e-07
1.15192e-07
-5.39869e-07
8.41146e-08
-5.50386e-07
5.31098e-08
-5.51338e-07
2.4987e-08
-5.45035e-07
3.93159e-10
-5.3247e-07
-2.1051e-08
-5.13995e-07
-3.9762e-08
-4.89907e-07
-5.60397e-08
-4.60608e-07
-7.01539e-08
-4.26583e-07
-8.23703e-08
-3.88365e-07
-9.29385e-08
-3.46491e-07
-1.02079e-07
-3.01489e-07
-1.0997e-07
-2.53858e-07
-1.16734e-07
-2.04072e-07
-1.22429e-07
-1.52585e-07
-1.27052e-07
-9.98375e-08
-1.30557e-07
-4.62695e-08
-1.3288e-07
-1.33967e-07
6.43792e-08
-1.90133e-07
1.20077e-07
-1.8804e-07
1.74559e-07
-1.8416e-07
2.27265e-07
-1.78554e-07
2.77637e-07
-1.71288e-07
3.25124e-07
-1.62406e-07
3.69187e-07
-1.51906e-07
4.0931e-07
-1.39734e-07
4.45008e-07
-1.25783e-07
4.75842e-07
-1.09905e-07
5.01426e-07
-9.19236e-08
5.21437e-07
-7.16484e-08
5.35617e-07
-4.88731e-08
5.43733e-07
-2.33546e-08
5.45529e-07
5.25505e-09
5.40719e-07
3.74376e-08
5.28988e-07
7.34483e-08
5.09417e-07
1.12703e-07
4.79102e-07
1.53734e-07
4.33521e-07
1.93461e-07
3.70608e-07
2.25481e-07
2.93532e-07
2.4354e-07
2.08755e-07
2.47546e-07
1.21216e-07
2.43823e-07
3.31282e-08
2.39168e-07
-5.49788e-08
2.37582e-07
-1.43007e-07
2.40107e-07
-2.30132e-07
2.45001e-07
-3.1352e-07
2.47471e-07
-3.87585e-07
2.40365e-07
-4.46189e-07
2.18477e-07
-4.87536e-07
1.83772e-07
-5.14693e-07
1.43225e-07
-5.32071e-07
1.02422e-07
-5.41962e-07
6.38456e-08
-5.45019e-07
2.87513e-08
-5.41534e-07
-2.51857e-09
-5.31792e-07
-3.03378e-08
-5.16038e-07
-5.51638e-08
-4.94506e-07
-7.73096e-08
-4.67473e-07
-9.70035e-08
-4.35278e-07
-1.14446e-07
-3.98323e-07
-1.29826e-07
-3.57063e-07
-1.43311e-07
-3.11994e-07
-1.55042e-07
-2.6364e-07
-1.65111e-07
-2.12548e-07
-1.73561e-07
-1.59272e-07
-1.80379e-07
-1.04373e-07
-1.85513e-07
-4.84168e-08
-1.88899e-07
8.02936e-09
-1.90477e-07
6.43942e-08
-1.90215e-07
1.20107e-07
-1.88118e-07
1.74602e-07
-1.84228e-07
2.27314e-07
-1.78609e-07
2.77683e-07
-1.71323e-07
3.25158e-07
-1.62413e-07
3.69196e-07
-1.51877e-07
4.0928e-07
-1.39659e-07
4.44925e-07
-1.2565e-07
4.7569e-07
-1.09701e-07
5.01189e-07
-9.16365e-08
5.21101e-07
-7.12651e-08
5.35167e-07
-4.83811e-08
5.43156e-07
-2.2741e-08
5.44807e-07
6.00675e-09
5.39837e-07
3.83441e-08
5.27924e-07
7.45069e-08
5.08106e-07
1.13878e-07
4.77396e-07
1.54958e-07
4.3128e-07
1.94573e-07
3.67843e-07
2.26218e-07
2.90435e-07
2.43771e-07
2.05531e-07
2.47412e-07
1.17975e-07
2.43586e-07
2.98943e-08
2.39021e-07
-5.82148e-08
2.37609e-07
-1.46249e-07
2.40293e-07
-2.33336e-07
2.45234e-07
-3.16547e-07
2.47526e-07
-3.90213e-07
2.3999e-07
-4.48269e-07
2.1761e-07
-4.89109e-07
1.82602e-07
-5.15919e-07
1.42002e-07
-5.33077e-07
1.01272e-07
-5.42793e-07
6.28258e-08
-5.45694e-07
2.78877e-08
-5.42069e-07
-3.23118e-09
-5.32203e-07
-3.09175e-08
-5.16339e-07
-5.56258e-08
-4.94712e-07
-7.76667e-08
-4.67598e-07
-9.72679e-08
-4.35337e-07
-1.14631e-07
-3.98333e-07
-1.29943e-07
-3.57037e-07
-1.43374e-07
-3.11946e-07
-1.55061e-07
-2.63583e-07
-1.65097e-07
-2.1249e-07
-1.73522e-07
-1.59221e-07
-1.80321e-07
-1.04336e-07
-1.85443e-07
-4.83958e-08
-1.8882e-07
-1.90395e-07
6.49235e-08
-2.46954e-07
1.20989e-07
-2.44106e-07
1.75643e-07
-2.38814e-07
2.28244e-07
-2.31155e-07
2.78168e-07
-2.21212e-07
3.24817e-07
-2.09055e-07
3.67629e-07
-1.94718e-07
4.06089e-07
-1.78193e-07
4.39734e-07
-1.59428e-07
4.68162e-07
-1.38333e-07
4.91026e-07
-1.14788e-07
5.08032e-07
-8.86543e-08
5.18931e-07
-5.97725e-08
5.23523e-07
-2.79463e-08
5.217e-07
7.07802e-09
5.13556e-07
4.55813e-08
4.99359e-07
8.76462e-08
4.79159e-07
1.32902e-07
4.52326e-07
1.80567e-07
4.16756e-07
2.29032e-07
3.67672e-07
2.74565e-07
3.01003e-07
3.10209e-07
2.1922e-07
3.29328e-07
1.29066e-07
3.33978e-07
3.55012e-08
3.32732e-07
-5.88041e-08
3.31887e-07
-1.51815e-07
3.33117e-07
-2.40434e-07
3.3362e-07
-3.19007e-07
3.26044e-07
-3.81181e-07
3.02539e-07
-4.26293e-07
2.63588e-07
-4.59301e-07
2.1678e-07
-4.84308e-07
1.68232e-07
-5.02924e-07
1.21037e-07
-5.15565e-07
7.64865e-08
-5.22076e-07
3.52626e-08
-5.22212e-07
-2.3826e-09
-5.15938e-07
-3.66113e-08
-5.03395e-07
-6.77069e-08
-4.84798e-07
-9.59066e-08
-4.60408e-07
-1.21394e-07
-4.30532e-07
-1.44322e-07
-3.95533e-07
-1.64824e-07
-3.55832e-07
-1.83012e-07
-3.11907e-07
-1.98967e-07
-2.64289e-07
-2.1273e-07
-2.13552e-07
-2.24298e-07
-1.60306e-07
-2.33625e-07
-1.05181e-07
-2.40638e-07
-4.88268e-08
-2.45254e-07
8.0978e-09
-2.47402e-07
6.49277e-08
-2.47045e-07
1.20999e-07
-2.44189e-07
1.75655e-07
-2.38884e-07
2.28251e-07
-2.31205e-07
2.78162e-07
-2.21233e-07
3.24786e-07
-2.09038e-07
3.67562e-07
-1.94653e-07
4.05971e-07
-1.78069e-07
4.39553e-07
-1.59232e-07
4.67903e-07
-1.38051e-07
4.90674e-07
-1.14408e-07
5.07573e-07
-8.81642e-08
5.18352e-07
-5.916e-08
5.2281e-07
-2.71996e-08
5.20846e-07
7.97109e-09
5.1256e-07
4.663e-08
4.9822e-07
8.88468e-08
4.77864e-07
1.34235e-07
4.50827e-07
1.81996e-07
4.14929e-07
2.3047e-07
3.65317e-07
2.7583e-07
2.98076e-07
3.11012e-07
2.15922e-07
3.29567e-07
1.25607e-07
3.33901e-07
3.19927e-08
3.32635e-07
-6.23053e-08
3.31907e-07
-1.55243e-07
3.33231e-07
-2.43652e-07
3.33643e-07
-3.21781e-07
3.25656e-07
-3.83369e-07
3.01578e-07
-4.28005e-07
2.62245e-07
-4.60732e-07
2.15329e-07
-4.85553e-07
1.66823e-07
-5.04018e-07
1.19737e-07
-5.16517e-07
7.53251e-08
-5.22885e-07
3.42561e-08
-5.22881e-07
-3.23527e-09
-5.16478e-07
-3.73212e-08
-5.03817e-07
-6.82862e-08
-4.85117e-07
-9.63671e-08
-4.60637e-07
-1.21748e-07
-4.30686e-07
-1.44582e-07
-3.95627e-07
-1.65002e-07
-3.5588e-07
-1.83121e-07
-3.11921e-07
-1.99019e-07
-2.64281e-07
-2.12737e-07
-2.13533e-07
-2.2427e-07
-1.60283e-07
-2.33571e-07
-1.05161e-07
-2.40564e-07
-4.88137e-08
-2.45168e-07
-2.4731e-07
6.36867e-08
-3.02691e-07
1.18595e-07
-2.99014e-07
1.71959e-07
-2.92178e-07
2.23087e-07
-2.82283e-07
2.71317e-07
-2.69442e-07
3.16028e-07
-2.53766e-07
3.56652e-07
-2.35342e-07
3.92682e-07
-2.14223e-07
4.23678e-07
-1.90425e-07
4.49267e-07
-1.63922e-07
4.69139e-07
-1.34659e-07
4.8304e-07
-1.02555e-07
4.90769e-07
-6.75022e-08
4.92195e-07
-2.93718e-08
4.87293e-07
1.19801e-08
4.76214e-07
5.66598e-08
4.59273e-07
1.04588e-07
4.36812e-07
1.55363e-07
4.09088e-07
2.08291e-07
3.75811e-07
2.62308e-07
3.34878e-07
3.15498e-07
2.81447e-07
3.6364e-07
2.1128e-07
3.99495e-07
1.2699e-07
4.18268e-07
3.52646e-08
4.24458e-07
-5.82806e-08
4.25433e-07
-1.4873e-07
4.23567e-07
-2.3007e-07
4.14959e-07
-2.9598e-07
3.91954e-07
-3.45693e-07
3.52252e-07
-3.84331e-07
3.02226e-07
-4.16076e-07
2.48526e-07
-4.42447e-07
1.94603e-07
-4.63501e-07
1.42092e-07
-4.78946e-07
9.19307e-08
-4.88431e-07
4.47484e-08
-4.91677e-07
8.6249e-10
-4.88579e-07
-3.9709e-08
-4.79196e-07
-7.709e-08
-4.63681e-07
-1.11422e-07
-4.42248e-07
-1.42826e-07
-4.15168e-07
-1.71403e-07
-3.82766e-07
-1.97226e-07
-3.45437e-07
-2.20342e-07
-3.03638e-07
-2.40765e-07
-2.57897e-07
-2.58471e-07
-2.08799e-07
-2.73396e-07
-1.56979e-07
-2.85445e-07
-1.03111e-07
-2.94506e-07
-4.78965e-08
-3.00468e-07
7.94362e-09
-3.03242e-07
6.36798e-08
-3.02781e-07
1.18584e-07
-2.99094e-07
1.7194e-07
-2.9224e-07
2.23053e-07
-2.82318e-07
2.71259e-07
-2.69439e-07
3.15936e-07
-2.53715e-07
3.56514e-07
-2.35231e-07
3.92486e-07
-2.1404e-07
4.23411e-07
-1.90157e-07
4.48916e-07
-1.63555e-07
4.6869e-07
-1.34182e-07
4.8248e-07
-1.01954e-07
4.90087e-07
-6.67675e-08
4.91381e-07
-2.8493e-08
4.86341e-07
1.3011e-08
4.75125e-07
5.7846e-08
4.5805e-07
1.05922e-07
4.35459e-07
1.56826e-07
4.07601e-07
2.09854e-07
3.7415e-07
2.63921e-07
3.32914e-07
3.17066e-07
2.78971e-07
3.64954e-07
2.08249e-07
4.00288e-07
1.23607e-07
4.18544e-07
3.17428e-08
4.24499e-07
-6.17803e-08
4.2543e-07
-1.52037e-07
4.23488e-07
-2.32953e-07
4.14559e-07
-2.98292e-07
3.90994e-07
-3.4755e-07
3.50836e-07
-3.85932e-07
3.00627e-07
-4.17521e-07
2.46918e-07
-4.43761e-07
1.93063e-07
-4.64684e-07
1.4066e-07
-4.79993e-07
9.06343e-08
-4.8934e-07
4.36034e-08
-4.92448e-07
-1.27445e-10
-4.8922e-07
-4.05491e-08
-4.79717e-07
-7.77889e-08
-4.64095e-07
-1.1199e-07
-4.42568e-07
-1.43275e-07
-4.15406e-07
-1.71744e-07
-3.82936e-07
-1.97472e-07
-3.45551e-07
-2.20507e-07
-3.0371e-07
-2.40861e-07
-2.57937e-07
-2.5851e-07
-2.08818e-07
-2.7339e-07
-1.56984e-07
-2.85404e-07
-1.03109e-07
-2.9444e-07
-4.78916e-08
-3.00385e-07
-3.03151e-07
6.09918e-08
-3.56069e-07
1.13497e-07
-3.51519e-07
1.64384e-07
-3.43065e-07
2.12933e-07
-3.30832e-07
2.58468e-07
-3.14977e-07
3.00365e-07
-2.95663e-07
3.38065e-07
-2.73041e-07
3.71078e-07
-2.47236e-07
3.9899e-07
-2.18337e-07
4.21462e-07
-1.86394e-07
4.38222e-07
-1.51419e-07
4.49062e-07
-1.13395e-07
4.5384e-07
-7.22805e-08
4.52492e-07
-2.80233e-08
4.4506e-07
1.94124e-08
4.31728e-07
6.99914e-08
4.1281e-07
1.23506e-07
3.88675e-07
1.79498e-07
3.59702e-07
2.37264e-07
3.26176e-07
2.95835e-07
2.87825e-07
3.53849e-07
2.4247e-07
4.08995e-07
1.8546e-07
4.56505e-07
1.14021e-07
4.89707e-07
3.20664e-08
5.06412e-07
-5.28481e-08
5.10347e-07
-1.32829e-07
5.03548e-07
-2.00764e-07
4.82895e-07
-2.54369e-07
4.45559e-07
-2.97587e-07
3.9547e-07
-3.34602e-07
3.39241e-07
-3.6696e-07
2.80883e-07
-3.94711e-07
2.22355e-07
-4.17523e-07
1.64903e-07
-4.35016e-07
1.09423e-07
-4.46827e-07
5.65595e-08
-4.52671e-07
6.70636e-09
-4.52401e-07
-3.99789e-08
-4.46005e-07
-8.34856e-08
-4.33571e-07
-1.23856e-07
-4.15259e-07
-1.61138e-07
-3.91293e-07
-1.95368e-07
-3.61965e-07
-2.26554e-07
-3.27634e-07
-2.54672e-07
-2.88738e-07
-2.79662e-07
-2.45785e-07
-3.01424e-07
-1.99356e-07
-3.19825e-07
-1.50093e-07
-3.34708e-07
-9.86878e-08
-3.45912e-07
-4.58692e-08
-3.53287e-07
7.60726e-09
-3.56718e-07
6.09744e-08
-3.56148e-07
1.13467e-07
-3.51587e-07
1.64336e-07
-3.4311e-07
2.12862e-07
-3.30843e-07
2.58365e-07
-3.14942e-07
3.0022e-07
-2.9557e-07
3.37867e-07
-2.72878e-07
3.70816e-07
-2.46989e-07
3.98653e-07
-2.17993e-07
4.21037e-07
-1.8594e-07
4.37697e-07
-1.50842e-07
4.48427e-07
-1.12684e-07
4.53086e-07
-7.1426e-08
4.5161e-07
-2.70172e-08
4.44047e-07
2.05744e-08
4.30585e-07
7.13076e-08
4.11541e-07
1.24966e-07
3.87285e-07
1.81082e-07
3.58196e-07
2.38942e-07
3.24551e-07
2.97566e-07
2.86041e-07
3.55576e-07
2.40394e-07
4.10602e-07
1.8291e-07
4.57772e-07
1.11014e-07
4.9044e-07
2.88299e-08
5.06683e-07
-5.60463e-08
5.10306e-07
-1.35722e-07
5.03164e-07
-2.03168e-07
4.82004e-07
-2.56341e-07
4.44168e-07
-2.99314e-07
3.9381e-07
-3.36189e-07
3.37502e-07
-3.68431e-07
2.79159e-07
-3.96065e-07
2.20697e-07
-4.18754e-07
1.63349e-07
-4.36119e-07
1.07999e-07
-4.47799e-07
5.52833e-08
-4.53512e-07
5.58547e-09
-4.53116e-07
-4.09451e-08
-4.46602e-07
-8.43024e-08
-4.3406e-07
-1.24531e-07
-4.15652e-07
-1.61683e-07
-3.91601e-07
-1.95794e-07
-3.62199e-07
-2.26874e-07
-3.27808e-07
-2.54898e-07
-2.88861e-07
-2.79808e-07
-2.45869e-07
-3.01502e-07
-1.9941e-07
-3.19848e-07
-1.50125e-07
-3.34689e-07
-9.87029e-08
-3.45862e-07
-4.58723e-08
-3.53216e-07
-3.56638e-07
5.71173e-08
-4.06055e-07
1.06215e-07
-4.00617e-07
1.53668e-07
-3.90517e-07
1.98752e-07
-3.75917e-07
2.40795e-07
-3.5702e-07
2.79185e-07
-3.34053e-07
3.13383e-07
-3.07239e-07
3.42929e-07
-2.76782e-07
3.67442e-07
-2.4285e-07
3.86622e-07
-2.05573e-07
4.00242e-07
-1.6504e-07
4.0815e-07
-1.21302e-07
4.1026e-07
-7.4391e-08
4.06571e-07
-2.43343e-08
3.97177e-07
2.88068e-08
3.82284e-07
8.48837e-08
3.62204e-07
1.43586e-07
3.37311e-07
2.04391e-07
3.08015e-07
2.6656e-07
2.7472e-07
3.2913e-07
2.37692e-07
3.90877e-07
1.96569e-07
4.50117e-07
1.49225e-07
5.03849e-07
9.23296e-08
5.46602e-07
2.61942e-08
5.72548e-07
-4.30518e-08
5.79593e-07
-1.07259e-07
5.67755e-07
-1.6155e-07
5.37185e-07
-2.07002e-07
4.91012e-07
-2.4697e-07
4.35438e-07
-2.83042e-07
3.75313e-07
-3.15334e-07
3.13175e-07
-3.43524e-07
2.50545e-07
-3.672e-07
1.88579e-07
-3.85957e-07
1.2818e-07
-3.99433e-07
7.00359e-08
-4.07342e-07
1.46148e-08
-4.09504e-07
-3.78165e-08
-4.05853e-07
-8.71368e-08
-3.96414e-07
-1.33295e-07
-3.81288e-07
-1.76264e-07
-3.6065e-07
-2.16006e-07
-3.34747e-07
-2.52458e-07
-3.039e-07
-2.85519e-07
-2.68514e-07
-3.15048e-07
-2.29072e-07
-3.40866e-07
-1.86135e-07
-3.62761e-07
-1.40336e-07
-3.80508e-07
-9.23635e-08
-3.93884e-07
-4.29549e-08
-4.02695e-07
7.12359e-09
-4.06797e-07
5.70908e-08
-4.06115e-07
1.06168e-07
-4.00664e-07
1.53595e-07
-3.90537e-07
1.98649e-07
-3.75896e-07
2.40653e-07
-3.56947e-07
2.78996e-07
-3.33913e-07
3.13137e-07
-3.07019e-07
3.42615e-07
-2.76468e-07
3.6705e-07
-2.42429e-07
3.86142e-07
-2.05032e-07
3.99666e-07
-1.64366e-07
4.07466e-07
-1.20485e-07
4.09463e-07
-7.34227e-08
4.05655e-07
-2.32091e-08
3.96139e-07
3.009e-08
3.81127e-07
8.63197e-08
3.60932e-07
1.45161e-07
3.35929e-07
2.06084e-07
3.06531e-07
2.68341e-07
2.73138e-07
3.30959e-07
2.36009e-07
3.92705e-07
1.94741e-07
4.5187e-07
1.47132e-07
5.05381e-07
8.98803e-08
5.47691e-07
2.351e-08
5.73053e-07
-4.56934e-08
5.79509e-07
-1.09608e-07
5.67078e-07
-1.63551e-07
5.35947e-07
-2.08778e-07
4.89395e-07
-2.4862e-07
4.33651e-07
-2.84594e-07
3.73476e-07
-3.16788e-07
3.11353e-07
-3.44874e-07
2.48783e-07
-3.68438e-07
1.86913e-07
-3.87078e-07
1.26639e-07
-4.00433e-07
6.86387e-08
-4.0822e-07
1.33724e-08
-4.10264e-07
-3.89011e-08
-4.06501e-07
-8.80661e-08
-3.96956e-07
-1.34076e-07
-3.81735e-07
-1.76905e-07
-3.61012e-07
-2.16517e-07
-3.35033e-07
-2.52852e-07
-3.04121e-07
-2.8581e-07
-2.6868e-07
-3.15249e-07
-2.29192e-07
-3.4099e-07
-1.86219e-07
-3.62822e-07
-1.4039e-07
-3.80518e-07
-9.2394e-08
-3.93858e-07
-4.29652e-08
-4.02644e-07
-4.06735e-07
5.22895e-08
-4.51814e-07
9.71692e-08
-4.45497e-07
1.4042e-07
-4.33769e-07
1.81334e-07
-4.16831e-07
2.19257e-07
-3.94943e-07
2.53604e-07
-3.68399e-07
2.83866e-07
-3.37502e-07
3.09621e-07
-3.02537e-07
3.30531e-07
-2.6376e-07
3.46341e-07
-2.21383e-07
3.56876e-07
-1.75575e-07
3.62038e-07
-1.26464e-07
3.61803e-07
-7.41558e-08
3.56226e-07
-1.87574e-08
3.45449e-07
3.95831e-08
3.2971e-07
1.00623e-07
3.09327e-07
1.63969e-07
2.84684e-07
2.29033e-07
2.56216e-07
2.95029e-07
2.2439e-07
3.60956e-07
1.89681e-07
4.25586e-07
1.52444e-07
4.87354e-07
1.12422e-07
5.43872e-07
6.82432e-08
5.90781e-07
1.9248e-08
6.21543e-07
-3.15954e-08
6.30437e-07
-7.95036e-08
6.15663e-07
-1.22481e-07
5.80162e-07
-1.61705e-07
5.30236e-07
-1.98303e-07
4.72036e-07
-2.32307e-07
4.09317e-07
-2.63304e-07
3.44172e-07
-2.90819e-07
2.7806e-07
-3.14387e-07
2.12148e-07
-3.33588e-07
1.47381e-07
-3.48053e-07
8.45e-08
-3.57479e-07
2.40409e-08
-3.61654e-07
-3.36408e-08
-3.6046e-07
-8.83307e-08
-3.53863e-07
-1.39893e-07
-3.41905e-07
-1.88222e-07
-3.24707e-07
-2.33204e-07
-3.02464e-07
-2.747e-07
-2.75455e-07
-3.12528e-07
-2.44041e-07
-3.46462e-07
-2.08671e-07
-3.76236e-07
-1.69876e-07
-4.01556e-07
-1.28263e-07
-4.22121e-07
-8.45048e-08
-4.37643e-07
-3.9324e-08
-4.47876e-07
6.52093e-09
-4.52642e-07
5.22555e-08
-4.5185e-07
9.71078e-08
-4.45516e-07
1.40328e-07
-4.33757e-07
1.81205e-07
-4.16774e-07
2.19085e-07
-3.94826e-07
2.5338e-07
-3.68208e-07
2.83583e-07
-3.37222e-07
3.09271e-07
-3.02155e-07
3.30103e-07
-2.63262e-07
3.45828e-07
-2.20756e-07
3.5627e-07
-1.74808e-07
3.61332e-07
-1.25547e-07
3.60992e-07
-7.30826e-08
3.55308e-07
-1.75244e-08
3.44423e-07
4.09745e-08
3.28578e-07
1.02165e-07
3.08094e-07
1.65645e-07
2.83358e-07
2.3082e-07
2.54804e-07
2.96894e-07
2.22903e-07
3.6286e-07
1.88128e-07
4.2748e-07
1.50824e-07
4.89174e-07
1.10699e-07
5.45506e-07
6.63551e-08
5.92035e-07
1.72252e-08
6.22183e-07
-3.35919e-08
6.30327e-07
-8.13404e-08
6.14827e-07
-1.24167e-07
5.78773e-07
-1.63303e-07
5.28531e-07
-1.99836e-07
4.70185e-07
-2.33772e-07
4.07412e-07
-2.64691e-07
3.42272e-07
-2.92118e-07
2.7621e-07
-3.1559e-07
2.10386e-07
-3.34689e-07
1.45737e-07
-3.49045e-07
8.29956e-08
-3.58363e-07
2.26895e-08
-3.6243e-07
-3.48332e-08
-3.61132e-07
-8.93641e-08
-3.54436e-07
-1.40772e-07
-3.42387e-07
-1.88954e-07
-3.25105e-07
-2.33799e-07
-3.02788e-07
-2.7517e-07
-2.75712e-07
-3.12886e-07
-2.4424e-07
-3.4672e-07
-2.08821e-07
-3.76409e-07
-1.69985e-07
-4.01658e-07
-1.28337e-07
-4.22166e-07
-8.4548e-08
-4.37646e-07
-3.93404e-08
-4.47852e-07
-4.52605e-07
4.66939e-08
-4.92677e-07
8.67048e-08
-4.85508e-07
1.25143e-07
-4.72207e-07
1.6133e-07
-4.53017e-07
1.94645e-07
-4.28258e-07
2.24541e-07
-3.98296e-07
2.50553e-07
-3.63514e-07
2.72302e-07
-3.24286e-07
2.89499e-07
-2.80957e-07
3.01941e-07
-2.33825e-07
3.09507e-07
-1.83141e-07
3.12156e-07
-1.29113e-07
3.09923e-07
-7.19228e-08
3.0292e-07
-1.17544e-08
2.91338e-07
5.1165e-08
2.7545e-07
1.16512e-07
2.55601e-07
1.83818e-07
2.32202e-07
2.52432e-07
2.05724e-07
3.21507e-07
1.76701e-07
3.89979e-07
1.45744e-07
4.56543e-07
1.13535e-07
5.19563e-07
8.06805e-08
5.76726e-07
4.72992e-08
6.24162e-07
1.30958e-08
6.55746e-07
-2.14971e-08
6.6503e-07
-5.54854e-08
6.49652e-07
-8.87e-08
6.13377e-07
-1.21418e-07
5.62953e-07
-1.53361e-07
5.03979e-07
-1.83873e-07
4.39828e-07
-2.12283e-07
3.72583e-07
-2.38003e-07
3.0378e-07
-2.60513e-07
2.34658e-07
-2.79359e-07
1.66227e-07
-2.94145e-07
9.92858e-08
-3.04542e-07
3.44383e-08
-3.10299e-07
-2.78842e-08
-3.11244e-07
-8.73855e-08
-3.07286e-07
-1.43851e-07
-2.98411e-07
-1.97097e-07
-2.84679e-07
-2.46936e-07
-2.66235e-07
-2.93145e-07
-2.43305e-07
-3.35458e-07
-2.16204e-07
-3.73563e-07
-1.85335e-07
-4.07105e-07
-1.51188e-07
-4.35702e-07
-1.14335e-07
-4.58975e-07
-7.54123e-08
-4.76565e-07
-3.51161e-08
-4.88172e-07
5.82247e-09
-4.9358e-07
4.66543e-08
-4.92682e-07
8.66329e-08
-4.85495e-07
1.25036e-07
-4.7216e-07
1.61182e-07
-4.5292e-07
1.94451e-07
-4.28095e-07
2.24295e-07
-3.98052e-07
2.50247e-07
-3.63175e-07
2.7193e-07
-3.23837e-07
2.89053e-07
-2.80385e-07
3.01415e-07
-2.33118e-07
3.08895e-07
-1.82288e-07
3.11454e-07
-1.28106e-07
3.09128e-07
-7.07567e-08
3.02031e-07
-1.04276e-08
2.90357e-07
5.26487e-08
2.7438e-07
1.18142e-07
2.5445e-07
1.85576e-07
2.30977e-07
2.54293e-07
2.04437e-07
3.23435e-07
1.75365e-07
3.91932e-07
1.44375e-07
4.5847e-07
1.12153e-07
5.21396e-07
7.92943e-08
5.78365e-07
4.58957e-08
6.25434e-07
1.16674e-08
6.56411e-07
-2.292e-08
6.64914e-07
-5.68813e-08
6.48788e-07
-9.0084e-08
6.11976e-07
-1.22796e-07
5.61243e-07
-1.54721e-07
5.0211e-07
-1.85195e-07
4.37886e-07
-2.13553e-07
3.70629e-07
-2.39207e-07
3.01864e-07
-2.61641e-07
2.3282e-07
-2.80402e-07
1.64499e-07
-2.95098e-07
9.76913e-08
-3.05402e-07
3.29934e-08
-3.11064e-07
-2.91709e-08
-3.11916e-07
-8.85118e-08
-3.07869e-07
-1.44819e-07
-2.98908e-07
-1.97914e-07
-2.85098e-07
-2.4761e-07
-2.66581e-07
-2.93687e-07
-2.43586e-07
-3.35881e-07
-2.16426e-07
-3.7388e-07
-1.85506e-07
-4.07329e-07
-1.51315e-07
-4.35849e-07
-1.14422e-07
-4.5906e-07
-7.54653e-08
-4.76603e-07
-3.51373e-08
-4.8818e-07
-4.93574e-07
4.04797e-08
-5.281e-07
7.51002e-08
-5.20128e-07
1.08239e-07
-5.05346e-07
1.39262e-07
-4.84041e-07
1.67597e-07
-4.56593e-07
1.92744e-07
-4.23443e-07
2.1429e-07
-3.85059e-07
2.31907e-07
-3.41904e-07
2.45359e-07
-2.9441e-07
2.54499e-07
-2.42965e-07
2.59261e-07
-1.87903e-07
2.59661e-07
-1.29513e-07
2.55792e-07
-6.80532e-08
2.47819e-07
-3.78138e-09
2.35983e-07
6.3001e-08
2.20597e-07
1.31898e-07
2.02043e-07
2.02372e-07
1.80766e-07
2.73709e-07
1.5728e-07
3.44993e-07
1.3218e-07
4.1508e-07
1.0616e-07
4.82563e-07
8.00471e-08
5.45677e-07
5.47375e-08
6.02035e-07
3.0879e-08
6.48021e-07
8.35988e-09
6.78265e-07
-1.37187e-08
6.87108e-07
-3.65076e-08
6.7244e-07
-6.0747e-08
6.37616e-07
-8.63255e-08
5.88532e-07
-1.12484e-07
5.30138e-07
-1.38325e-07
4.65669e-07
-1.63057e-07
3.97315e-07
-1.86011e-07
3.26734e-07
-2.06616e-07
2.55263e-07
-2.24374e-07
1.83985e-07
-2.38857e-07
1.13769e-07
-2.49699e-07
4.52804e-08
-2.56605e-07
-2.09782e-08
-2.59353e-07
-8.4637e-08
-2.57797e-07
-1.45407e-07
-2.51864e-07
-2.03031e-07
-2.4156e-07
-2.5724e-07
-2.26971e-07
-3.07733e-07
-2.0827e-07
-3.54159e-07
-1.8572e-07
-3.96114e-07
-1.59671e-07
-4.33154e-07
-1.30563e-07
-4.6481e-07
-9.89178e-08
-4.9062e-07
-6.53281e-08
-5.10154e-07
-3.04437e-08
-5.23057e-07
5.04686e-09
-5.29071e-07
4.04366e-08
-5.28071e-07
7.50217e-08
-5.2008e-07
1.08123e-07
-5.05261e-07
1.39104e-07
-4.83901e-07
1.67392e-07
-4.56383e-07
1.92487e-07
-4.23147e-07
2.13974e-07
-3.84662e-07
2.31528e-07
-3.41391e-07
2.44913e-07
-2.93769e-07
2.53979e-07
-2.42184e-07
2.58665e-07
-1.86974e-07
2.58987e-07
-1.28428e-07
2.55038e-07
-6.68081e-08
2.46988e-07
-2.37698e-09
2.35078e-07
6.45588e-08
2.19624e-07
1.33596e-07
2.0101e-07
2.0419e-07
1.79684e-07
2.75619e-07
1.56162e-07
3.46957e-07
1.31042e-07
4.17052e-07
1.05025e-07
4.84487e-07
7.89393e-08
5.47482e-07
5.36827e-08
6.03622e-07
2.98842e-08
6.49232e-07
7.40156e-09
6.78894e-07
-1.46834e-08
6.86999e-07
-3.75181e-08
6.71623e-07
-6.18184e-08
6.36276e-07
-8.74434e-08
5.86868e-07
-1.13622e-07
5.28288e-07
-1.39458e-07
4.63723e-07
-1.64166e-07
3.95337e-07
-1.8708e-07
3.24778e-07
-2.07631e-07
2.53372e-07
-2.25327e-07
1.82194e-07
-2.39739e-07
1.12104e-07
-2.50506e-07
4.37599e-08
-2.57333e-07
-2.23435e-08
-2.60002e-07
-8.58428e-08
-2.58367e-07
-1.46454e-07
-2.52358e-07
-2.03923e-07
-2.41981e-07
-2.57986e-07
-2.27325e-07
-3.08343e-07
-2.08562e-07
-3.54644e-07
-1.85955e-07
-3.96487e-07
-1.59855e-07
-4.33429e-07
-1.30701e-07
-4.65003e-07
-9.90149e-08
-4.90746e-07
-6.53877e-08
-5.1023e-07
-3.04683e-08
-5.23099e-07
-5.29098e-07
3.37667e-08
-5.57649e-07
6.25784e-08
-5.4894e-07
9.00326e-08
-5.328e-07
1.15554e-07
-5.09562e-07
1.38627e-07
-4.79666e-07
1.58813e-07
-4.43629e-07
1.75756e-07
-4.02002e-07
1.89186e-07
-3.55334e-07
1.98923e-07
-3.04147e-07
2.04876e-07
-2.48917e-07
2.07034e-07
-1.90061e-07
2.05468e-07
-1.27947e-07
2.00322e-07
-6.29077e-08
1.91814e-07
4.7263e-09
1.80231e-07
7.45844e-08
1.65925e-07
1.46204e-07
1.49311e-07
2.18985e-07
1.30867e-07
2.92153e-07
1.11136e-07
3.64723e-07
9.07431e-08
4.35473e-07
7.04058e-08
5.029e-07
5.09496e-08
5.65133e-07
3.32464e-08
6.19739e-07
1.79163e-08
6.63351e-07
4.72582e-09
6.91456e-07
-7.73881e-09
6.99573e-07
-2.13709e-08
6.86073e-07
-3.73104e-08
6.53556e-07
-5.5519e-08
6.0674e-07
-7.5265e-08
5.49884e-07
-9.56726e-08
4.86077e-07
-1.15942e-07
4.17585e-07
-1.3538e-07
3.46172e-07
-1.53384e-07
2.73266e-07
-1.69427e-07
2.00029e-07
-1.83048e-07
1.27389e-07
-1.93846e-07
5.60788e-08
-2.01485e-07
-1.33389e-08
-2.05696e-07
-8.04259e-08
-2.06281e-07
-1.44823e-07
-2.03112e-07
-2.06199e-07
-1.96142e-07
-2.6421e-07
-1.85402e-07
-3.18474e-07
-1.71008e-07
-3.68553e-07
-1.53165e-07
-4.13957e-07
-1.32167e-07
-4.54152e-07
-1.08394e-07
-4.88583e-07
-8.23088e-08
-5.16705e-07
-5.44461e-08
-5.38017e-07
-2.53967e-08
-5.52106e-07
4.20903e-09
-5.58677e-07
3.37222e-08
-5.57585e-07
6.24971e-08
-5.48855e-07
8.99123e-08
-5.32676e-07
1.15391e-07
-5.0938e-07
1.38419e-07
-4.79411e-07
1.58556e-07
-4.43284e-07
1.75444e-07