/*--------------------------------*- C++ -*----------------------------------*\
| =========                 |                                                 |
| \\      /  F ield         | OpenFOAM: The Open Source CFD Toolbox           |
|  \\    /   O peration     | Version:  2.3.0                                 |
|   \\  /    A nd           | Web:      www.OpenFOAM.org                      |
|    \\/     M anipulation  |                                                 |
\*---------------------------------------------------------------------------*/
FoamFile
{
    version     2.0;
    format      ascii;
    class       surfaceScalarField;
    location    "25000";
    object      phi;
}
// * * * * * * * * * * * * * * * * * * * * * * * * * * * * * * * * * * * * * //

dimensions      [0 3 -1 0 0 0 0];

internalField   nonuniform List<scalar> 
1464
(
0.0242119
-0.0215505
0.0447101
-0.0204982
0.0632196
-0.0185094
0.0788019
-0.0155823
0.0904686
-0.0116667
0.0970404
-0.00657174
0.0970097
3.06681e-05
0.088965
0.00804472
0.073335
0.01563
0.0523669
0.0209681
0.0302859
0.022081
0.0108261
0.0194598
-0.00675532
0.0175814
-0.0255653
0.01881
-0.047201
0.0216356
-0.068981
0.02178
-0.0860441
0.0170631
-0.0960089
0.00996486
-0.0978187
0.0018098
-0.0926597
-0.00515904
-0.0820908
-0.0105688
-0.0673609
-0.01473
-0.0494832
-0.0178776
-0.0293955
-0.0200877
-0.00802946
-0.0213661
0.0136832
-0.0217127
0.0348062
-0.0211229
0.0544077
-0.0196015
0.0715572
-0.0171496
0.0853104
-0.0137532
0.0946141
-0.00930367
0.0981393
-0.00352518
0.0943117
0.00382755
0.0823223
0.0119895
0.0638166
0.0185056
0.0415066
0.0223101
0.0205074
0.0209992
0.00231558
0.0181918
-0.0154397
0.0177553
-0.0356573
0.0202176
-0.0580324
0.0223752
-0.0778839
0.0198514
-0.0918171
0.0139332
-0.097781
0.00596393
-0.0960167
-0.00176433
-0.0880573
-0.00795939
-0.0753254
-0.0127319
-0.0589342
-0.0163911
-0.0398489
-0.0190853
-0.019005
-0.0208439
-0.0216665
0.0268596
-0.0454591
0.0494213
-0.04306
0.06955
-0.0386381
0.0863138
-0.0323461
0.0989655
-0.0243185
0.107011
-0.0146168
0.11031
-0.00326882
0.108736
0.00961869
0.10018
0.0241861
0.0814392
0.039709
0.0531576
0.0503626
0.0203879
0.0522294
-0.0128432
0.0508125
-0.0458781
0.0518449
-0.0757765
0.0515341
-0.0969658
0.0429692
-0.107707
0.0278044
-0.110584
0.0128419
-0.108394
-0.000380259
-0.101473
-0.0120805
-0.0898879
-0.0221535
-0.0740543
-0.0305636
-0.0546638
-0.0372681
-0.0326034
-0.0421481
-0.00892045
-0.045049
0.0152129
-0.0458461
0.0385829
-0.0444929
0.0600446
-0.0410631
0.0785905
-0.0356955
0.0933806
-0.0285433
0.103785
-0.019708
0.109479
-0.00921921
0.110441
0.00286535
0.105945
0.0164853
0.092644
0.031807
0.0688806
0.0460735
0.037597
0.0522827
0.00443802
0.0513509
-0.0287656
0.0509589
-0.0610037
0.0524557
-0.0872192
0.0485907
-0.103282
0.0359142
-0.109711
0.0203624
-0.110012
0.006265
-0.10554
-0.00623676
-0.0963258
-0.0171734
-0.0826005
-0.0264572
-0.0649294
-0.0340623
-0.0441081
-0.0399065
-0.0211084
-0.0438437
-0.0457258
0.0254553
-0.0681201
0.0467111
-0.0643157
0.0654533
-0.0573803
0.0807795
-0.0476723
0.0920203
-0.0355593
0.0987462
-0.0213427
0.100718
-0.00524067
0.0977288
0.0126079
0.0896415
0.0322734
0.0761962
0.0531543
0.0542349
0.0723239
0.0222839
0.0841805
-0.0141674
0.0872638
-0.04781
0.0854875
-0.0722748
0.0759989
-0.0871943
0.0578887
-0.0964746
0.0370847
-0.100659
0.0170262
-0.0998345
-0.00120462
-0.0942192
-0.0176958
-0.0840258
-0.0323469
-0.0696287
-0.0449607
-0.0516367
-0.0552601
-0.0308948
-0.06289
-0.00846194
-0.0674819
0.014443
-0.068751
0.0365492
-0.0665992
0.0566717
-0.0611856
0.0738042
-0.0528279
0.087162
-0.0419012
0.096199
-0.0287449
0.100594
-0.0136138
0.100147
0.00331187
0.0946479
0.0219844
0.0840349
0.04242
0.0671803
0.062928
0.0400258
0.0794372
0.00493404
0.0864426
-0.0311193
0.0870122
-0.0608828
0.0822192
-0.0801938
0.0679016
-0.0922128
0.0479333
-0.0990357
0.0271853
-0.100772
0.00800113
-0.0976046
-0.00940403
-0.0897329
-0.025045
-0.0774329
-0.0387573
-0.0611917
-0.0503034
-0.0417369
-0.0593613
-0.0200248
-0.0655558
-0.0685449
0.0223896
-0.0880553
0.0409599
-0.082886
0.057094
-0.0735144
0.0699338
-0.0605121
0.0788571
-0.0444826
0.0834633
-0.0259489
0.0835365
-0.00531381
0.0790408
0.0171036
0.0703358
0.0409783
0.0579473
0.0655428
0.0411724
0.0890988
0.0174971
0.107856
-0.0112547
0.116016
-0.0366148
0.110848
-0.0546685
0.0940527
-0.0679407
0.0711608
-0.0775322
0.0466762
-0.0830687
0.0225627
-0.0840768
-0.000196549
-0.0805312
-0.0212413
-0.0726079
-0.0402702
-0.0606577
-0.056911
-0.0452449
-0.0706729
-0.0271683
-0.0809666
-0.00744917
-0.087201
0.0127285
-0.0889287
0.0321305
-0.0860012
0.0496064
-0.0786615
0.0641898
-0.0674113
0.0751436
-0.0528549
0.0819619
-0.0355632
0.0843426
-0.0159946
0.0821522
0.0055023
0.0755065
0.0286301
0.064971
0.0529555
0.0506441
0.077255
0.0309365
0.0991448
0.00396165
0.113417
-0.0242333
0.115207
-0.0459422
0.103928
-0.0614687
0.0834281
-0.0729468
0.0594114
-0.0806672
0.0349057
-0.0840394
0.0113734
-0.0828306
-0.0106129
-0.0771287
-0.0307469
-0.0671917
-0.0486943
-0.0534713
-0.0640238
-0.0366475
-0.0761852
-0.017634
-0.0845693
-0.0886333
0.0181297
-0.104201
0.0330333
-0.0977897
0.0457295
-0.0862106
0.0554667
-0.0702492
0.0617311
-0.0507471
0.0642342
-0.028452
0.0628849
-0.00396461
0.0577931
0.0221955
0.0493724
0.049399
0.038312
0.0766032
0.0252806
0.10213
0.0101867
0.12295
-0.00652419
0.132726
-0.0221329
0.126456
-0.0355858
0.107506
-0.0471559
0.0827309
-0.0562553
0.0557755
-0.0621775
0.0284849
-0.0644261
0.00205205
-0.0628336
-0.0228338
-0.0574455
-0.0456584
-0.0484993
-0.0658571
-0.0364506
-0.0827216
-0.0219916
-0.0954256
-0.00603847
-0.103154
0.0103323
-0.1053
0.0259965
-0.101665
0.0399104
-0.0925754
0.0512124
-0.0787134
0.0592727
-0.0609152
0.063695
-0.0399856
0.0642933
-0.0165929
0.0610713
0.00872428
0.0542699
0.0354315
0.0444681
0.0627573
0.032377
0.0893461
0.0184198
0.113102
0.00228776
0.12955
-0.0142449
0.13174
-0.0287727
0.118456
-0.0413564
0.0960118
-0.0518255
0.0698804
-0.0594764
0.0425567
-0.0636626
0.0155596
-0.0640586
-0.0102169
-0.0606089
-0.0341965
-0.0534512
-0.055852
-0.0429268
-0.0745482
-0.0296074
-0.0895047
-0.014301
-0.0998757
-0.104918
0.013096
-0.115867
0.0237198
-0.108413
0.032506
-0.0949969
0.0388635
-0.0766067
0.0424322
-0.0543157
0.0430761
-0.0290959
0.0408673
-0.00175579
0.0360828
0.02698
0.029235
0.0562468
0.0210679
0.0847704
0.0125328
0.110665
0.004563
0.13092
-0.00290073
0.14019
-0.0107014
0.134257
-0.0191806
0.115985
-0.0275306
0.0910809
-0.0347604
0.0630053
-0.0400851
0.0338097
-0.0429347
0.00490163
-0.0429803
-0.0227883
-0.0401021
-0.0485366
-0.0343845
-0.0715747
-0.0261311
-0.090975
-0.0158763
-0.10568
-0.00436904
-0.114661
0.00748961
-0.117158
0.0187539
-0.11293
0.0285534
-0.102375
0.0361915
-0.0863514
0.0411937
-0.0659174
0.0433154
-0.0421073
0.0425263
-0.0158038
0.038998
0.0122526
0.0331165
0.041313
0.0255139
0.0703599
0.0170234
0.0978366
0.00865965
0.121466
0.00101194
0.137197
-0.00651416
0.139266
-0.0146883
0.12663
-0.0232369
0.10456
-0.0311573
0.0778008
-0.0375557
0.0489551
-0.0417398
0.0197436
-0.0432605
-0.00869619
-0.041893
-0.0355641
-0.0376153
-0.0601297
-0.0306166
-0.0815468
-0.0213142
-0.0988071
-0.0103533
-0.110837
-0.116702
0.0075513
-0.122597
0.0135141
-0.114376
0.0181447
-0.0996275
0.021058
-0.0795201
0.0220729
-0.0553306
0.0212118
-0.0282348
0.0186922
0.000763793
0.0149179
0.0307543
0.0104599
0.0607048
0.00603621
0.0891941
0.00248928
0.114212
0.000534516
0.132874
-0.000326221
0.141051
-0.00191959
0.13585
-0.00515135
0.119217
-0.00945817
0.0953877
-0.0139816
0.0675288
-0.0179777
0.0378057
-0.0208385
0.00776248
-0.0221201
-0.0215067
-0.0215603
-0.0490963
-0.0190894
-0.0740456
-0.0148383
-0.0952261
-0.00914301
-0.111376
-0.0025278
-0.121277
0.00434769
-0.124034
0.0107832
-0.119365
0.0161466
-0.107738
0.0199595
-0.0901642
0.0219387
-0.0678966
0.0220064
-0.042175
0.020283
-0.0140805
0.0170788
0.0154568
0.0128789
0.0455129
0.00832956
0.0749093
0.00420544
0.101961
0.00136261
0.124309
0.000110156
0.13845
-0.000877809
0.140254
-0.00326629
0.129019
-0.00712299
0.108417
-0.011634
0.0823118
-0.0159881
0.0533093
-0.0195007
0.0232562
-0.0216428
-0.00655413
-0.0220551
-0.0351517
-0.0205677
-0.0616172
-0.0172072
-0.0849073
-0.0122056
-0.103809
-0.0059958
-0.117046
-0.123519
0.0016803
-0.124099
0.00276059
-0.115457
0.0031377
-0.100005
0.00266596
-0.0790483
0.00135103
-0.0540156
-0.000645877
-0.0262379
-0.00300969
0.0031276
-0.00528724
0.0330318
-0.00693459
0.0623521
-0.00736672
0.0896262
-0.00603686
0.112882
-0.00271562
0.129553
0.00173874
0.136597
0.00544775
0.132141
0.00723379
0.117431
0.00715769
0.0954638
0.00573448
0.068952
0.0035471
0.0399931
0.00115447
0.0101551
-0.000965491
-0.0193867
-0.00246326
-0.0475986
-0.00314084
-0.0733681
-0.00295547
-0.0954114
-0.00201698
-0.112314
-0.000575905
-0.122718
0.00101104
-0.125621
0.00235221
-0.120706
0.00311322
-0.108499
0.00307801
-0.090129
0.00217578
-0.0669944
0.000489453
-0.0404886
-0.00174297
-0.011848
-0.00413529
0.0178491
-0.00618656
0.0475642
-0.00732548
0.0760482
-0.00697502
0.10161
-0.00467552
0.122009
-0.000610404
0.134385
0.00372027
0.135923
0.00656005
0.126179
0.00739975
0.107577
0.0066047
0.0831068
0.00474129
0.0551727
0.00239037
0.0256071
7.58773e-05
-0.00423964
-0.00177944
-0.0332964
-0.00289773
-0.0604989
-0.00315637
-0.0846487
-0.0025878
-0.104377
-0.00137332
-0.118261
-0.12507
-0.00436555
-0.120217
-0.00826302
-0.111559
-0.0121317
-0.0961359
-0.0158576
-0.0753224
-0.0192534
-0.0506199
-0.0220515
-0.0234397
-0.0238991
0.00497519
-0.0243751
0.0335077
-0.0230435
0.0610206
-0.0195277
0.0861104
-0.0136287
0.106983
-0.00557329
0.121498
0.00355137
0.127472
0.0119843
0.123708
0.0184201
0.110995
0.0224743
0.0914096
0.0242787
0.0671476
0.0241814
0.0400905
0.0226125
0.011724
0.0200014
-0.0167757
0.0167196
-0.0443167
0.013054
-0.0697024
0.00920959
-0.091567
0.00531702
-0.108422
0.00143642
-0.118837
-0.0024337
-0.12175
-0.00631981
-0.11682
-0.0102094
-0.10461
-0.0140243
-0.0863141
-0.0176154
-0.0634033
-0.0207577
-0.0373464
-0.0231418
-0.00946389
-0.0243773
0.0190847
-0.0240301
0.0472169
-0.0216817
0.0736998
-0.0170231
0.0969517
-0.0100134
0.114999
-0.00124223
0.125613
0.00777228
0.126909
0.0153471
0.118604
0.0206441
0.10228
0.0235822
0.0801688
0.02442
0.0543349
0.023558
0.0264691
0.021433
-0.00211461
0.0184537
-0.0303171
0.0149522
-0.0569974
0.0111749
-0.0808713
0.00729021
-0.100493
0.00339459
-0.114365
-0.121192
-0.0104203
-0.110943
-0.0192591
-0.10272
-0.0272682
-0.0881268
-0.0340675
-0.0685231
-0.0393012
-0.0453862
-0.0426293
-0.0201116
-0.0437155
0.00606137
-0.0422351
0.0320273
-0.0379189
0.0567044
-0.0306366
0.0788281
-0.0205241
0.0968708
-0.00816931
0.109143
0.00519599
0.114107
0.017916
0.110988
0.028617
0.100294
0.0365766
0.08345
0.0415745
0.0621497
0.043693
0.037972
0.0431784
0.0122386
0.0403477
-0.0139449
0.0355359
-0.039505
0.0290801
-0.0632467
0.0213297
-0.0838166
0.0126573
-0.0997492
0.00345391
-0.109634
-0.00589065
-0.112406
-0.0149944
-0.107716
-0.0234654
-0.0961388
-0.0309161
-0.0788634
-0.0369805
-0.0573389
-0.0413145
-0.0330125
-0.0435824
-0.00719597
-0.0434507
0.018953
-0.040615
0.0443812
-0.0348602
0.067945
-0.0261655
0.088257
-0.014856
0.10369
-0.00181478
0.112572
0.0114511
0.113643
0.0233335
0.106722
0.0327699
0.0928439
0.0393086
0.0736301
0.0428956
0.0507478
0.0437067
0.025658
0.0420302
-0.000438151
0.0381968
-0.0264837
0.0325427
-0.0513433
0.0254097
-0.0737383
0.0171591
-0.0922421
0.00817587
-0.105382
-0.11187
-0.016267
-0.0964609
-0.0298447
-0.0891426
-0.0417721
-0.0761994
-0.0514122
-0.0588829
-0.0582577
-0.0385408
-0.0619227
-0.0164466
-0.0621236
0.00626227
-0.0586714
0.028575
-0.051495
0.0495281
-0.0407198
0.0680528
-0.0267796
0.0829307
-0.0105329
0.0928961
0.00669052
0.0968832
0.023296
0.094383
0.0378623
0.0857274
0.0494224
0.0718899
0.0574553
0.0541169
0.0617756
0.0336516
0.0624181
0.0115961
0.0595488
-0.0110756
0.0534289
-0.033385
0.0444165
-0.0542343
0.032986
-0.0723862
0.0197415
-0.0865048
0.00540384
-0.095296
-0.0092338
-0.0977683
-0.0233622
-0.093588
-0.0362015
-0.0832996
-0.0470583
-0.0680065
-0.0553629
-0.0490343
-0.0606734
-0.0277019
-0.0626592
-0.00521021
-0.0610834
0.0173772
-0.055808
0.0391058
-0.0468442
0.0589812
-0.0344503
0.0758632
-0.0192508
0.0884902
-0.00233393
0.0956554
0.0147964
0.0965125
0.0305747
0.0909433
0.0437854
0.0796333
0.0536873
0.0637282
0.0599364
0.0444987
0.0624671
0.0231274
0.0613853
0.000643607
0.0569029
-0.0220012
0.0493263
-0.0437667
0.0390692
-0.0634812
0.0266705
-0.0798434
0.0127972
-0.0915087
-0.0972878
-0.0216199
-0.0772116
-0.0395155
-0.0712469
-0.0549838
-0.0607312
-0.0671552
-0.0467115
-0.0753923
-0.0303037
-0.0792799
-0.012559
-0.0786004
0.0055827
-0.0733099
0.0232846
-0.063539
0.0397571
-0.0496528
0.0541667
-0.0323346
0.0656125
-0.0126415
0.073203
0.0080207
0.0762209
0.0280733
0.0743304
0.0460497
0.067751
0.060807
0.0571327
0.0715799
0.0433439
0.0779379
0.0272936
0.0797038
0.00983023
0.0768842
-0.00825611
0.0696532
-0.026154
0.0583745
-0.0429556
0.0436279
-0.0576396
0.0262245
-0.0691013
0.00719029
-0.0762618
-0.0122974
-0.0782806
-0.0310169
-0.0748685
-0.0478214
-0.066495
-0.0617372
-0.0540908
-0.0720138
-0.0387578
-0.0781303
-0.0215854
-0.0797754
-0.00356508
-0.0768217
0.0144235
-0.0693049
0.0315889
-0.0574582
0.0471345
-0.0417893
0.0601943
-0.0231566
0.0698576
-0.00279465
0.0752934
0.0177768
0.075941
0.0369983
0.0717217
0.0535437
0.063088
0.0664528
0.0508191
0.0751309
0.0358206
0.0792804
0.0189779
0.0788193
0.00110478
0.0738296
-0.0170116
0.0645747
-0.0345119
0.051522
-0.0504285
0.035366
-0.0636874
0.0170304
-0.0731731
-0.0778869
-0.0261297
-0.0539462
-0.0476522
-0.0497243
-0.066082
-0.0423013
-0.0803601
-0.0324334
-0.089746
-0.0209178
-0.0938044
-0.00850052
-0.0923754
0.00415374
-0.0855405
0.0164497
-0.0736049
0.0278215
-0.0571354
0.0376972
-0.0370079
0.045485
-0.0144242
0.0506193
0.00914272
0.052654
0.0320931
0.05138
0.0529093
0.0469348
0.0703206
0.0397214
0.0833766
0.030288
0.0914441
0.0192261
0.0941626
0.00711175
0.0914004
-0.00549387
0.0832561
-0.0180097
0.0700945
-0.029794
0.0525776
-0.0401227
0.0316845
-0.0482082
0.00869616
-0.0532736
-0.0148797
-0.0547047
-0.0374616
-0.0522866
-0.0575896
-0.046367
-0.0740573
-0.0376231
-0.0859691
-0.026846
-0.0927435
-0.0148109
-0.0940886
-0.00222003
-0.0899705
0.0103054
-0.0805766
0.022195
-0.0663312
0.032889
-0.0479435
0.0418066
-0.0264464
0.0483605
-0.00318213
0.0520292
0.0202935
0.0524654
0.0423955
0.0496197
0.0617108
0.0437726
0.0771193
0.0354105
0.0878275
0.0251124
0.0933402
0.0134651
0.0934112
0.00103379
0.0880126
-0.0116129
0.0773684
-0.0238677
0.0619863
-0.0350464
0.0426844
-0.0443855
0.0205976
-0.0510863
-0.054425
-0.0294232
-0.0277483
-0.0535881
-0.0255594
-0.0741714
-0.021718
-0.089983
-0.0166218
-0.100214
-0.0106863
-0.104418
-0.00429743
-0.102468
0.00220374
-0.0945273
0.00850942
-0.0810271
0.0143213
-0.0626773
0.0193474
-0.0404872
0.023295
-0.0157575
0.0258895
0.00998037
0.0269162
0.0350869
0.0262734
0.0579933
0.0240284
0.0773395
0.0203751
0.0920485
0.015579
0.101344
0.009931
0.104732
0.00372289
0.10199
-0.00275152
0.0931692
-0.00918881
0.0786354
-0.0152602
0.0591046
-0.0205919
0.0356706
-0.0247742
0.00979648
-0.0273994
-0.0167661
-0.0281422
-0.0421652
-0.0268874
-0.0647114
-0.0238208
-0.0830341
-0.0193004
-0.09614
-0.0137401
-0.103408
-0.00754259
-0.104559
-0.00106949
-0.099615
0.00536158
-0.0888695
0.0114495
-0.0728842
0.0169037
-0.0525103
0.0214327
-0.0288989
0.024749
-0.0034707
0.026601
0.0221737
0.0268211
0.0464084
0.025385
0.0677526
0.0224285
0.0849772
0.0181859
0.0971503
0.0129393
0.103635
0.00698078
0.104067
0.000601075
0.0983524
-0.00589804
0.0866903
-0.0122056
0.069614
-0.01797
0.0480241
-0.0227955
0.0232028
-0.0262651
-0.0279968
-0.0311648
-0.0567242
-0.0784422
-0.095064
-0.10575
-0.110048
-0.107844
-0.0993346
-0.0850133
-0.0656659
-0.042371
-0.0164815
0.0104347
0.0367082
0.0607365
0.0811117
0.0966907
0.106622
0.110345
0.107593
0.0984042
0.083144
0.0625521
0.037778
0.0103785
-0.0177637
-0.0446511
-0.0684719
-0.0877723
-0.101512
-0.109055
-0.110125
-0.104763
-0.0933134
-0.0764097
-0.054977
-0.0302279
-0.00362694
0.0231941
0.0485791
0.0710076
0.0891935
0.102133
0.109114
0.109715
0.103817
0.091611
0.073641
0.0508454
0.0245804
)
;

boundaryField
{
    top
    {
        type            calculated;
        value           nonuniform List<scalar> 
51
(
0
0
0
0
0
0
0
0
0
0
0
0
0
0
0
0
1.73472e-18
0
0
0
0
8.67362e-19
0
0
4.33681e-19
0
4.33681e-19
0
0
0
0
0
0
0
0
0
0
0
0
0
0
0
0
0
0
0
0
0
0
0
0
)
;
    }
    bottom
    {
        type            calculated;
        value           uniform 0;
    }
    frontAndBack
    {
        type            empty;
        value           nonuniform 0();
    }
    left_cyc
    {
        type            cyclic;
        value           nonuniform List<scalar> 
15
(
-0.00266147
-0.00295094
-0.00279427
-0.00245446
-0.00198413
-0.00143002
-0.000821188
-0.000177853
0.000483691
0.00114574
0.00178499
0.00237051
0.00286427
0.00322532
0.00341644
)
;
    }
    right_cyc
    {
        type            cyclic;
        value           nonuniform List<scalar> 
15
(
0.00266147
0.00295094
0.00279427
0.00245446
0.00198413
0.00143002
0.000821188
0.000177853
-0.000483691
-0.00114574
-0.00178499
-0.00237051
-0.00286427
-0.00322532
-0.00341644
)
;
    }
}


// ************************************************************************* //
