/*--------------------------------*- C++ -*----------------------------------*\
| =========                 |                                                 |
| \\      /  F ield         | OpenFOAM: The Open Source CFD Toolbox           |
|  \\    /   O peration     | Version:  2.3.0                                 |
|   \\  /    A nd           | Web:      www.OpenFOAM.org                      |
|    \\/     M anipulation  |                                                 |
\*---------------------------------------------------------------------------*/
FoamFile
{
    version     2.0;
    format      ascii;
    class       surfaceScalarField;
    location    "25000";
    object      phi;
}
// * * * * * * * * * * * * * * * * * * * * * * * * * * * * * * * * * * * * * //

dimensions      [0 3 -1 0 0 0 0];

internalField   nonuniform List<scalar> 
5988
(
0.00800846
-0.00872238
0.0165013
-0.00849285
0.0245116
-0.00801026
0.0317915
-0.00727994
0.0381052
-0.00631366
0.0432434
-0.00513822
0.047052
-0.00380859
0.0494744
-0.00242242
0.0505947
-0.00112031
0.050637
-4.22641e-05
0.0498957
0.000741329
0.0486133
0.0012824
0.046895
0.00171823
0.0447147
0.00218033
0.0419764
0.00273828
0.0386016
0.0033748
0.0345854
0.00401622
0.0299811
0.00460426
0.0249378
0.00504336
0.0197903
0.0051475
0.0149035
0.00488677
0.0105655
0.00433796
0.00692515
0.00364038
0.00395118
0.00297397
0.00145669
0.00249449
-0.000837507
0.0022942
-0.00324349
0.00240598
-0.00605436
0.00281087
-0.00948868
0.00343432
-0.0136254
0.00413672
-0.0183628
0.00473745
-0.0234447
0.00508189
-0.0285259
0.00508115
-0.0332406
0.00471468
-0.0373893
0.00414878
-0.0409041
0.00351478
-0.0437703
0.00286617
-0.0460487
0.00227844
-0.0478375
0.00178879
-0.0491871
0.00134962
-0.0500293
0.000842111
-0.0501553
0.000126084
-0.0492772
-0.000878161
-0.047146
-0.00213119
-0.0436415
-0.00350453
-0.0387894
-0.0048521
-0.0327247
-0.00606469
-0.0256467
-0.00707801
-0.0177871
-0.00785957
-0.0093923
-0.00839478
-0.00071509
-0.00867721
0.00798854
-0.00870363
0.0164622
-0.00847363
0.0244522
-0.00799007
0.0317107
-0.00725844
0.0380016
-0.00629089
0.0431164
-0.00511486
0.0469027
-0.00378628
0.0493066
-0.00240392
0.0504154
-0.00110877
0.0504545
-3.91292e-05
0.0497163
0.000738254
0.0484382
0.00127805
0.0467208
0.00171746
0.0445346
0.00218615
0.0417838
0.00275081
0.0383925
0.00339135
0.0343591
0.0040334
0.0297395
0.00461952
0.0246906
0.00504895
0.0195535
0.00513709
0.0146905
0.00486299
0.0103853
0.0043052
0.00677938
0.00360593
0.00383357
0.0029458
0.00135539
0.00247819
-0.000937004
0.00229239
-0.00335593
0.00241893
-0.00619247
0.00283653
-0.00966029
0.00346783
-0.0138308
0.00417051
-0.0185946
0.00476377
-0.02369
0.00509539
-0.0287689
0.00507895
-0.0334695
0.00470062
-0.0376011
0.00413154
-0.0410987
0.00349762
-0.0439509
0.00285226
-0.0462218
0.00227085
-0.0480099
0.00178806
-0.0493631
0.00135329
-0.0502088
0.000845632
-0.050333
0.000124246
-0.0494447
-0.000888351
-0.0472957
-0.00214895
-0.0437689
-0.00352682
-0.038893
-0.00487592
-0.0328048
-0.00608813
-0.0257047
-0.00710017
-0.0178244
-0.00788031
-0.00941001
-0.00841435
-0.00869609
0.00665418
-0.0159524
0.0137668
-0.0156054
0.0206395
-0.014883
0.0271702
-0.0138106
0.0332898
-0.0124333
0.0389757
-0.0108241
0.044257
-0.00908992
0.0492017
-0.00736716
0.0538694
-0.00578793
0.0582456
-0.0044185
0.0622004
-0.0032135
0.065516
-0.00203315
0.0679506
-0.000716365
0.0692604
0.000870456
0.0691886
0.00281009
0.067468
0.00509541
0.063912
0.00757228
0.0584999
0.0100163
0.0514196
0.0121237
0.0431674
0.0133997
0.034395
0.0136592
0.0257553
0.0129776
0.0177413
0.0116544
0.0105345
0.0101808
0.00399001
0.009039
-0.00226025
0.00854446
-0.00867153
0.00881726
-0.0156493
0.00978861
-0.0234133
0.0111983
-0.0318781
0.0126016
-0.040627
0.0134863
-0.0490328
0.0134877
-0.0564414
0.0124898
-0.0622866
0.0105599
-0.0663062
0.00816834
-0.0684712
0.00567981
-0.0689259
0.00332092
-0.0679265
0.00127902
-0.0657351
-0.000402663
-0.0625982
-0.00178724
-0.0587597
-0.00299642
-0.0544482
-0.00418541
-0.0498219
-0.00550448
-0.044925
-0.00702807
-0.0397123
-0.00871724
-0.0341131
-0.0104512
-0.0280869
-0.0120909
-0.0216442
-0.0135207
-0.0148441
-0.0146597
-0.00778214
-0.0154567
-0.000577168
-0.0158822
0.00664117
-0.015922
0.0137423
-0.0155748
0.0206041
-0.0148519
0.0271249
-0.0137792
0.0332364
-0.0124024
0.0389169
-0.0107953
0.0441963
-0.00906573
0.0491425
-0.00735012
0.0538127
-0.00577901
0.0581889
-0.00441526
0.0621373
-0.00321014
0.0654382
-0.00202285
0.0678489
-0.000693305
0.0691246
0.00091047
0.0690068
0.00286862
0.0672292
0.00516899
0.0636109
0.00765171
0.0581386
0.0100918
0.051011
0.0121766
0.0427371
0.013411
0.0339697
0.0136303
0.0253595
0.0129154
0.0173882
0.0115773
0.0102216
0.0101123
0.00370217
0.00899765
-0.00254516
0.00853972
-0.00897636
0.00885012
-0.0159914
0.00985158
-0.0237985
0.0112749
-0.0322969
0.0126689
-0.0410569
0.0135238
-0.0494467
0.0134852
-0.0568131
0.0124454
-0.0625997
0.0104872
-0.0665567
0.00808855
-0.0686628
0.00560368
-0.0690685
0.00325802
-0.0680321
0.00123436
-0.0658142
-0.000429763
-0.0626605
-0.0018005
-0.0588135
-0.00300134
-0.0545005
-0.00418871
-0.0498764
-0.00551244
-0.0449814
-0.00704399
-0.0397674
-0.00874077
-0.0341634
-0.0104799
-0.0281294
-0.0121221
-0.0216769
-0.0135526
-0.0148659
-0.0146913
-0.0077925
-0.0154878
-0.0159127
0.00634141
-0.0228411
0.0131477
-0.0224117
0.0197871
-0.0215225
0.0261897
-0.0202132
0.0323048
-0.0185484
0.0381002
-0.0166195
0.043553
-0.0145427
0.0486298
-0.012444
0.0532658
-0.0104239
0.0573616
-0.00851439
0.0608087
-0.00666051
0.0635242
-0.0047487
0.0654702
-0.00266235
0.066654
-0.000313327
0.0671148
0.00234926
0.066862
0.00534824
0.0657229
0.00871138
0.0632853
0.0124539
0.0590604
0.0163486
0.052683
0.0197771
0.0442685
0.0220737
0.0346269
0.0226193
0.0246824
0.0215989
0.0150232
0.0198399
0.00578226
0.01828
-0.0032413
0.017568
-0.012379
0.017955
-0.0218889
0.0192985
-0.0317515
0.021061
-0.0415099
0.0223599
-0.0503084
0.0222848
-0.057242
0.0204212
-0.0619925
0.0172403
-0.0648356
0.0134029
-0.0662485
0.00958129
-0.0666817
0.00611294
-0.0663789
0.00301815
-0.0653631
0.000263218
-0.0635936
-0.00217214
-0.0610524
-0.00432848
-0.0577656
-0.00628323
-0.0538052
-0.00814579
-0.0492761
-0.0100335
-0.0442838
-0.0120204
-0.0389035
-0.0140976
-0.033176
-0.0161787
-0.0271258
-0.0181411
-0.0207823
-0.0198642
-0.0141918
-0.0212503
-0.00742007
-0.0222284
-0.000548821
-0.0227534
0.00633159
-0.0228024
0.0131299
-0.0223731
0.019762
-0.021484
0.0261582
-0.0201754
0.0322679
-0.0185122
0.038059
-0.0165864
0.043508
-0.0145147
0.0485801
-0.0124222
0.0532089
-0.0104078
0.057294
-0.00850041
0.0607269
-0.00664306
0.0634261
-0.00472198
0.0653546
-0.00262181
0.0665212
-0.000256108
0.0669655
0.0024243
0.066693
0.00544148
0.0655207
0.00882402
0.0630293
0.0125832
0.0587305
0.0164753
0.0522711
0.0198705
0.0437968
0.0221046
0.0341371
0.0225751
0.0242076
0.0215068
0.0145757
0.0197443
0.00535485
0.0182185
-0.0036661
0.0175607
-0.0128199
0.0180039
-0.0223562
0.0193879
-0.0322382
0.0211569
-0.0419874
0.0224181
-0.0507356
0.022272
-0.0575887
0.0203383
-0.0622617
0.0171184
-0.065046
0.0132714
-0.0664211
0.00946369
-0.0668323
0.00601491
-0.0665128
0.00293846
-0.0654798
0.000201363
-0.0636926
-0.00221697
-0.0611344
-0.00435873
-0.0578326
-0.00630309
-0.0538604
-0.00816086
-0.0493232
-0.0100496
-0.0443256
-0.0120417
-0.0389412
-0.0141252
-0.0332095
-0.0162117
-0.0271541
-0.0181775
-0.0208042
-0.0199025
-0.0142064
-0.0212892
-0.00742677
-0.0222674
-0.0227923
0.00607791
-0.0294428
0.0126159
-0.0289497
0.0190239
-0.0279305
0.0252433
-0.0264326
0.0312234
-0.0245284
0.0369166
-0.0223127
0.0422689
-0.019895
0.0472079
-0.017383
0.05164
-0.014856
0.0554636
-0.012338
0.0585939
-0.00979081
0.0609807
-0.00713554
0.0626077
-0.00428931
0.0634824
-0.00118802
0.0636232
0.00220842
0.0630481
0.0059234
0.0617842
0.00997529
0.0598755
0.0143625
0.0571968
0.0190274
0.0531477
0.0238262
0.0469953
0.0282261
0.0385285
0.0310861
0.0284528
0.0316745
0.0177373
0.0305554
0.0069283
0.029089
-0.00384799
0.0283443
-0.0146322
0.0287392
-0.0253736
0.0300398
-0.035668
0.0313554
-0.0446396
0.0313315
-0.0514113
0.0290566
-0.0559505
0.0249604
-0.0588993
0.0201891
-0.0609621
0.0154657
-0.0623755
0.0109947
-0.0631113
0.00684876
-0.0631352
0.00304201
-0.0624295
-0.000442442
-0.060976
-0.00362566
-0.0587632
-0.00654127
-0.0558006
-0.00924582
-0.0521292
-0.0118172
-0.0478256
-0.0143371
-0.0429894
-0.0168566
-0.0377187
-0.0193682
-0.0320923
-0.0218052
-0.0261686
-0.0240647
-0.0199967
-0.0260362
-0.0136263
-0.0276207
-0.00711429
-0.0287404
-0.000525465
-0.0293423
0.0060703
-0.0293981
0.0126026
-0.0289053
0.0190052
-0.0278866
0.0252197
-0.0263898
0.0311951
-0.0244876
0.0368834
-0.0222748
0.0422297
-0.019861
0.0471606
-0.0173531
0.0515816
-0.0148288
0.0553913
-0.01231
0.0585055
-0.00975725
0.0608751
-0.00709156
0.0624843
-0.00423108
0.0633413
-0.00111307
0.0634643
0.00230132
0.0628709
0.00603482
0.0615894
0.0101055
0.0596626
0.01451
0.0569497
0.0191882
0.0528317
0.0239885
0.0465866
0.0283497
0.0380392
0.0311224
0.0279278
0.0316182
0.0172095
0.0304626
0.00640658
0.0290213
-0.00436844
0.0283357
-0.0151578
0.0287933
-0.0258997
0.0301298
-0.0361677
0.031425
-0.0450681
0.0313184
-0.0517457
0.0289496
-0.0562086
0.0248012
-0.0591158
0.0200256
-0.0611585
0.0153141
-0.0625544
0.0108596
-0.0632719
0.00673239
-0.0632777
0.00294421
-0.0625541
-0.000522208
-0.0610827
-0.0036884
-0.0588523
-0.00658913
-0.055873
-0.00928233
-0.0521868
-0.0118471
-0.0478713
-0.0143652
-0.0430262
-0.0168868
-0.037749
-0.0194023
-0.0321174
-0.0218433
-0.0261889
-0.0241059
-0.020012
-0.0260794
-0.0136362
-0.0276649
-0.00711853
-0.0287851
-0.029387
0.0057887
-0.0357284
0.0120193
-0.0351803
0.0181357
-0.0340469
0.0240817
-0.0323786
0.0298025
-0.0302492
0.0352402
-0.0277504
0.0403275
-0.0249823
0.0449831
-0.0220386
0.049114
-0.0189869
0.0526286
-0.0158527
0.0554544
-0.0126165
0.0575484
-0.0092296
0.0588958
-0.00563669
0.0595008
-0.00179302
0.0593793
0.00232995
0.0585565
0.00674618
0.0570719
0.0114599
0.0549697
0.0164647
0.0522656
0.0217315
0.0489032
0.0271886
0.0445115
0.0326178
0.0381583
0.0374393
0.0293808
0.040452
0.018847
0.0410892
0.00748468
0.0404513
-0.00412601
0.039955
-0.015587
0.0402002
-0.0264017
0.0408545
-0.035738
0.0406918
-0.0427412
0.0383347
-0.0475567
0.0338721
-0.0511186
0.0285223
-0.0539677
0.0230383
-0.0562085
0.0177065
-0.0578376
0.0126237
-0.0588156
0.00782677
-0.0591
0.00332643
-0.0586629
-0.00087953
-0.0574868
-0.00480177
-0.0555643
-0.00846382
-0.0529048
-0.0119053
-0.0495435
-0.0151785
-0.0455458
-0.0183348
-0.041
-0.0214025
-0.0360004
-0.0243678
-0.0306325
-0.0271731
-0.0249675
-0.0297297
-0.0190656
-0.0319381
-0.0129824
-0.0337039
-0.00677387
-0.0349489
-0.000498665
-0.0356175
0.0057825
-0.0356793
0.0120086
-0.0351315
0.0181207
-0.0339987
0.0240623
-0.0323314
0.0297783
-0.0302036
0.0352103
-0.0277068
0.0402902
-0.024941
0.0449361
-0.021999
0.0490546
-0.0189473
0.0525542
-0.0158097
0.0553633
-0.0125663
0.0574397
-0.00916796
0.058769
-0.00556042
0.0593559
-0.00169994
0.0592162
0.00244097
0.0583756
0.00687545
0.0568739
0.0116072
0.0547548
0.0166291
0.0520324
0.0219106
0.048644
0.0273768
0.044194
0.0327997
0.0377423
0.0375741
0.0288736
0.0404869
0.0182928
0.0410435
0.00691402
0.0404001
-0.00469772
0.0399474
-0.0161461
0.0402416
-0.0269224
0.0409061
-0.036177
0.0406796
-0.0430778
0.0382192
-0.0478233
0.0336951
-0.0513549
0.0283327
-0.0541847
0.0228554
-0.0564082
0.0175377
-0.0580202
0.0124716
-0.0589804
0.00769253
-0.0592465
0.00321038
-0.0587911
-0.000977598
-0.0575968
-0.00488275
-0.0556563
-0.00852964
-0.0529796
-0.011959
-0.0496027
-0.0152239
-0.0455918
-0.0183762
-0.0410354
-0.0214431
-0.0360279
-0.0244099
-0.0306539
-0.0272173
-0.0249838
-0.029776
-0.0190773
-0.0319859
-0.0129896
-0.0337526
-0.00677666
-0.0349981
-0.0356667
0.00546191
-0.0416558
0.0113369
-0.0410553
0.0171021
-0.039812
0.0227001
-0.0379766
0.0280722
-0.0356213
0.033155
-0.0328332
0.0378773
-0.0297046
0.0421588
-0.0263201
0.0459148
-0.0227429
0.0490663
-0.0190041
0.0515518
-0.015102
0.0533341
-0.0110119
0.0543986
-0.00670123
0.0547473
-0.00214173
0.054393
0.00268431
0.053357
0.00778221
0.0516713
0.0131455
0.0493807
0.0187553
0.0465378
0.0245744
0.043183
0.0305434
0.0392418
0.0365589
0.0343058
0.0423753
0.0274411
0.0473167
0.0182341
0.0502961
0.00739489
0.0512906
-0.00405204
0.0514019
-0.0151488
0.0512969
-0.0248961
0.0506019
-0.0324097
0.0482053
-0.0377664
0.0436915
-0.0419045
0.0380102
-0.0453856
0.0320033
-0.0483489
0.0260016
-0.0507717
0.0201293
-0.0526009
0.014453
-0.0537897
0.00901551
-0.0543028
0.00383958
-0.0541171
-0.0010653
-0.0532179
-0.0057009
-0.0516007
-0.010081
-0.0492755
-0.0142305
-0.0462734
-0.0181806
-0.0426498
-0.0219583
-0.0384804
-0.0255719
-0.0338497
-0.0289985
-0.0288401
-0.0321826
-0.0235257
-0.0350441
-0.0179721
-0.0374917
-0.0122393
-0.0394367
-0.00638511
-0.0408031
-0.000467136
-0.0415354
0.00545654
-0.041603
0.0113278
-0.0410027
0.017089
-0.0397599
0.0226827
-0.0379251
0.0280496
-0.0355705
0.0331261
-0.0327832
0.0378401
-0.0296551
0.0421112
-0.02627
0.0458542
-0.0226903
0.0489906
-0.0189461
0.0514596
-0.0150352
0.0532244
-0.0109328
0.0542711
-0.00660708
0.0546017
-0.0020306
0.0542293
0.0028134
0.0531753
0.0079294
0.0514724
0.0133102
0.0491654
0.0189361
0.0463071
0.0247689
0.042936
0.030748
0.0389684
0.0367672
0.0339734
0.0425691
0.0270083
0.0474521
0.0177114
0.0503404
0.00682674
0.0512847
-0.00462448
0.0513987
-0.0156855
0.0513026
-0.0253523
0.050573
-0.0327624
0.0480896
-0.0380479
0.0435048
-0.0421546
0.0378018
-0.045618
0.0317962
-0.0485661
0.0258035
-0.0509725
0.0199441
-0.0527845
0.0142836
-0.0539552
0.00886327
-0.0544501
0.0037053
-0.0542462
-0.00118158
-0.0533289
-0.00579998
-0.051694
-0.0101646
-0.0493517
-0.0143012
-0.0463339
-0.0182417
-0.0426968
-0.0220133
-0.0385161
-0.0256237
-0.0338766
-0.0290494
-0.0288602
-0.0322338
-0.0235403
-0.0350959
-0.0179821
-0.0375441
-0.0122452
-0.0394895
-0.00638718
-0.0408561
-0.0415884
0.00508975
-0.047174
0.0105554
-0.046521
0.0159101
-0.0451668
0.0210949
-0.0431614
0.0260487
-0.0405751
0.0307066
-0.0374912
0.0349989
-0.0339968
0.0388512
-0.0301724
0.0421892
-0.026081
0.0449462
-0.0217611
0.0470705
-0.0172263
0.0485297
-0.0124711
0.0493099
-0.00748145
0.0494117
-0.00224354
0.0488463
0.00324973
0.0476335
0.00899496
0.0458026
0.0149765
0.0433926
0.0211652
0.0404514
0.0275157
0.0370291
0.0339656
0.0331531
0.040435
0.0287177
0.0468107
0.0232295
0.0528049
0.0158685
0.0576572
0.00658753
0.0605715
-0.00358534
0.0615748
-0.0132441
0.0609556
-0.0211836
0.0585414
-0.0271178
0.0541395
-0.0317633
0.0483369
-0.0357588
0.0420057
-0.0392896
0.0355341
-0.0423479
0.02906
-0.044886
0.0226673
-0.0468551
0.0164221
-0.0482138
0.0103742
-0.0489307
0.00455647
-0.048984
-0.00101192
-0.0483609
-0.00632403
-0.0470581
-0.0113839
-0.0450856
-0.016203
-0.042471
-0.0207952
-0.0392613
-0.0251681
-0.0355201
-0.0293131
-0.0313207
-0.0331978
-0.0267383
-0.036765
-0.0218444
-0.039938
-0.0167055
-0.0426307
-0.0113838
-0.0447584
-0.00593901
-0.0462479
-0.00042999
-0.0470445
0.00508482
-0.0471178
0.010547
-0.0464649
0.0158978
-0.0451107
0.0210781
-0.0431054
0.0260265
-0.0405189
0.0306776
-0.0374344
0.0349612
-0.0339387
0.0388028
-0.0301116
0.042128
-0.0260156
0.0448704
-0.0216885
0.0469786
-0.0171434
0.0484209
-0.0123751
0.0491838
-0.00736996
0.0492681
-0.00211487
0.0486851
0.0033964
0.0474549
0.00915957
0.045607
0.0151581
0.0431809
0.0213622
0.0402245
0.0277253
0.0367879
0.0341846
0.0328958
0.0406593
0.0284316
0.0470334
0.0228784
0.0530053
0.0154249
0.0577939
0.00607756
0.060632
-0.00410256
0.0615788
-0.0137071
0.0609072
-0.0215551
0.058421
-0.0274139
0.0539484
-0.0320243
0.0481151
-0.036002
0.0417796
-0.0395182
0.0353124
-0.0425615
0.0288468
-0.0450835
0.0224661
-0.0470357
0.0162357
-0.0483769
0.0102045
-0.049076
0.00440448
-0.0491117
-0.00114592
-0.048471
-0.00644066
-0.047151
-0.0114846
-0.0451621
-0.0162901
-0.0425323
-0.0208715
-0.0393092
-0.0252365
-0.0355566
-0.0293763
-0.0313481
-0.033258
-0.0267583
-0.0368235
-0.0218586
-0.0399956
-0.0167149
-0.0426878
-0.0113892
-0.0448152
-0.00594086
-0.0463044
-0.0471008
0.00467287
-0.0522328
0.0096781
-0.0515262
0.01457
-0.0500587
0.0192884
-0.0478798
0.0237718
-0.0450585
0.0279565
-0.0416759
0.031777
-0.0378172
0.0351667
-0.0335621
0.038062
-0.0289764
0.0404076
-0.0241066
0.0421607
-0.0189794
0.0432947
-0.013605
0.0437977
-0.00798444
0.0436706
-0.00211648
0.0429243
0.00399604
0.0415779
0.0103413
0.0396588
0.0168956
0.0372026
0.0236214
0.0342519
0.0304664
0.0308536
0.0373639
0.0270513
0.0442372
0.0228564
0.0510056
0.0181249
0.0575364
0.0123642
0.063418
0.00519722
0.0677384
-0.00279326
0.0695653
-0.0102982
0.0684606
-0.0164467
0.06469
-0.0213998
0.0590926
-0.0257102
0.0526474
-0.0296078
0.0459032
-0.0331068
0.0390331
-0.0361679
0.032121
-0.0387442
0.0252437
-0.0407921
0.0184701
-0.0422744
0.0118564
-0.0431617
0.00544382
-0.0434333
-0.000740311
-0.0430765
-0.00668081
-0.0420881
-0.0123723
-0.0404764
-0.0178147
-0.0382645
-0.0230071
-0.0354911
-0.0279414
-0.0322091
-0.0325951
-0.0284806
-0.0369263
-0.0243721
-0.0408736
-0.01995
-0.0443602
-0.0152787
-0.0473019
-0.0104208
-0.0496163
-0.00543695
-0.0512317
-0.000387378
-0.052094
0.00466817
-0.0521733
0.00966992
-0.0514666
0.014558
-0.0499988
0.0192717
-0.0478192
0.0237494
-0.0449966
0.0279271
-0.0416121
0.0317388
-0.0377504
0.035118
-0.0334908
0.0380011
-0.0288986
0.0403327
-0.0240201
0.0420707
-0.0188815
0.0431887
-0.0134931
0.0436753
-0.00785657
0.0435317
-0.00197121
0.0427688
0.00415932
0.041406
0.0105224
0.0394709
0.0170933
0.0369993
0.0238337
0.0340342
0.0306904
0.0306224
0.0375964
0.026807
0.0444746
0.0225961
0.0512443
0.0178334
0.0577681
0.012013
0.0636142
0.0047882
0.0678569
-0.00320975
0.0695767
-0.0106647
0.0683621
-0.0167495
0.0645058
-0.0216645
0.0588634
-0.0259568
0.0524074
-0.0298408
0.0456636
-0.0333264
0.0387979
-0.036373
0.0318935
-0.0389341
0.0250272
-0.040966
0.0182676
-0.0424317
0.0116702
-0.0433024
0.0052751
-0.0435572
-0.000891064
-0.0431838
-0.00681404
-0.0421792
-0.0124893
-0.040552
-0.0179173
-0.0383257
-0.0230978
-0.0355395
-0.0280227
-0.0322464
-0.0326694
-0.0285087
-0.0369957
-0.0243927
-0.0409395
-0.0199645
-0.0444238
-0.0152883
-0.047364
-0.0104263
-0.0496773
-0.00543886
-0.0512918
-0.0521537
0.00421483
-0.0567862
0.00871389
-0.0560252
0.0130983
-0.0544431
0.0173078
-0.0520893
0.0212821
-0.0490327
0.0249606
-0.0453544
0.0282835
-0.04114
0.0311925
-0.0364711
0.0336344
-0.0314183
0.035564
-0.0260363
0.0369477
-0.0203631
0.0377646
-0.014422
0.0380068
-0.00822663
0.0376772
-0.00178692
0.036788
0.00488525
0.0353591
0.0117703
0.0334175
0.0188371
0.0309975
0.0260414
0.0281397
0.0333242
0.0248904
0.0406133
0.0213001
0.0478275
0.0174217
0.0548839
0.0132785
0.0616796
0.008755
0.0679415
0.00363359
0.0728599
-0.00189919
0.0750981
-0.00718596
0.0737473
-0.0118654
0.0693695
-0.016093
0.0633201
-0.0200394
0.0565938
-0.0237059
0.0495697
-0.0270427
0.0423699
-0.0299983
0.0350766
-0.0325256
0.0277709
-0.0345827
0.0205271
-0.0361339
0.0134076
-0.0371506
0.00646052
-0.0376113
-0.000279607
-0.0375021
-0.00678997
-0.0368179
-0.0130566
-0.0355639
-0.0190687
-0.0337577
-0.0248133
-0.0314298
-0.0302692
-0.0286231
-0.0354018
-0.0253893
-0.0401601
-0.0217858
-0.0444771
-0.0178727
-0.0482732
-0.0137109
-0.0514638
-0.00936099
-0.0539662
-0.00488376
-0.0557089
-0.000339795
-0.056638
0.00421027
-0.0567234
0.0087058
-0.0559622
0.0130862
-0.0543792
0.017291
-0.0520239
0.0212595
-0.0489651
0.0249311
-0.0452836
0.0282454
-0.0410647
0.0311444
-0.0363898
0.0335747
-0.0313289
0.0354914
-0.0259368
0.0368611
-0.0202511
0.0376634
-0.0142954
0.0378905
-0.00808371
0.0375457
-0.00162645
0.0366414
0.00506369
0.0351975
0.0119662
0.0332415
0.0190493
0.0308078
0.0262674
0.0279371
0.0335611
0.024676
0.0408575
0.0210752
0.0480755
0.0171873
0.0551322
0.0130323
0.061923
0.00848581
0.0681607
0.00333678
0.0730059
-0.00220009
0.0751136
-0.00746197
0.073624
-0.0121154
0.0691592
-0.0163292
0.0630773
-0.0202658
0.056344
-0.0239218
0.0493197
-0.027247
0.042123
-0.0301898
0.0348363
-0.0327034
0.0275408
-0.034746
0.0203103
-0.0362823
0.0132064
-0.0372837
0.00627655
-0.0377291
-0.000445706
-0.0376047
-0.00693844
-0.0369055
-0.0131884
-0.0356373
-0.0191856
-0.0338177
-0.0249173
-0.0314778
-0.0303626
-0.0286605
-0.0354867
-0.0254177
-0.0402385
-0.0218068
-0.0445505
-0.0178876
-0.048343
-0.0137208
-0.0515308
-0.00936673
-0.0540313
-0.00488586
-0.0557727
-0.0567011
0.00372032
-0.0607933
0.00767343
-0.0599783
0.0115129
-0.0582826
0.0151798
-0.0557563
0.0186165
-0.0524695
0.0217671
-0.048505
0.0245778
-0.0439508
0.0269991
-0.0388924
0.0289872
-0.0334063
0.0305065
-0.0275556
0.0315319
-0.0213884
0.0320492
-0.0149392
0.0320551
-0.00823259
0.0315563
-0.00128814
0.0305678
0.00587384
0.0291116
0.0132264
0.0272169
0.0207319
0.0249191
0.0283392
0.0222604
0.0359828
0.0192908
0.043583
0.0160701
0.0510482
0.0126756
0.0582784
0.00920616
0.0651491
0.0057506
0.0713971
0.00231029
0.0763002
-0.00114112
0.0785495
-0.00458739
0.0771936
-0.00803897
0.072821
-0.0115123
0.0667934
-0.0149358
0.0600173
-0.0182073
0.0528413
-0.0212438
0.0454064
-0.0239817
0.0378145
-0.026369
0.0301582
-0.0283619
0.02252
-0.0299233
0.0149691
-0.031023
0.00756016
-0.0316371
0.00033446
-0.0317489
-0.00667813
-0.0313499
-0.0134555
-0.030441
-0.0199777
-0.0290334
-0.0262209
-0.02715
-0.0321527
-0.024824
-0.0377279
-0.0220974
-0.0428867
-0.019019
-0.0475554
-0.0156419
-0.0516504
-0.012022
-0.0550837
-0.00821685
-0.0577713
-0.00428554
-0.0596402
-0.000287859
-0.0606357
0.00371591
-0.0607272
0.00766547
-0.0599117
0.0115009
-0.0582146
0.0151631
-0.0556862
0.0185942
-0.0523962
0.021738
-0.0484273
0.0245407
-0.0438674
0.0269526
-0.0388017
0.02893
-0.0333064
0.0304376
-0.0274444
0.0314504
-0.0212639
0.0319546
-0.0147996
0.0319472
-0.00807628
0.031435
-0.00111424
0.0304331
0.00606552
0.0289641
0.0134352
0.0270572
0.0209562
0.0247479
0.0285767
0.022079
0.0362301
0.0191004
0.0438361
0.0158728
0.051303
0.0124744
0.0585306
0.00900471
0.0653928
0.00555044
0.0716149
0.00210954
0.0764468
-0.00134211
0.0785652
-0.00478751
0.0770694
-0.00823985
0.0726115
-0.0117135
0.0665509
-0.0151337
0.0597641
-0.0183987
0.0525848
-0.0214266
0.0451509
-0.0241543
0.037564
-0.0265303
0.0299167
-0.028511
0.0222909
-0.0300595
0.014755
-0.0311459
0.00736289
-0.0317464
0.000154831
-0.0318447
-0.00684015
-0.0314324
-0.0136007
-0.0305106
-0.0201074
-0.029091
-0.0263369
-0.0271966
-0.032257
-0.0248607
-0.0378225
-0.0221257
-0.0429735
-0.0190401
-0.047636
-0.0156571
-0.0517261
-0.0120321
-0.0551558
-0.00822281
-0.0578407
-0.00428784
-0.0597077
-0.0607021
0.00319403
-0.0642186
0.00656708
-0.0633514
0.00983044
-0.0615459
0.0129282
-0.058854
0.0158067
-0.0553479
0.0184153
-0.0511136
0.0207075
-0.046243
0.0226418
-0.0408267
0.0241834
-0.0349479
0.0253057
-0.0286779
0.0259914
-0.0220742
0.0262334
-0.0151812
0.0260338
-0.00803298
0.0254037
-0.000658061
0.024362
0.00691549
0.0229347
0.0146538
0.0211538
0.0225127
0.0190584
0.0304347
0.0166946
0.0383466
0.0141182
0.0461594
0.0113987
0.0537677
0.00862895
0.0610481
0.00593833
0.0678397
0.00348326
0.0738521
0.0013495
0.0784339
-0.000593162
0.0804921
-0.00265224
0.0792527
-0.00502311
0.0751919
-0.00766622
0.0694365
-0.0104285
0.0627796
-0.0131693
0.0555821
-0.0157869
0.048024
-0.0182066
0.0402343
-0.0203698
0.0323214
-0.0222282
0.0243784
-0.0237412
0.0164821
-0.0248751
0.00869408
-0.0256026
0.00106195
-0.0259031
-0.00637765
-0.0257636
-0.013595
-0.0251797
-0.0205616
-0.0241564
-0.0272442
-0.0227086
-0.0336004
-0.0208609
-0.0395756
-0.0186464
-0.0451012
-0.0161052
-0.0500966
-0.0132832
-0.0544724
-0.0102304
-0.0581365
-0.00700019
-0.0610016
-0.0036483
-0.0629921
-0.000232182
-0.0640518
0.00318985
-0.0641492
0.00655941
-0.0632813
0.00981886
-0.0614741
0.0129121
-0.0587794
0.0157852
-0.0552693
0.0183875
-0.0510296
0.0206722
-0.0461522
0.022598
-0.0407274
0.0241301
-0.0348384
0.025242
-0.0285564
0.0259168
-0.0219387
0.0261474
-0.0150302
0.0259363
-0.00786521
0.0252949
-0.000472844
0.0242423
0.00711813
0.0228046
0.014873
0.0210142
0.0227466
0.0189103
0.0306806
0.0165395
0.0386009
0.0139579
0.0464177
0.0112358
0.0540251
0.00846758
0.0612989
0.00578435
0.068076
0.00334268
0.0740566
0.00122185
0.0785677
-0.000719077
0.0805062
-0.00278937
0.0791397
-0.00517433
0.0749965
-0.00782625
0.0692028
-0.0105911
0.062529
-0.01333
0.0553237
-0.0159428
0.0477637
-0.0183557
0.039977
-0.0205106
0.0320716
-0.0223595
0.0241398
-0.0238622
0.0162577
-0.0249852
0.00848585
-0.0257013
0.000870939
-0.0259902
-0.00655123
-0.0258392
-0.0137517
-0.0252441
-0.0207025
-0.0242101
-0.0273709
-0.0227525
-0.0337146
-0.0208959
-0.0396791
-0.0186736
-0.0451958
-0.0161258
-0.0501838
-0.0132981
-0.0545537
-0.0102405
-0.0582133
-0.00700622
-0.061075
-0.00365074
-0.0630632
-0.0641216
0.00264019
-0.0670314
0.005404
-0.0661152
0.00806533
-0.0642072
0.0105728
-0.0613614
0.012878
-0.0576532
0.0149366
-0.0531723
0.0167094
-0.0480157
0.0181629
-0.0422802
0.0192707
-0.0360558
0.0200145
-0.0294217
0.0203846
-0.0224443
0.0203802
-0.0151768
0.0200093
-0.00766208
0.0192879
6.33356e-05
0.0182393
0.00796405
0.0168936
0.0159996
0.0152867
0.0241196
0.0134615
0.0322599
0.0114684
0.0403397
0.00936803
0.0482598
0.00723551
0.0559002
0.00516848
0.0631151
0.0032968
0.0697114
0.00177065
0.0753783
0.000662437
0.0795421
-0.000203773
0.0813583
-0.00121593
0.0802648
-0.00262905
0.076605
-0.00442275
0.0712302
-0.00645175
0.0648086
-0.00857638
0.0577067
-0.0106907
0.0501384
-0.0127144
0.0422579
-0.0145834
0.0341905
-0.0162452
0.0260401
-0.0176551
0.017892
-0.0187754
0.00981443
-0.0195748
0.00186133
-0.0200283
-0.00592419
-0.020118
-0.0135053
-0.0198341
-0.0208455
-0.0191753
-0.027903
-0.0181491
-0.0346266
-0.0167719
-0.0409527
-0.0150686
-0.0468046
-0.013071
-0.0520941
-0.0108176
-0.0567258
-0.00835179
-0.0606023
-0.00572136
-0.063632
-0.0029774
-0.0657361
-0.000173303
-0.0668559
0.00263635
-0.0669588
0.00539685
-0.0660418
0.00805452
-0.0641317
0.0105577
-0.0612826
0.012858
-0.0575696
0.0149109
-0.0530826
0.0166771
-0.0479183
0.0181231
-0.0421735
0.0192227
-0.035938
0.0199577
-0.0292913
0.0203185
-0.0222995
0.0203047
-0.0150164
0.0199245
-0.00748501
0.0191941
0.000257529
0.0181371
0.00817509
0.0167838
0.0162263
0.0151704
0.02436
0.01334
0.0325109
0.0113435
0.0405974
0.00924191
0.0485193
0.00711121
0.0561557
0.00505032
0.0633598
0.00319072
0.0699356
0.00168246
0.0755648
0.000590728
0.0796594
-0.000273308
0.0813702
-0.00129975
0.0801661
-0.0027314
0.0764281
-0.00453864
0.0710101
-0.00657489
0.0645652
-0.00870209
0.0574509
-0.0108157
0.0498773
-0.0128363
0.0419975
-0.0147004
0.0339358
-0.0163558
0.0257952
-0.0177582
0.0176601
-0.0188702
0.00959786
-0.0196606
0.00166135
-0.0201047
-0.00610714
-0.0201849
-0.0136715
-0.0198916
-0.0209958
-0.0192237
-0.0280388
-0.018189
-0.0347493
-0.0168041
-0.041064
-0.0150939
-0.0469061
-0.0130903
-0.0521874
-0.0108317
-0.0568124
-0.00836147
-0.0606836
-0.00572722
-0.0637092
-0.00297986
-0.0658105
-0.0669288
0.00206239
-0.0692049
0.00419187
-0.0682447
0.0062294
-0.0662448
0.00812959
-0.0632616
0.00985059
-0.0593742
0.0113552
-0.0546769
0.0126115
-0.0492721
0.0135941
-0.0432628
0.0142845
-0.0367461
0.0146717
-0.0298089
0.014753
-0.0225256
0.0145338
-0.0149576
0.0140273
-0.00715565
0.0132544
0.000836269
0.0122426
0.00897589
0.0110255
0.0172166
0.00964292
0.0255022
0.00814053
0.0337623
0.00657139
0.0419088
0.00499772
0.0498334
0.00349421
0.0574037
0.00215259
0.0644568
0.00108444
0.0707795
0.00040256
0.0760602
0.000135116
0.0798096
9.3934e-05
0.0813995
-8.27299e-05
0.0804415
-0.000648856
0.0771712
-0.00162399
0.0722054
-0.00290494
0.0660895
-0.00437517
0.0591769
-0.00593705
0.0517002
-0.00751156
0.0438324
-0.00903346
0.0357124
-0.0104475
0.0274542
-0.0117062
0.0191507
-0.0127684
0.0108766
-0.013599
0.00269186
-0.0141687
-0.00535447
-0.0144552
-0.0132188
-0.0144433
-0.0208573
-0.0141259
-0.0282205
-0.0135037
-0.0352488
-0.0125858
-0.0418706
-0.011389
-0.0480013
-0.00993765
-0.0535455
-0.00826218
-0.0584013
-0.00639894
-0.0624656
-0.00438903
-0.0656419
-0.0022774
-0.0678477
-0.000111678
-0.0690216
0.00205904
-0.0691296
0.00418554
-0.0681683
0.0062198
-0.066166
0.00811624
-0.063179
0.00983293
-0.0592863
0.0113326
-0.0545822
0.0125833
-0.0491691
0.0135596
-0.0431498
0.0142431
-0.0366215
0.0146231
-0.0296713
0.014697
-0.0223735
0.0144705
-0.0147898
0.013957
-0.00697153
0.0131776
0.00103695
0.01216
0.00919262
0.0109384
0.017448
0.00955238
0.025746
0.00804821
0.0340151
0.00647922
0.0421664
0.0049081
0.0500904
0.00341021
0.0576536
0.00207821
0.0646918
0.00102456
0.0709892
0.000361071
0.0762283
0.000109182
0.0799113
6.99721e-05
0.0814094
-0.000120031
0.0803561
-0.000704785
0.0770129
-0.00169553
0.0720008
-0.00298709
0.0658568
-0.00446369
0.0589275
-0.00602866
0.0514423
-0.00760372
0.0435726
-0.00912414
0.0354562
-0.0105351
0.0272062
-0.0117893
0.0189143
-0.0128459
0.0106545
-0.0136701
0.00248547
-0.0142328
-0.00554444
-0.0145119
-0.0133924
-0.0144925
-0.0210151
-0.0141677
-0.0283636
-0.0135385
-0.0353786
-0.0126141
-0.0419884
-0.0114115
-0.0481086
-0.00995489
-0.053644
-0.00827489
-0.0584923
-0.00640774
-0.0625507
-0.00439442
-0.0657225
-0.00227973
-0.0679252
-0.0690974
0.00146371
-0.070716
0.00293718
-0.0697181
0.00433248
-0.0676401
0.00561168
-0.0645408
0.00674059
-0.0605031
0.00768974
-0.055626
0.00843516
-0.0500175
0.00895899
-0.0437866
0.00925006
-0.0370372
0.00930434
-0.0298632
0.00912516
-0.0223464
0.00872327
-0.0145557
0.00811663
-0.00654901
0.00733
0.0016229
0.00639442
0.00991148
0.00534646
0.0182646
0.00422792
0.0266207
0.00308599
0.0349042
0.00197371
0.0430211
0.000951116
0.050856
8.67434e-05
0.0582681
-0.000541233
0.0650847
-0.000848208
0.0710865
-0.000765382
0.0759773
-0.000307161
0.0793514
0.000343593
0.0807488
0.000879661
0.0799054
0.00107027
0.0769805
0.000861569
0.0724141
0.000309491
0.0666416
-0.000501193
0.0599876
-0.00148932
0.0526884
-0.00258353
0.0449266
-0.00372151
0.0368504
-0.00484843
0.0285811
-0.0059156
0.0202179
-0.00687983
0.0118409
-0.0077032
0.00351524
-0.00835324
-0.00470443
-0.0088036
-0.0127684
-0.00903463
-0.0206263
-0.00903385
-0.0282213
-0.00879619
-0.0354865
-0.00832404
-0.0423428
-0.00762701
-0.0486983
-0.00672158
-0.054451
-0.00563054