/*--------------------------------*- C++ -*----------------------------------*\
| =========                 |                                                 |
| \\      /  F ield         | OpenFOAM: The Open Source CFD Toolbox           |
|  \\    /   O peration     | Version:  2.3.0                                 |
|   \\  /    A nd           | Web:      www.OpenFOAM.org                      |
|    \\/     M anipulation  |                                                 |
\*---------------------------------------------------------------------------*/
FoamFile
{
    version     2.0;
    format      ascii;
    class       volVectorField;
    location    "25000";
    object      U;
}
// * * * * * * * * * * * * * * * * * * * * * * * * * * * * * * * * * * * * * //

dimensions      [0 1 -1 0 0 0 0];

internalField   nonuniform List<vector> 
3060
(
(0.61569 0 -0.408662)
(1.56518 0 -0.39457)
(2.49106 0 -0.368629)
(3.37991 0 -0.331514)
(4.21947 0 -0.284321)
(4.99883 0 -0.228896)
(5.70868 0 -0.168131)
(6.34132 0 -0.105938)
(6.89042 0 -0.046674)
(7.35008 0 0.0059013)
(7.7133 0 0.0495427)
(7.97008 0 0.0837513)
(8.10596 0 0.109315)
(8.1014 0 0.127535)
(7.93496 0 0.141198)
(7.58765 0 0.156709)
(7.05431 0 0.179517)
(6.34979 0 0.204996)
(5.51046 0 0.220296)
(4.59389 0 0.217712)
(3.66302 0 0.199947)
(2.7722 0 0.172618)
(1.95685 0 0.14338)
(1.22394 0 0.119122)
(0.556047 0 0.104026)
(-0.078815 0 0.0998007)
(-0.718441 0 0.106806)
(-1.39987 0 0.124428)
(-2.15239 0 0.150439)
(-2.98815 0 0.17992)
(-3.89309 0 0.205565)
(-4.82564 0 0.219923)
(-5.72834 0 0.218018)
(-6.53808 0 0.199003)
(-7.20141 0 0.17311)
(-7.6878 0 0.152193)
(-7.9873 0 0.13784)
(-8.10979 0 0.123336)
(-8.07537 0 0.103289)
(-7.90568 0 0.0755047)
(-7.619 0 0.0387608)
(-7.22859 0 -0.00744361)
(-6.74359 0 -0.0621593)
(-6.17059 0 -0.122672)
(-5.51554 0 -0.184945)
(-4.78514 0 -0.244642)
(-3.98758 0 -0.298082)
(-3.13266 0 -0.342668)
(-2.23173 0 -0.376784)
(-1.29742 0 -0.399476)
(-0.343421 0 -0.410134)
(0.61583 0 -0.408349)
(1.56566 0 -0.394216)
(2.49183 0 -0.368202)
(3.38091 0 -0.330988)
(4.22061 0 -0.28368)
(4.99999 0 -0.228145)
(5.70971 0 -0.167299)
(6.34205 0 -0.105079)
(6.89063 0 -0.045849)
(7.34946 0 0.00664123)
(7.71144 0 0.050172)
(7.96639 0 0.0842687)
(8.0997 0 0.109733)
(8.09163 0 0.127875)
(7.92075 0 0.141562)
(7.56825 0 0.15731)
(7.02964 0 0.180366)
(6.32051 0 0.205719)
(5.47808 0 0.220472)
(4.56044 0 0.217303)
(3.63047 0 0.1991)
(2.74209 0 0.171581)
(1.92983 0 0.142416)
(1.19971 0 0.118426)
(0.533629 0 0.103692)
(-0.100739 0 0.0998578)
(-0.741257 0 0.107249)
(-1.42482 0 0.125216)
(-2.18031 0 0.151449)
(-3.01909 0 0.18093)
(-3.9261 0 0.206309)
(-4.85903 0 0.220185)
(-5.76007 0 0.21766)
(-6.56618 0 0.198192)
(-7.22463 0 0.172306)
(-7.70569 0 0.151674)
(-8.00015 0 0.137506)
(-8.11845 0 0.122982)
(-8.08078 0 0.102842)
(-7.90873 0 0.074952)
(-7.62039 0 0.0380927)
(-7.22887 0 -0.00821987)
(-6.74312 0 -0.0630102)
(-6.16965 0 -0.123541)
(-5.51433 0 -0.18577)
(-4.78384 0 -0.245374)
(-3.98632 0 -0.2987)
(-3.13156 0 -0.343172)
(-2.23086 0 -0.377193)
(-1.29686 0 -0.399818)
(-0.343205 0 -0.410443)
(0.928596 0 -1.66377)
(2.36814 0 -1.64247)
(3.79111 0 -1.60354)
(5.18814 0 -1.54855)
(6.55079 0 -1.4793)
(7.87113 0 -1.39727)
(9.14072 0 -1.30295)
(10.3491 0 -1.19536)
(11.4818 0 -1.07176)
(12.5197 0 -0.927527)
(13.4381 0 -0.756073)
(14.2068 0 -0.548736)
(14.7902 0 -0.295226)
(15.1463 0 0.0138006)
(15.2257 0 0.376408)
(14.9739 0 0.762383)
(14.3482 0 1.11833)
(13.3356 0 1.40278)
(11.9583 0 1.59461)
(10.2966 0 1.68767)
(8.46947 0 1.68236)
(6.59623 0 1.59256)
(4.77183 0 1.4602)
(3.041 0 1.33346)
(1.39767 0 1.24827)
(-0.198051 0 1.22359)
(-1.80068 0 1.2642)
(-3.46278 0 1.36207)
(-5.21769 0 1.49413)
(-7.05992 0 1.62044)
(-8.93127 0 1.69222)
(-10.7275 0 1.67273)
(-12.327 0 1.55471)
(-13.6164 0 1.33829)
(-14.5303 0 1.03283)
(-15.0578 0 0.664049)
(-15.219 0 0.278841)
(-15.0626 0 -0.0722032)
(-14.6424 0 -0.367032)
(-14.006 0 -0.608167)
(-13.1938 0 -0.805713)
(-12.24 0 -0.969678)
(-11.1735 0 -1.10821)
(-10.0175 0 -1.22738)
(-8.79018 0 -1.33134)
(-7.50464 0 -1.42235)
(-6.17077 0 -1.50099)
(-4.79676 0 -1.56645)
(-3.39066 0 -1.61712)
(-1.96118 0 -1.65121)
(-0.517925 0 -1.66729)
(0.928987 0 -1.66461)
(2.36935 0 -1.6433)
(3.79313 0 -1.60432)
(5.19096 0 -1.54927)
(6.55436 0 -1.47992)
(7.87537 0 -1.39773)
(9.14548 0 -1.30316)
(10.3541 0 -1.19518)
(11.4866 0 -1.071)
(12.5237 0 -0.925931)
(13.4403 0 -0.753324)
(14.2063 0 -0.54445)
(14.7855 0 -0.288995)
(15.1358 0 0.0222593)
(15.2075 0 0.386741)
(14.946 0 0.773122)
(14.3095 0 1.1277)
(13.2857 0 1.40963)
(11.8987 0 1.59842)
(10.2306 0 1.68834)
(8.40104 0 1.67985)
(6.52902 0 1.58793)
(4.70809 0 1.45512)
(2.98109 0 1.32944)
(1.34047 0 1.24626)
(-0.254486 0 1.22394)
(-1.85849 0 1.26686)
(-3.52373 0 1.36652)
(-5.28257 0 1.49926)
(-7.12781 0 1.62462)
(-8.99942 0 1.69388)
(-10.7922 0 1.67117)
(-12.3841 0 1.55001)
(-13.6632 0 1.33064)
(-14.5659 0 1.02292)
(-15.0826 0 0.6532)
(-15.2347 0 0.268906)
(-15.0711 0 -0.0800603)
(-14.6456 0 -0.3727)
(-14.0055 0 -0.612)
(-13.1908 0 -0.808124)
(-12.2356 0 -0.971032)
(-11.1684 0 -1.10881)
(-10.0123 0 -1.22746)
(-8.78532 0 -1.33107)
(-7.50034 0 -1.42186)
(-6.16716 0 -1.50036)
(-4.79391 0 -1.56573)
(-3.3886 0 -1.61633)
(-1.95993 0 -1.65039)
(-0.517495 0 -1.66645)
(1.04075 0 -3.16473)
(2.65301 0 -3.1308)
(4.24347 0 -3.0683)
(5.79897 0 -2.97903)
(7.30632 0 -2.86484)
(8.75207 0 -2.72688)
(10.1222 0 -2.56474)
(11.4019 0 -2.37587)
(12.5755 0 -2.15553)
(13.6267 0 -1.89706)
(14.5394 0 -1.59237)
(15.2985 0 -1.23232)
(15.891 0 -0.807538)
(16.3074 0 -0.309545)
(16.5396 0 0.269148)
(16.5689 0 0.936788)
(16.3361 0 1.69278)
(15.7416 0 2.48654)
(14.6903 0 3.18138)
(13.1374 0 3.63232)
(11.1582 0 3.82035)
(8.91416 0 3.79191)
(6.5751 0 3.62506)
(4.24827 0 3.42461)
(1.96871 0 3.27785)
(-0.278808 0 3.23392)
(-2.53105 0 3.30565)
(-4.82192 0 3.47163)
(-7.15688 0 3.6728)
(-9.484 0 3.8142)
(-11.6779 0 3.79413)
(-13.5617 0 3.54265)
(-14.9895 0 3.02325)
(-15.9167 0 2.28658)
(-16.4088 0 1.49225)
(-16.5652 0 0.756075)
(-16.4794 0 0.110929)
(-16.1976 0 -0.447315)
(-15.7338 0 -0.926609)
(-15.0957 0 -1.33459)
(-14.2939 0 -1.68005)
(-13.342 0 -1.97239)
(-12.2556 0 -2.22055)
(-11.051 0 -2.4323)
(-9.74434 0 -2.61386)
(-8.35123 0 -2.76943)
(-6.88628 0 -2.90098)
(-5.36341 0 -3.00845)
(-3.79601 0 -3.09045)
(-2.19729 0 -3.14506)
(-0.580484 0 -3.17066)
(1.04109 0 -3.1664)
(2.6541 0 -3.13243)
(4.24526 0 -3.06984)
(5.80135 0 -2.98041)
(7.30913 0 -2.86599)
(8.75509 0 -2.72768)
(10.1251 0 -2.56502)
(11.4044 0 -2.37538)
(12.577 0 -2.15397)
(13.6268 0 -1.89408)
(14.5375 0 -1.58755)
(15.294 0 -1.22524)
(15.8833 0 -0.797787)
(16.2961 0 -0.296773)
(16.5242 0 0.285261)
(16.5481 0 0.956538)
(16.3069 0 1.71562)
(15.7005 0 2.50931)
(14.6342 0 3.19834)
(13.0665 0 3.64054)
(11.0768 0 3.82065)
(8.82827 0 3.78635)
(6.48932 0 3.61699)
(4.16467 0 3.41753)
(1.8871 0 3.27414)
(-0.359811 0 3.23458)
(-2.61313 0 3.31051)
(-4.90622 0 3.47931)
(-7.24304 0 3.68055)
(-9.5692 0 3.81834)
(-11.7568 0 3.79175)
(-13.6287 0 3.53197)
(-15.0411 0 3.00405)
(-15.954 0 2.26325)
(-16.4351 0 1.47006)
(-16.5841 0 0.737321)
(-16.4934 0 0.0957547)
(-16.2076 0 -0.459242)
(-15.7403 0 -0.935607)
(-15.0993 0 -1.34103)
(-14.295 0 -1.68434)
(-13.3412 0 -1.97497)
(-12.2535 0 -2.22181)
(-11.0481 0 -2.43258)
(-9.74109 0 -2.61345)
(-8.34797 0 -2.76855)
(-6.88329 0 -2.89978)
(-5.36089 0 -3.00704)
(-3.79411 0 -3.0889)
(-2.19609 0 -3.14343)
(-0.580052 0 -3.16899)
(1.0889 0 -4.8369)
(2.7738 0 -4.78442)
(4.4307 0 -4.68724)
(6.0427 0 -4.54719)
(7.59301 0 -4.36612)
(9.06496 0 -4.14515)
(10.4422 0 -3.88403)
(11.7087 0 -3.58078)
(12.8495 0 -3.23175)
(13.8507 0 -2.83194)
(14.6996 0 -2.37542)
(15.3858 0 -1.85561)
(15.9004 0 -1.26528)
(16.2364 0 -0.595784)
(16.3868 0 0.165618)
(16.3439 0 1.03733)
(16.0986 0 2.0289)
(15.6393 0 3.11278)
(14.9221 0 4.22154)
(13.8226 0 5.23582)
(12.1896 0 5.93492)
(10.0452 0 6.1943)
(7.56992 0 6.13814)
(4.95866 0 5.95031)
(2.31592 0 5.78558)
(-0.327806 0 5.73349)
(-2.9716 0 5.81756)
(-5.6108 0 5.99855)
(-8.20075 0 6.16925)
(-10.6124 0 6.16313)
(-12.6409 0 5.79861)
(-14.1317 0 4.99709)
(-15.1178 0 3.94172)
(-15.7606 0 2.83024)
(-16.1627 0 1.76376)
(-16.3543 0 0.800772)
(-16.3458 0 -0.0422271)
(-16.1457 0 -0.779679)
(-15.7617 0 -1.42891)
(-15.2005 0 -2.00129)
(-14.4697 0 -2.5049)
(-13.5784 0 -2.94676)
(-12.5379 0 -3.33329)
(-11.3611 0 -3.67024)
(-10.0623 0 -3.96228)
(-8.65698 0 -4.21267)
(-7.16118 0 -4.42294)
(-5.59149 0 -4.59293)
(-3.96468 0 -4.72128)
(-2.29763 0 -4.80609)
(-0.607338 0 -4.84567)
(1.08909 0 -4.83909)
(2.77451 0 -4.78651)
(4.43184 0 -4.68913)
(6.04412 0 -4.54875)
(7.5945 0 -4.36721)
(9.06624 0 -4.14558)
(10.4429 0 -3.88357)
(11.7085 0 -3.57914)
(12.848 0 -3.2286)
(13.8472 0 -2.82693)
(14.6939 0 -2.36815)
(15.3773 0 -1.84569)
(15.8887 0 -1.25233)
(16.2211 0 -0.579378)
(16.3674 0 0.186065)
(16.3199 0 1.06245)
(16.0696 0 2.05853)
(15.6043 0 3.14527)
(14.8783 0 4.25399)
(13.7642 0 5.26238)
(12.1134 0 5.94734)
(9.95549 0 6.19368)
(7.47386 0 6.13066)
(4.86124 0 5.94211)
(2.21879 0 5.78096)
(-0.424752 0 5.73432)
(-3.06885 0 5.82352)
(-5.70813 0 6.00711)
(-8.2957 0 6.17544)
(-10.699 0 6.16056)
(-12.7122 0 5.78174)
(-14.1853 0 4.96794)
(-15.1585 0 3.9088)
(-15.7936 0 2.79826)
(-16.1901 0 1.73524)
(-16.3767 0 0.776961)
(-16.3638 0 -0.0615117)
(-16.1598 0 -0.795107)
(-15.7722 0 -1.44101)
(-15.208 0 -2.01047)
(-14.4745 0 -2.51155)
(-13.5811 0 -2.95126)
(-12.5388 0 -3.33604)
(-11.3608 0 -3.67157)
(-10.0611 0 -3.96251)
(-8.65533 0 -4.21207)
(-7.15939 0 -4.42173)
(-5.58982 0 -4.5913)
(-3.96333 0 -4.71935)
(-2.29674 0 -4.80398)
(-0.606975 0 -4.84347)
(1.09857 0 -6.56155)
(2.79679 0 -6.4882)
(4.46244 0 -6.35199)
(6.07601 0 -6.15494)
(7.61847 0 -5.89916)
(9.07142 0 -5.58617)
(10.4174 0 -5.21631)
(11.6401 0 -4.78844)
(12.7249 0 -4.29997)
(13.6589 0 -3.74719)
(14.4306 0 -3.12561)
(15.0307 0 -2.43032)
(15.4509 0 -1.65592)
(15.6845 0 -0.795956)
(15.7262 0 0.158376)
(15.5753 0 1.21808)
(15.2384 0 2.38913)
(14.7232 0 3.66338)
(14.0241 0 5.01728)
(13.1129 0 6.38197)
(11.8914 0 7.59866)
(10.1703 0 8.4243)
(7.89213 0 8.71957)
(5.26376 0 8.68069)
(2.48177 0 8.56451)
(-0.351324 0 8.52116)
(-3.17753 0 8.5891)
(-5.93339 0 8.70383)
(-8.4952 0 8.68472)
(-10.6475 0 8.26446)
(-12.2242 0 7.31535)
(-13.3519 0 6.041)
(-14.2034 0 4.66679)
(-14.8534 0 3.32835)
(-15.3224 0 2.07748)
(-15.6116 0 0.933218)
(-15.7123 0 -0.100064)
(-15.6197 0 -1.03064)
(-15.3361 0 -1.86922)
(-14.8673 0 -2.62386)
(-14.2204 0 -3.30063)
(-13.4039 0 -3.90475)
(-12.4278 0 -4.44103)
(-11.3039 0 -4.91376)
(-10.0458 0 -5.32642)
(-8.66845 0 -5.68122)
(-7.18869 0 -5.97893)
(-5.6243 0 -6.21887)
(-3.99393 0 -6.3993)
(-2.31686 0 -6.51811)
(-0.612716 0 -6.57343)
(1.09858 0 -6.56424)
(2.79704 0 -6.49071)
(4.46282 0 -6.35417)
(6.07635 0 -6.1566)
(7.61855 0 -5.9001)
(9.07093 0 -5.58613)
(10.416 0 -5.215)
(11.6374 0 -4.78553)
(12.7206 0 -4.2951)
(13.6523 0 -3.73996)
(14.4216 0 -3.11565)
(15.0186 0 -2.41724)
(15.4354 0 -1.63936)
(15.6652 0 -0.775553)
(15.7027 0 0.183048)
(15.5475 0 1.24741)
(15.2064 0 2.4231)
(14.6869 0 3.70148)
(13.9827 0 5.05823)
(13.0644 0 6.42184)
(11.8304 0 7.63036)
(10.0901 0 8.43884)
(7.79676 0 8.71892)
(5.16121 0 8.67457)
(2.37674 0 8.56028)
(-0.456846 0 8.52194)
(-3.28212 0 8.59438)
(-6.03454 0 8.70936)
(-8.5871 0 8.68196)
(-10.722 0 8.24443)
(-12.2809 0 7.28037)
(-13.3979 0 6.00018)
(-14.2433 0 4.62635)
(-14.8884 0 3.29127)
(-15.3531 0 2.04472)
(-15.638 0 0.905173)
(-15.7345 0 -0.123544)
(-15.6378 0 -1.04998)
(-15.3505 0 -1.88482)
(-14.8783 0 -2.6361)
(-14.2285 0 -3.30986)
(-13.4095 0 -3.91135)
(-12.4314 0 -4.44538)
(-11.3059 0 -4.91625)
(-10.0466 0 -5.3274)
(-8.66845 0 -5.68102)
(-7.18821 0 -5.97782)
(-5.62361 0 -6.21708)
(-3.99325 0 -6.39704)
(-2.31634 0 -6.51555)
(-0.612447 0 -6.57073)
(1.07804 0 -8.25731)
(2.74311 0 -8.15982)
(4.37247 0 -7.97864)
(5.94494 0 -7.71632)
(7.44012 0 -7.37574)
(8.83869 0 -6.95948)
(10.1228 0 -6.46932)
(11.2761 0 -5.90585)
(12.2845 0 -5.26843)
(13.1359 0 -4.55531)
(13.8199 0 -3.76383)
(14.3282 0 -2.89062)
(14.6539 0 -1.93156)
(14.7919 0 -0.881611)
(14.7393 0 0.265276)
(14.4977 0 1.51466)
(14.0748 0 2.86604)
(13.4813 0 4.30741)
(12.7273 0 5.8176)
(11.8171 0 7.36555)
(10.7298 0 8.88219)
(9.36373 0 10.1946)
(7.52587 0 11.0469)
(5.155 0 11.366)
(2.46525 0 11.4056)
(-0.349534 0 11.3975)
(-3.14709 0 11.4047)
(-5.77848 0 11.3214)
(-8.02984 0 10.8844)
(-9.73134 0 9.89443)
(-11.0104 0 8.50681)
(-12.0474 0 6.9705)
(-12.9167 0 5.42665)
(-13.6299 0 3.9302)
(-14.1799 0 2.50845)
(-14.5564 0 1.18077)
(-14.7489 0 -0.0437772)
(-14.7512 0 -1.16687)
(-14.5632 0 -2.19446)
(-14.1883 0 -3.13236)
(-13.6323 0 -3.98531)
(-12.9024 0 -4.75718)
(-12.0074 0 -5.45116)
(-10.9583 0 -6.06964)
(-9.76767 0 -6.61411)
(-8.4504 0 -7.08488)
(-7.02324 0 -7.48104)
(-5.50456 0 -7.80057)
(-3.91407 0 -8.04076)
(-2.2725 0 -8.19877)
(-0.601248 0 -8.2723)
(1.07786 0 -8.26008)
(2.74288 0 -8.16235)
(4.37208 0 -7.9807)
(5.94421 0 -7.71765)
(7.43882 0 -7.37607)
(8.83653 0 -6.95853)
(10.1194 0 -6.46674)
(11.2712 0 -5.90129)
(12.2777 0 -5.2615)
(13.1267 0 -4.54562)
(13.808 0 -3.751)
(14.3131 0 -2.87428)
(14.6354 0 -1.91135)
(14.7695 0 -0.857208)
(14.7128 0 0.294175)
(14.4671 0 1.54823)
(14.04 0 2.9041)
(13.4426 0 4.34936)
(12.6848 0 5.86259)
(11.7703 0 7.41206)
(10.6769 0 8.92638)
(9.29884 0 10.2282)
(7.44228 0 11.062)
(5.05675 0 11.3675)
(2.36038 0 11.404)
(-0.455952 0 11.3979)
(-3.25065 0 11.4063)
(-5.87349 0 11.3172)
(-8.10781 0 10.8638)
(-9.79201 0 9.85681)
(-11.0611 0 8.46122)
(-12.0928 0 6.92411)
(-12.958 0 5.38235)
(-13.6673 0 3.88921)
(-14.2134 0 2.47155)
(-14.5858 0 1.14846)
(-14.7741 0 -0.0714503)
(-14.7723 0 -1.19013)
(-14.5805 0 -2.21363)
(-14.2022 0 -3.14777)
(-13.6432 0 -3.99731)
(-12.9106 0 -4.76615)
(-12.0135 0 -5.45748)
(-10.9625 0 -6.0737)
(-9.77037 0 -6.61628)
(-8.452 0 -7.08552)
(-7.02405 0 -7.48046)
(-5.50485 0 -7.79906)
(-3.91408 0 -8.03858)
(-2.27237 0 -8.19617)
(-0.601082 0 -8.2695)
(1.03277 0 -9.9034)
(2.62668 0 -9.7802)
(4.18306 0 -9.55124)
(5.67984 0 -9.21982)
(7.09598 0 -8.78991)
(8.41191 0 -8.26554)
(9.60979 0 -7.65023)
(10.6739 0 -6.9466)
(11.5906 0 -6.1561)
(12.3486 0 -5.27909)
(12.9389 0 -4.3149)
(13.3542 0 -3.26195)
(13.5893 0 -2.11797)
(13.6408 0 -0.880224)
(13.5083 0 0.453914)
(13.1949 0 1.88529)
(12.7085 0 3.40943)
(12.0597 0 5.01361)
(11.2602 0 6.67701)
(10.321 0 8.36939)
(9.24834 0 10.0463)
(8.02227 0 11.6258)
(6.5304 0 12.9287)
(4.60131 0 13.7381)
(2.24243 0 14.0727)
(-0.318795 0 14.1396)
(-2.85193 0 14.0198)
(-5.12109 0 13.5836)
(-6.92899 0 12.638)
(-8.33712 0 11.2417)
(-9.51833 0 9.62465)
(-10.5565 0 7.93732)
(-11.4603 0 6.24726)
(-12.2218 0 4.59492)
(-12.8292 0 3.00768)
(-13.2714 0 1.50449)
(-13.5379 0 0.0959257)
(-13.622 0 -1.21517)
(-13.5217 0 -2.4303)
(-13.2383 0 -3.55218)
(-12.7757 0 -4.58342)
(-12.1396 0 -5.52607)
(-11.3378 0 -6.38143)
(-10.3799 0 -7.14991)
(-9.27794 0 -7.83085)
(-8.04611 0 -8.42244)
(-6.7008 0 -8.92183)
(-5.26043 0 -9.3253)
(-3.74506 0 -9.62881)
(-2.17613 0 -9.82852)
(-0.575987 0 -9.92143)
(1.03242 0 -9.906)
(2.626 0 -9.78248)
(4.18194 0 -9.55291)
(5.67811 0 -9.22056)
(7.09343 0 -8.7894)
(8.40825 0 -8.26343)
(9.60473 0 -7.64617)
(10.667 0 -6.94018)
(11.5817 0 -6.14694)
(12.3373 0 -5.2668)
(12.9247 0 -4.29909)
(13.3369 0 -3.24226)
(13.5685 0 -2.0941)
(13.6163 0 -0.8519)
(13.4799 0 0.486869)
(13.1625 0 1.92289)
(12.6722 0 3.45142)
(12.0198 0 5.0594)
(11.2167 0 6.72571)
(10.2741 0 8.4197)
(9.1978 0 10.0963)
(7.96595 0 11.6712)
(6.46217 0 12.9613)
(4.5165 0 13.7533)
(2.14668 0 14.0769)
(-0.41723 0 14.1391)
(-2.94545 0 14.0134)
(-5.20124 0 13.5636)
(-6.99308 0 12.6008)
(-8.39127 0 11.1942)
(-9.56769 0 9.57421)
(-10.6023 0 7.88723)
(-11.5027 0 6.1992)
(-12.2606 0 4.55005)
(-12.8643 0 2.96681)
(-13.3025 0 1.46811)
(-13.565 0 0.0642049)
(-13.6453 0 -1.24231)
(-13.5413 0 -2.45307)
(-13.2545 0 -3.57085)
(-12.7888 0 -4.59831)
(-12.15 0 -5.53755)
(-11.3458 0 -6.38989)
(-10.3859 0 -7.15574)
(-9.28231 0 -7.83443)
(-8.04914 0 -8.42416)
(-6.7028 0 -8.92203)
(-5.26165 0 -9.32433)
(-3.74572 0 -9.62699)
(-2.17638 0 -9.82614)
(-0.575922 0 -9.9188)
(0.967486 0 -11.4606)
(2.4595 0 -11.3108)
(3.91332 0 -11.0325)
(5.30661 0 -10.63)
(6.61835 0 -10.1086)
(7.82916 0 -9.47413)
(8.92174 0 -8.73214)
(9.88104 0 -7.88752)
(10.6945 0 -6.94408)
(11.3518 0 -5.90448)
(11.8452 0 -4.77019)
(12.1691 0 -3.54171)
(12.3197 0 -2.21882)
(12.2957 0 -0.80116)
(12.0983 0 0.7108)
(11.732 0 2.31412)
(11.2047 0 4.00087)
(10.5271 0 5.75633)
(9.71102 0 7.55899)
(8.76904 0 9.38031)
(7.71244 0 11.1828)
(6.54856 0 12.9111)
(5.25085 0 14.4613)
(3.70946 0 15.6492)
(1.83381 0 16.3206)
(-0.261212 0 16.4917)
(-2.32343 0 16.2007)
(-4.11643 0 15.3938)
(-5.58374 0 14.0942)
(-6.84025 0 12.4838)
(-7.97659 0 10.7284)
(-9.00443 0 8.91553)
(-9.91486 0 7.09417)
(-10.6961 0 5.29933)
(-11.3355 0 3.55764)
(-11.8216 0 1.88902)
(-12.1441 0 0.306439)
(-12.2961 0 -1.18354)
(-12.2739 0 -2.57879)
(-12.077 0 -3.87911)
(-11.7075 0 -5.08484)
(-11.1695 0 -6.19598)
(-10.4693 0 -7.21176)
(-9.61531 0 -8.13035)
(-8.61849 0 -8.94877)
(-7.49214 0 -9.66286)
(-6.25198 0 -10.2675)
(-4.91597 0 -10.7571)
(-3.50404 0 -11.1258)
(-2.03769 0 -11.3685)
(-0.539568 0 -11.4815)
(0.966977 0 -11.4627)
(2.45842 0 -11.3126)
(3.91156 0 -11.0335)
(5.30403 0 -10.6299)
(6.61472 0 -10.107)
(7.82426 0 -9.47067)
(8.91527 0 -8.72642)
(9.87271 0 -7.87912)
(10.684 0 -6.9326)
(11.3388 0 -5.88953)
(11.8295 0 -4.75141)
(12.1502 0 -3.51875)
(12.2975 0 -2.19142)
(12.27 0 -0.769117)
(12.069 0 0.747561)
(11.699 0 2.3555)
(11.1683 0 4.0465)
(10.4872 0 5.80558)
(9.66797 0 7.61098)
(8.72301 0 9.43387)
(7.66356 0 11.2364)
(6.49665 0 12.9621)
(5.1933 0 14.5048)
(3.64136 0 15.6781)
(1.75485 0 16.3328)
(-0.343403 0 16.4897)
(-2.39983 0 16.184)
(-4.1811 0 15.3602)
(-5.63915 0 14.0477)
(-6.89114 0 12.4316)
(-8.02461 0 10.6745)
(-9.04958 0 8.86221)
(-9.95698 0 7.04277)
(-10.735 0 5.25094)
(-11.371 0 3.51307)
(-11.8534 0 1.84883)
(-12.1723 0 0.270908)
(-12.3206 0 -1.21437)
(-12.295 0 -2.60503)
(-12.0948 0 -3.90099)
(-11.7223 0 -5.10264)
(-11.1816 0 -6.21005)
(-10.4789 0 -7.22247)
(-9.62284 0 -8.13809)
(-8.62423 0 -8.95394)
(-7.49638 0 -9.66586)
(-6.25499 0 -10.2687)
(-4.918 0 -10.7569)
(-3.50528 0 -11.1246)
(-2.03828 0 -11.3666)
(-0.539596 0 -11.4793)
(0.88601 0 -12.9024)
(2.25131 0 -12.726)
(3.57875 0 -12.3983)
(4.84635 0 -11.9247)
(6.03355 0 -11.3123)
(7.12169 0 -10.5688)
(8.09432 0 -9.70195)
(8.93744 0 -8.71913)
(9.63963 0 -7.62668)
(10.192 0 -6.42969)
(10.5882 0 -5.13198)
(10.8241 0 -3.73624)
(10.8979 0 -2.24449)
(10.81 0 -0.658785)
(10.5633 0 1.01767)
(10.1634 0 2.77891)
(9.61888 0 4.61424)
(8.94038 0 6.50705)
(8.14023 0 8.4345)
(7.23206 0 10.3674)
(6.23014 0 12.2696)
(5.14931 0 14.0945)
(4.0002 0 15.7657)
(2.75324 0 17.1435)
(1.34737 0 18.031)
(-0.190975 0 18.2832)
(-1.7073 0 17.8629)
(-3.07004 0 16.8333)
(-4.28621 0 15.3631)
(-5.41735 0 13.6416)
(-6.47923 0 11.7903)
(-7.45814 0 9.87486)
(-8.33952 0 7.93844)
(-9.10917 0 6.01535)
(-9.75373 0 4.13314)
(-10.2613 0 2.31316)
(-10.6216 0 0.570528)
(-10.8269 0 -1.08532)
(-10.8722 0 -2.64925)
(-10.7552 0 -4.11842)
(-10.4763 0 -5.49078)
(-10.0378 0 -6.76413)
(-9.4444 0 -7.93544)
(-8.70322 0 -9.00051)
(-7.82384 0 -9.95385)
(-6.81841 0 -10.7888)
(-5.70167 0 -11.4979)
(-4.49075 0 -12.0731)
(-3.20493 0 -12.507)
(-1.86527 0 -12.7929)
(-0.494128 0 -12.926)
(0.885377 0 -12.9039)
(2.2499 0 -12.727)
(3.57648 0 -12.3984)
(4.84307 0 -11.9236)
(6.02909 0 -11.3095)
(7.11582 0 -10.5638)
(8.08679 0 -9.69445)
(8.928 0 -8.70868)
(9.62801 0 -7.61287)
(10.178 0 -6.41213)
(10.5715 0 -5.11031)
(10.8045 0 -3.71017)
(10.8752 0 -2.21379)
(10.7841 0 -0.623317)
(10.5341 0 1.0579)
(10.131 0 2.8237)
(9.58335 0 4.66315)
(8.90192 0 6.5594)
(8.09908 0 8.48934)
(7.18849 0 10.4236)
(6.18445 0 12.3257)
(5.10185 0 14.1485)
(3.95069 0 15.8141)
(2.69944 0 17.18)
(1.28773 0 18.0492)
(-0.252847 0 18.2801)
(-1.76537 0 17.839)
(-3.1223 0 16.7927)
(-4.33495 0 15.3126)
(-5.4643 0 13.5867)
(-6.5243 0 11.7339)
(-7.501 0 9.81885)
(-8.37988 0 7.88411)
(-9.14675 0 5.96381)
(-9.78832 0 4.08524)
(-10.2927 0 2.26952)
(-10.6497 0 0.531516)
(-10.8517 0 -1.11957)
(-10.8938 0 -2.67877)
(-10.7739 0 -4.14336)
(-10.4921 0 -5.51141)
(-10.0509 0 -6.78076)
(-9.45516 0 -7.94842)
(-8.71187 0 -9.01023)
(-7.83063 0 -9.96073)
(-6.8236 0 -10.7933)
(-5.7055 0 -11.5003)
(-4.49344 0 -12.0739)
(-3.20665 0 -12.5066)
(-1.86615 0 -12.7918)
(-0.494237 0 -12.9245)
(0.791485 0 -14.2062)
(2.0101 0 -14.0037)
(3.1921 0 -13.6277)
(4.31636 0 -13.0849)
(5.36327 0 -12.3841)
(6.31524 0 -11.535)
(7.15703 0 -10.548)
(7.87595 0 -9.43293)
(8.46198 0 -8.19877)
(8.90777 0 -6.85317)
(9.20849 0 -5.4024)
(9.36173 0 -3.8515)
(9.36742 0 -2.20478)
(9.22775 0 -0.466611)
(8.94723 0 1.35732)
(8.53283 0 3.25846)
(7.99391 0 5.2238)
(7.34186 0 7.23481)
(6.5899 0 9.267)
(5.75304 0 11.2896)
(4.8483 0 13.265)
(3.89542 0 15.1459)
(2.91778 0 16.8634)
(1.92916 0 18.2965)
(0.915818 0 19.2526)
(-0.127779 0 19.5336)
(-1.16578 0 19.0682)
(-2.17083 0 17.9703)
(-3.15607 0 16.4488)
(-4.12921 0 14.6798)
(-5.07152 0 12.7682)
(-5.9602 0 10.7752)
(-6.77636 0 8.74495)
(-7.50349 0 6.71339)
(-8.12705 0 4.70967)
(-8.63426 0 2.75681)
(-9.01421 0 0.871944)
(-9.25811 0 -0.933068)
(-9.35962 0 -2.6505)
(-9.31483 0 -4.27506)
(-9.12215 0 -5.80239)
(-8.78228 0 -7.22799)
(-8.29827 0 -8.54643)
(-7.67563 0 -9.75102)
(-6.92247 0 -10.8337)
(-6.04956 0 -11.7851)
(-5.07035 0 -12.5953)
(-4.0008 0 -13.2539)
(-2.85915 0 -13.7514)
(-1.66551 0 -14.0795)
(-0.44142 0 -14.2323)
(0.790761 0 -14.2069)
(2.00844 0 -14.0038)
(3.18944 0 -13.6268)
(4.31257 0 -13.0826)
(5.35819 0 -12.3799)
(6.3087 0 -11.5285)
(7.1488 0 -10.5387)
(7.86583 0 -9.42044)
(8.44976 0 -8.18268)
(8.89323 0 -6.83311)
(9.19145 0 -5.37804)
(9.34205 0 -3.82257)
(9.34498 0 -2.17109)
(9.20249 0 -0.428099)
(8.91916 0 1.40058)
(8.50204 0 3.30618)
(7.96054 0 5.27547)
(7.30615 0 7.28969)
(6.55213 0 9.32409)
(5.71358 0 11.3477)
(4.80759 0 13.3226)
(3.85404 0 15.201)
(2.87638 0 16.913)
(1.88753 0 18.3351)
(0.873135 0 19.2728)
(-0.17101 0 19.5301)
(-1.20811 0 19.042)
(-2.21228 0 17.9278)
(-3.19748 0 16.3971)
(-4.17043 0 14.6237)
(-5.11189 0 12.7103)
(-5.99919 0 10.7172)
(-6.81354 0 8.68828)
(-7.53852 0 6.65923)
(-8.15965 0 4.65893)
(-8.66423 0 2.71019)
(-9.04141 0 0.829876)
(-9.28247 0 -0.970363)
(-9.38115 0 -2.68299)
(-9.33361 0 -4.30284)
(-9.1383 0 -5.82568)
(-8.79597 0 -7.24707)
(-8.30968 0 -8.56164)
(-7.68498 0 -9.76274)
(-6.92997 0 -10.8423)
(-6.05543 0 -11.7911)
(-5.07478 0 -12.599)
(-4.00399 0 -13.2559)
(-2.86123 0 -13.752)
(-1.66661 0 -14.0792)
(-0.441596 0 -14.2316)
(0.686438 0 -15.3542)
(1.7423 0 -15.1266)
(2.76363 0 -14.7046)
(3.7306 0 -14.0959)
(4.62499 0 -13.3112)
(5.43065 0 -12.3626)
(6.13382 0 -11.2627)
(6.72336 0 -10.0241)
(7.19085 0 -8.65851)
(7.53052 0 -7.1762)
(7.73923 0 -5.58594)
(7.81626 0 -3.89518)
(7.76325 0 -2.11052)
(7.58408 0 -0.238616)
(7.28486 0 1.71258)
(6.87392 0 3.73221)
(6.36171 0 5.80515)
(5.76066 0 7.91094)
(5.08508 0 10.0231)
(4.35146 0 12.1087)
(3.57896 0 14.1269)
(2.79034 0 16.0269)
(2.01323 0 17.7383)
(1.27487 0 19.1488)
(0.583505 0 20.0846)
(-0.0796653 0 20.3596)
(-0.746999 0 19.904)
(-1.44908 0 18.8286)
(-2.19871 0 17.3269)
(-2.98111 0 15.558)
(-3.76755 0 13.6209)
(-4.53161 0 11.5794)
(-5.25154 0 9.48157)
(-5.90892 0 7.36594)
(-6.48783 0 5.26386)
(-6.97443 0 3.2003)
(-7.35679 0 1.19436)
(-7.62496 0 -0.739939)
(-7.77116 0 -2.59255)
(-7.78986 0 -4.35589)
(-7.67777 0 -6.02333)
(-7.43387 0 -7.58801)
(-7.0595 0 -9.0421)
(-6.55854 0 -10.3763)
(-5.93748 0 -11.5799)
(-5.20552 0 -12.641)
(-4.37456 0 -13.5467)
(-3.45908 0 -14.2844)
(-2.47588 0 -14.8423)
(-1.44373 0 -15.2107)
(-0.382855 0 -15.3824)
(0.68566 0 -15.3538)
(1.74049 0 -15.1257)
(2.76072 0 -14.7026)
(3.7265 0 -14.0924)
(4.61957 0 -13.3057)
(5.42375 0 -12.3545)
(6.12527 0 -11.2516)
(6.713 0 -10.0096)
(7.17851 0 -8.64028)
(7.51606 0 -7.15383)
(7.72252 0 -5.55913)
(7.79721 0 -3.86371)
(7.74183 0 -2.07424)
(7.5603 0 -0.197519)
(7.25879 0 1.75834)
(6.8457 0 3.78229)
(6.33155 0 5.85897)
(5.72884 0 7.96769)
(5.05196 0 10.0817)
(4.31748 0 12.1678)
(3.54469 0 14.1849)
(2.75649 0 16.0818)
(1.98069 0 17.787)
(1.24423 0 19.1864)
(0.554428 0 20.1043)
(-0.108284 0 20.3562)
(-0.776422 0 19.8785)
(-1.48025 0 18.7872)
(-2.2317 0 17.276)
(-3.01515 0 15.502)
(-3.80178 0 13.5623)
(-4.56536 0 11.5202)
(-5.2843 0 9.42329)
(-5.94026 0 7.30982)
(-6.51742 0 5.2109)
(-7.00201 0 3.15125)
(-7.38216 0 1.14974)
(-7.64799 0 -0.779844)
(-7.7918 0 -2.62764)
(-7.80812 0 -4.38622)
(-7.69371 0 -6.04905)
(-7.44757 0 -7.60938)
(-7.0711 0 -9.05942)
(-6.56819 0 -10.39)
(-5.94534 0 -11.5903)
(-5.21177 0 -12.6485)
(-4.37936 0 -13.5518)
(-3.46258 0 -14.2875)
(-2.47821 0 -14.844)
(-1.44498 0 -15.2114)
(-0.383081 0 -15.3826)
(0.572894 0 -16.3317)
(1.45306 0 -16.0809)
(2.30155 0 -15.616)
(3.10028 0 -14.9463)
(3.83279 0 -14.0842)
(4.48468 0 -13.0439)
(5.04395 0 -11.8407)
(5.50122 0 -10.49)
(5.84975 0 -9.00595)
(6.08548 0 -7.40157)
(6.2069 0 -5.68815)
(6.21497 0 -3.87554)
(6.11293 0 -1.97262)
(5.90625 0 0.0117485)
(5.60248 0 2.06746)
(5.21125 0 4.18158)
(4.74411 0 6.33702)
(4.21442 0 8.51139)
(3.63745 0 10.6761)
(3.0306 0 12.7957)
(2.41388 0 14.8262)
(1.81052 0 16.7128)
(1.24718 0 18.3827)
(0.750052 0 19.7306)
(0.328644 0 20.608)
(-0.0435079 0 20.863)
(-0.423297 0 20.4395)
(-0.86259 0 19.4267)
(-1.37798 0 17.9839)
(-1.95363 0 16.2495)
(-2.56226 0 14.3188)
(-3.17798 0 12.2591)
(-3.77841 0 10.1222)
(-4.34425 0 7.94963)
(-4.85865 0 5.77515)
(-5.30684 0 3.62575)
(-5.67589 0 1.52245)
(-5.95473 0 -0.518727)
(-6.13424 0 -2.48562)
(-6.20739 0 -4.36847)
(-6.16929 0 -6.15841)
(-6.01728 0 -7.84628)
(-5.75108 0 -9.42178)
(-5.37286 0 -10.8731)
(-4.88744 0 -12.1867)
(-4.30228 0 -13.3481)
(-3.62754 0 -14.3418)
(-2.87593 0 -15.1526)
(-2.06248 0 -15.7668)
(-1.2042 0 -16.1725)
(-0.319561 0 -16.3617)
(0.572097 0 -16.3303)
(1.45119 0 -16.0789)
(2.29855 0 -15.6129)
(3.09607 0 -14.9415)
(3.82726 0 -14.0772)
(4.47772 0 -13.0342)
(5.03544 0 -11.828)
(5.49102 0 -10.4737)
(5.83776 0 -8.98576)
(6.07161 0 -7.37714)
(6.19109 0 -5.65921)
(6.1972 0 -3.8419)
(6.09322 0 -1.9342)
(5.88468 0 0.0549148)
(5.57919 0 2.11516)
(5.18644 0 4.23339)
(4.71805 0 6.39229)
(4.18745 0 8.56923)
(3.60998 0 10.7354)
(3.00312 0 12.8549)
(2.387 0 14.8837)
(1.78498 0 16.7663)
(1.22385 0 18.4292)
(0.729549 0 19.7657)
(0.310641 0 20.6261)
(-0.0607039 0 20.8599)
(-0.441893 0 20.416)
(-0.883921 0 19.3878)
(-1.40202 0 17.935)
(-1.97961 0 16.1945)
(-2.58937 0 14.2605)
(-3.2055 0 12.1996)
(-3.80578 0 10.0631)
(-4.37098 0 7.8923)
(-4.88435 0 5.72065)
(-5.3312 0 3.5749)
(-5.69866 0 1.47584)
(-5.97572 0 -0.560744)
(-6.15332 0 -2.52288)
(-6.22451 0 -4.40096)
(-6.18443 0 -6.18626)
(-6.03048 0 -7.86969)
(-5.7624 0 -9.44104)
(-5.38241 0 -10.8885)
(-4.89532 0 -12.1988)
(-4.30863 0 -13.3571)
(-3.63248 0 -14.3483)
(-2.87957 0 -15.1571)
(-2.06493 0 -15.7696)
(-1.20554 0 -16.1744)
(-0.319821 0 -16.3631)
(0.452477 0 -17.1271)
(1.14653 0 -16.8553)
(1.81247 0 -16.3518)
(2.43438 0 -15.6272)
(2.99791 0 -14.6957)
(3.49072 0 -13.5737)
(3.90281 0 -12.2792)
(4.22667 0 -10.8299)
(4.45737 0 -9.24278)
(4.59254 0 -7.53336)
(4.63228 0 -5.71545)
(4.57907 0 -3.80123)
(4.43763 0 -1.80181)
(4.21476 0 0.271827)
(3.91929 0 2.40756)
(3.56189 0 4.59057)
(3.15494 0 6.80197)
(2.71244 0 9.0176)
(2.25002 0 11.207)
(1.7851 0 13.3323)
(1.33701 0 15.3473)
(0.927057 0 17.1945)
(0.577631 0 18.8009)
(0.307919 0 20.0697)
(0.120753 0 20.8783)
(-0.0145208 0 21.1103)
(-0.157815 0 20.7239)
(-0.36413 0 19.7858)
(-0.654824 0 18.4198)
(-1.02119 0 16.743)
(-1.44242 0 14.8454)
(-1.8962 0 12.7956)
(-2.36167 0 10.6478)
(-2.81999 0 8.44617)
(-3.25421 0 6.22644)
(-3.64909 0 4.01754)
(-3.99104 0 1.84225)
(-4.26809 0 -0.281604)
(-4.47 0 -2.3399)
(-4.58847 0 -4.32086)
(-4.6172 0 -6.21345)
(-4.55208 0 -8.00623)
(-4.39124 0 -9.68653)
(-4.13524 0 -11.24)
(-3.78716 0 -12.6505)
(-3.35264 0 -13.9009)
(-2.83991 0 -14.973)
(-2.25967 0 -15.8495)
(-1.62486 0 -16.5141)
(-0.950351 0 -16.9537)
(-0.252444 0 -17.1587)
(0.451695 0 -17.1246)
(1.14467 0 -16.8522)
(1.8095 0 -16.3475)
(2.43024 0 -15.6212)
(2.99252 0 -14.6873)
(3.48399 0 -13.5627)
(3.89467 0 -12.2649)
(4.21703 0 -10.812)
(4.44618 0 -9.22088)
(4.57975 0 -7.50717)
(4.6179 0 -5.68473)
(4.56314 0 -3.76585)
(4.42023 0 -1.76173)
(4.19604 0 0.316506)
(3.89944 0 2.45657)
(3.54117 0 4.64343)
(3.13367 0 6.85796)
(2.691 0 9.07576)
(2.22886 0 11.2661)
(1.76472 0 13.3908)
(1.31802 0 15.4033)
(0.910113 0 17.2458)
(0.563401 0 18.8446)
(0.296806 0 20.1019)
(0.112258 0 20.8946)
(-0.0221815 0 21.1075)
(-0.166928 0 20.7027)
(-0.376134 0 19.7499)
(-0.669887 0 18.3735)
(-1.03879 0 16.6899)
(-1.46186 0 14.7883)
(-1.91684 0 12.7367)
(-2.38295 0 10.5888)
(-2.8414 0 8.38839)
(-3.27533 0 6.17112)
(-3.66956 0 3.96555)
(-4.01055 0 1.79425)
(-4.2864 0 -0.325191)
(-4.48693 0 -2.37886)
(-4.60389 0 -4.35512)
(-4.63104 0 -6.24309)
(-4.56431 0 -8.03142)
(-4.40187 0 -9.7075)
(-4.14432 0 -11.2571)
(-3.79475 0 -12.6641)
(-3.35882 0 -13.9113)
(-2.84477 0 -14.9808)
(-2.26329 0 -15.8551)
(-1.62732 0 -16.5181)
(-0.951701 0 -16.9566)
(-0.252723 0 -17.1611)
(0.326513 0 -17.731)
(0.82607 0 -17.4409)
(1.30177 0 -16.9039)
(1.74021 0 -16.1318)
(2.12949 0 -15.1405)
(2.45963 0 -13.9488)
(2.72278 0 -12.5767)
(2.91346 0 -11.0446)
(3.02857 0 -9.37183)
(3.0674 0 -7.57649)
(3.03155 0 -5.67469)
(2.92486 0 -3.68089)
(2.75327 0 -1.60832)
(2.52467 0 0.530088)
(2.24882 0 2.72034)
(1.93708 0 4.94594)
(1.60227 0 7.18648)
(1.25849 0 9.41634)
(0.921051 0 11.6035)
(0.606396 0 13.7088)
(0.331895 0 15.6845)
(0.115291 0 17.4728)
(-0.0269292 0 19.003)
(-0.0839494 0 20.1885)
(-0.0606831 0 20.9299)
(0.0105157 0 21.14)
(0.0743875 0 20.7891)
(0.0794942 0 19.925)
(0.000903795 0 18.6421)
(-0.161098 0 17.0376)
(-0.393579 0 15.194)
(-0.679472 0 13.1785)
(-1.00103 0 11.046)
(-1.34107 0 8.8422)
(-1.68341 0 6.60426)
(-2.01304 0 4.36259)
(-2.31616 0 2.14145)
(-2.58029 0 -0.0397732)
(-2.79444 0 -2.16524)
(-2.94933 0 -4.22127)
(-3.03755 0 -6.1948)
(-3.05369 0 -8.07225)
(-2.99451 0 -9.83863)
(-2.85902 0 -11.4772)
(-2.64858 0 -12.9694)
(-2.36695 0 -14.2954)
(-2.02028 0 -15.4348)
(-1.61705 0 -16.3677)
(-1.16781 0 -17.0761)
(-0.684962 0 -17.545)
(-0.182242 0 -17.7638)
(0.325778 0 -17.7274)
(0.824308 0 -17.4367)
(1.29895 0 -16.8985)
(1.7363 0 -16.1246)
(2.12445 0 -15.131)