/*--------------------------------*- C++ -*----------------------------------*\
| =========                 |                                                 |
| \\      /  F ield         | OpenFOAM: The Open Source CFD Toolbox           |
|  \\    /   O peration     | Version:  2.3.0                                 |
|   \\  /    A nd           | Web:      www.OpenFOAM.org                      |
|    \\/     M anipulation  |                                                 |
\*---------------------------------------------------------------------------*/
FoamFile
{
    version     2.0;
    format      ascii;
    class       volScalarField;
    location    "11000";
    object      p;
}
// * * * * * * * * * * * * * * * * * * * * * * * * * * * * * * * * * * * * * //

dimensions      [0 2 -2 0 0 0 0];

internalField   nonuniform List<scalar> 
191
(
-1740.39
-1722.79
-1707.8
-1695.67
-1685.63
-1676.7
-1668.03
-1659.01
-1649.26
-1638.6
-1626.85
-1613.82
-1599.16
-1566.47
-1553.57
-1541.44
-1530.4
-1520.45
-1511.31
-1502.65
-1494.15
-1485.51
-1476.48
-1466.88
-1456.56
-1445.34
-1414.32
-1405.41
-1396.34
-1387.56
-1379.26
-1371.45
-1364.11
-1357.15
-1350.5
-1343.99
-1337.51
-1330.97
-1324.36
-1272.88
-1267.9
-1262.25
-1256.55
-1250.94
-1245.49
-1240.29
-1235.42
-1230.89
-1226.72
-1222.87
-1219.27
-1215.87
-1136.53
-1134.42
-1131.66
-1128.75
-1125.82
-1122.87
-1119.98
-1117.22
-1114.68
-1112.38
-1110.33
-1108.43
-1106.52
-1001.65
-1001.6
-1001.04
-1000.29
-999.454
-998.555
-997.593
-996.607
-995.647
-994.751
-993.908
-993.035
-991.967
-866.123
-867.606
-868.636
-869.413
-870.063
-870.632
-871.109
-871.478
-871.744
-871.921
-872.001
-871.934
-871.615
-728.557
-731.3
-733.564
-735.496
-737.206
-738.786
-740.262
-741.622
-742.848
-743.933
-744.866
-745.616
-746.137
-588.175
-592.039
-595.422
-598.367
-600.983
-603.374
-605.611
-607.73
-609.746
-611.672
-613.512
-615.252
-444.796
-449.72
-454.207
-458.182
-461.719
-464.934
-467.934
-470.811
-473.637
-476.489
-479.426
-482.462
-298.771
-304.854
-310.582
-315.768
-320.436
-324.703
-328.711
-332.6
-336.508
-340.596
-345.03
-349.852
-152.658
-160.229
-167.511
-174.237
-180.404
-186.141
-191.631
-197.072
-202.662
-208.652
-215.287
-222.593
1.31748
-8.0033
-18.0182
-27.9196
-37.3334
-46.1836
-54.5501
-62.5769
-70.4347
-78.3378
-86.8073
-96.5152
-107.101
109.063
96.5859
83.8036
71.6707
60.4441
49.9897
40.0405
30.3373
20.7252
11.3142
2.375
-5.52823
-11.6738
9.73492
21.4808
32.7693
42.8096
51.4844
58.9336
65.3419
70.8061
75.2835
78.8347
82.3534
85.8968
86.2954
)
;

boundaryField
{
    top
    {
        type            calculated;
        value           nonuniform List<scalar> 
13
(
-9.81
-9.81
-9.81
-9.81
-9.81
-9.81
-9.81
-9.81
-9.81
-9.81
-9.81
-9.81
-9.81
)
;
    }
    bottom
    {
        type            calculated;
        value           nonuniform List<scalar> 
13
(
-1832.1
-1813.85
-1798.43
-1786.31
-1776.49
-1767.77
-1759.15
-1749.89
-1739.72
-1728.49
-1716.06
-1702.17
-1686.48
)
;
    }
    frontAndBack
    {
        type            empty;
    }
    left_cyc
    {
        type            cyclic;
    }
    right_cyc
    {
        type            cyclic;
    }
    procBoundary1to0
    {
        type            processor;
        value           nonuniform List<scalar> 
16
(
-1759.04
-1578.93
-1421.94
-1276.35
-1137.32
-1000.74
-863.961
-725.326
-584.017
-439.8
-292.852
-145.457
-145.457
8.54072
119.178
-0.66415
)
;
    }
    procBoundary1to2
    {
        type            processor;
        value           nonuniform List<scalar> 
16
(
-1582.35
-1432.94
-1317.69
-1212.61
-1104.38
-990.473
-870.901
-746.395
-616.889
-616.889
-485.629
-355.13
-230.627
-117.669
-15.1809
81.8981
)
;
    }
}


// ************************************************************************* //
