/*--------------------------------*- C++ -*----------------------------------*\
| =========                 |                                                 |
| \\      /  F ield         | OpenFOAM: The Open Source CFD Toolbox           |
|  \\    /   O peration     | Version:  2.3.0                                 |
|   \\  /    A nd           | Web:      www.OpenFOAM.org                      |
|    \\/     M anipulation  |                                                 |
\*---------------------------------------------------------------------------*/
FoamFile
{
    version     2.0;
    format      ascii;
    class       surfaceScalarField;
    location    "11000";
    object      phi;
}
// * * * * * * * * * * * * * * * * * * * * * * * * * * * * * * * * * * * * * //

dimensions      [0 3 -1 0 0 0 0];

internalField   nonuniform List<scalar> 
353
(
-0.4064
0.0265871
-0.396084
-0.0103152
-0.369643
-0.0264417
-0.342259
-0.0273836
-0.321843
-0.0204164
-0.310823
-0.0110195
-0.308501
-0.00232218
-0.312893
0.00439223
-0.321903
0.0090097
-0.334143
0.0122402
-0.348979
0.0148363
-0.366424
0.0174442
0.0206582
-0.64043
0.0865119
-0.648321
-0.00242388
-0.629841
-0.0449215
-0.602514
-0.0547111
-0.576584
-0.046346
-0.556734
-0.0308694
-0.544064
-0.0149922
-0.537742
-0.00193007
-0.536032
0.00729985
-0.53681
0.013018
-0.537974
0.0160008
-0.537448
0.0169179
0.0161971
-0.624223
0.156462
-0.647616
0.020969
-0.644691
-0.0478463
-0.629091
-0.0703113
-0.609322
-0.066114
-0.590057
-0.0501347
-0.573361
-0.0316888
-0.559645
-0.0156454
-0.548319
-0.00402687
-0.537924
0.00262313
-0.526361
0.00443807
-0.510975
0.00153189
-0.00619189
-0.500088
0.225309
-0.534691
0.0555719
-0.547126
-0.0354108
-0.54624
-0.0711971
-0.537988
-0.074366
-0.526182
-0.0619408
-0.513111
-0.0447605
-0.49996
-0.0287962
-0.487049
-0.0169382
-0.47392
-0.0105057
-0.459266
-0.0102156
-0.440943
-0.0167914
-0.031079
-0.332756
0.285328
-0.372598
0.0954132
-0.396797
-0.0112118
-0.409446
-0.0585481
-0.413871
-0.069941
-0.412599
-0.0632121
-0.407542
-0.0498179
-0.400085
-0.0362533
-0.391093
-0.02593
-0.380847
-0.0207519
-0.368903
-0.0221601
-0.353974
-0.0317199
-0.0511408
-0.151109
0.329577
-0.188886
0.13319
-0.218716
0.018618
-0.240586
-0.0366781
-0.255361
-0.0551661
-0.264122
-0.0544514
-0.267989
-0.04595
-0.268053
-0.0361898
-0.265282
-0.0287006
-0.2604
-0.0256338
-0.253683
-0.0288775
-0.244745
-0.0406577
-0.0634967
0.0277172
0.352926
-0.00174649
0.162654
-0.030906
0.0477775
-0.0565532
-0.0110309
-0.07741
-0.0343092
-0.0932715
-0.03859
-0.104407
-0.0348141
-0.111366
-0.0292309
-0.114899
-0.0251677
-0.115849
-0.0246837
-0.114937
-0.0297895
-0.112484
-0.0431109
-0.067793
0.191461
0.35214
0.174409
0.179707
0.15018
0.0720058
0.12491
0.0142393
0.101863
-0.0112626
0.0824337
-0.0191603
0.0670367
-0.0194171
0.0555677
-0.017762
0.047534
-0.017134
0.0421235
-0.0192731
0.0383907
-0.0260567
0.0355395
-0.0402597
0.329273
0.326366
0.326923
0.182057
0.310022
0.088907
0.287562
0.0366994
0.264844
0.0114551
0.244576
0.00110764
0.227855
-0.00269595
0.214868
-0.00477424
0.205206
-0.0074725
0.197966
-0.0120333
0.191929
-0.0200191
-0.0341947
0.429535
0.278423
0.441869
0.169723
0.433474
0.0973023
0.415483
0.0546902
0.394996
0.0319423
0.375937
0.0201667
0.360097
0.0131436
0.347952
0.00737079
0.339115
0.00136463
0.332439
-0.00535698
0.326223
-0.0138034
-0.0266475
0.478121
0.215653
0.50222
0.145624
0.502305
0.0972171
0.490269
0.0667265
0.474086
0.048125
0.458306
0.0359473
0.445068
0.0263814
0.435042
0.0173968
0.42794
0.00846619
0.422502
8.1822e-05
0.416579
-0.00788116
-0.017966
0.456407
0.149891
0.486839
0.115191
0.494722
0.0893342
0.490676
0.070773
0.481823
0.0569775
0.472128
0.0456429
0.463351
0.035158
0.456016
0.0247321
0.449984
0.0144977
0.444374
0.00569242
0.437439
-0.000946305
-0.0075417
0.29236
0.105067
0.348367
0.0938835
0.380812
0.0827469
0.397885
0.0722611
0.406112
0.062546
0.409602
0.0534876
0.410377
0.0448682
0.409095
0.0364398
0.405847
0.0279798
0.400852
0.0194929
0.394775
0.011769
0.38825
0.00557923
8.03356e-05
0.154593
0.0518225
0.200463
0.0480137
0.239629
0.0435801
0.272941
0.0389496
0.301108
0.0343785
0.324622
0.0299737
0.343751
0.0257393
0.358573
0.0216185
0.36901
0.0175428
0.374939
0.0135634
0.376678
0.0100304
0.375146
0.00711126
0.00434331
0.136124
0.18102
0.220886
0.255603
0.285313
0.310255
0.330664
0.346712
0.35851
0.36623
0.370362
0.371563
)
;

boundaryField
{
    top
    {
        type            calculated;
        value           nonuniform List<scalar> 
13
(
0.0024879
0.00311841
0.00371412
0.00423244
0.00466852
0.00503122
0.00533074
0.0055707
0.00574415
0.005844
0.00589843
0.00591021
0.00578735
)
;
    }
    bottom
    {
        type            calculated;
        value           uniform 0;
    }
    frontAndBack
    {
        type            empty;
        value           nonuniform 0();
    }
    left_cyc
    {
        type            cyclic;
        value           nonuniform 0();
    }
    right_cyc
    {
        type            cyclic;
        value           nonuniform 0();
    }
    procBoundary1to0
    {
        type            processor;
        value           nonuniform List<scalar> 
16
(
0.379812
0.580505
0.554273
0.431241
0.272738
0.106859
-0.0510656
-0.190676
-0.303499
-0.381592
-0.415351
-0.390645
-0.191778
-0.205649
-0.101349
-0.0867897
)
;
    }
    procBoundary1to2
    {
        type            processor;
        value           nonuniform List<scalar> 
16
(
-0.387082
-0.532987
-0.488586
-0.416056
-0.333912
-0.232389
-0.108188
0.0330963
-0.0653498
0.185864
0.318676
0.407898
0.427015
0.380628
0.370883
0.370119
)
;
    }
}


// ************************************************************************* //
