/*--------------------------------*- C++ -*----------------------------------*\
| =========                 |                                                 |
| \\      /  F ield         | OpenFOAM: The Open Source CFD Toolbox           |
|  \\    /   O peration     | Version:  2.3.0                                 |
|   \\  /    A nd           | Web:      www.OpenFOAM.org                      |
|    \\/     M anipulation  |                                                 |
\*---------------------------------------------------------------------------*/
FoamFile
{
    version     2.0;
    format      ascii;
    class       volScalarField;
    location    "11000";
    object      T;
}
// * * * * * * * * * * * * * * * * * * * * * * * * * * * * * * * * * * * * * //

dimensions      [0 0 0 1 0 0 0];

internalField   nonuniform List<scalar> 
191
(
40.3119
40.0261
39.8374
39.8416
39.9395
40.0331
40.0524
39.9502
39.7616
39.5161
39.2139
38.8442
38.3879
34.4306
33.7735
33.4045
33.2902
33.281
33.2604
33.1538
32.927
32.5323
32.0146
31.3995
30.6908
29.8797
30.6857
29.7233
29.2867
29.0232
28.8203
28.6044
28.3321
27.9816
27.5492
26.9947
26.3314
25.5773
24.7338
28.9463
27.9751
27.5335
27.2318
26.9344
26.611
26.2561
25.8688
25.4492
24.9979
24.5128
23.9979
23.4603
28.4749
27.6913
27.355
27.1316
26.8656
26.5523
26.2173
25.8825
25.56
25.2541
24.9622
24.6745
24.3677
28.634
28.0555
27.8897
27.7821
27.6161
27.3766
27.102
26.8303
26.5851
26.3752
26.1955
26.027
25.8316
29.1811
28.6675
28.6015
28.593
28.5414
28.4026
28.205
27.9891
27.787
27.6157
27.4757
27.3477
27.1882
29.9889
29.5058
29.3911
29.3885
29.3752
29.3182
29.204
29.0494
28.8798
28.7159
28.5658
28.4182
28.2323
30.8499
30.4143
30.2456
30.191
30.149
30.0858
29.9955
29.8744
29.7273
29.5614
29.3786
29.1681
31.6292
31.2542
31.05
30.9257
30.8234
30.7133
30.581
30.4234
30.2395
30.027
29.7773
29.4729
32.1825
31.8418
31.5873
31.3695
31.1574
30.9351
30.6944
30.4309
30.1409
29.8199
29.4466
29.0019
32.1073
31.7111
31.3332
30.9557
30.5686
30.166
29.7427
29.2926
28.8099
28.2921
27.7437
27.1255
30.6464
30.1179
29.5632
28.9917
28.4078
27.8123
27.2016
26.5684
25.9032
25.1999
24.4634
23.7118
22.9614
24.1771
23.6273
23.0258
22.3944
21.745
21.0822
20.4057
19.7112
18.9922
18.2454
17.4794
16.7115
15.9521
10.544
10.2451
9.90262
9.53523
9.15537
8.77014
8.38246
7.9921
7.59741
7.19885
6.80348
6.41903
6.04497
)
;

boundaryField
{
    top
    {
        type            fixedValue;
        value           uniform 0;
    }
    bottom
    {
        type            fixedValue;
        value           uniform 43.8;
    }
    frontAndBack
    {
        type            empty;
    }
    left_cyc
    {
        type            cyclic;
    }
    right_cyc
    {
        type            cyclic;
    }
    procBoundary1to0
    {
        type            processor;
        value           nonuniform List<scalar> 
16
(
40.664
35.5961
32.4097
30.7849
30.1731
30.1525
30.5422
31.1176
31.7294
32.282
32.6696
32.5451
32.5451
31.1235
24.6322
10.7724
)
;
    }
    procBoundary1to2
    {
        type            processor;
        value           nonuniform List<scalar> 
16
(
37.8187
28.9427
23.8043
22.8788
23.9963
25.5459
26.9216
27.9293
28.8948
28.8948
29.0765
28.4475
26.4053
22.1425
15.2366
5.68367
)
;
    }
}


// ************************************************************************* //
