/*--------------------------------*- C++ -*----------------------------------*\
| =========                 |                                                 |
| \\      /  F ield         | OpenFOAM: The Open Source CFD Toolbox           |
|  \\    /   O peration     | Version:  2.3.0                                 |
|   \\  /    A nd           | Web:      www.OpenFOAM.org                      |
|    \\/     M anipulation  |                                                 |
\*---------------------------------------------------------------------------*/
FoamFile
{
    version     2.0;
    format      ascii;
    class       volScalarField;
    location    "21000";
    object      p;
}
// * * * * * * * * * * * * * * * * * * * * * * * * * * * * * * * * * * * * * //

dimensions      [0 2 -2 0 0 0 0];

internalField   nonuniform List<scalar> 
192
(
-1662.41
-1671.25
-1679.91
-1689.09
-1699.7
-1712.7
-1728.58
-1746.72
-1765
-1779.53
-1784.43
-1775.19
-1758.8
-1497.24
-1505.74
-1514.51
-1523.86
-1534.13
-1545.53
-1557.94
-1570.84
-1582.65
-1591.22
-1594.16
-1588.68
-1578.78
-1359.55
-1366.62
-1374.1
-1382.06
-1390.52
-1399.41
-1408.52
-1417.11
-1423.97
-1428.18
-1429.61
-1426.96
-1421.86
-1236.99
-1241.98
-1247.27
-1252.78
-1258.43
-1264.13
-1269.66
-1274.22
-1277
-1277.91
-1278.14
-1277.71
-1276.31
-1118.04
-1120.86
-1123.78
-1126.73
-1129.66
-1132.54
-1135.15
-1136.9
-1137.16
-1136.16
-1135.62
-1136.59
-1137.32
-996.827
-997.816
-998.764
-999.641
-1000.45
-1001.16
-1001.6
-1001.37
-1000.1
-998.039
-997.078
-998.834
-1000.76
-871.258
-870.857
-870.35
-869.758
-869.078
-868.22
-867.06
-865.368
-862.98
-860.239
-859.092
-861.254
-863.991
-741.086
-739.688
-738.179
-736.563
-734.794
-732.756
-730.33
-727.414
-724.08
-720.897
-719.691
-722.024
-725.366
-606.959
-604.802
-602.519
-600.062
-597.347
-594.266
-590.709
-586.708
-582.576
-579.112
-577.881
-580.279
-584.066
-469.817
-466.906
-463.845
-460.535
-456.865
-452.724
-448.067
-443.06
-438.211
-434.491
-433.216
-435.667
-439.857
-331.321
-327.407
-323.33
-318.947
-314.121
-308.755
-302.877
-296.772
-291.108
-286.993
-285.609
-288.19
-292.916
-195.346
-189.913
-184.367
-178.513
-172.18
-165.271
-157.857
-150.319
-143.471
-138.592
-136.958
-139.891
-145.534
-68.0352
-60.1529
-52.0446
-43.5476
-34.5324
-24.9571
-14.9757
-5.08508
3.74514
10.0184
12.1372
8.46969
23.6138
33.2359
42.978
53.0407
63.6933
75.177
87.5321
100.318
112.299
121.21
124.356
119.074
73.9629
69.1643
63.4024
56.68
48.8645
39.7727
29.3279
17.8205
6.33149
-2.87286
-5.86138
-0.558116
)
;

boundaryField
{
    top
    {
        type            calculated;
        value           nonuniform List<scalar> 
12
(
-9.81
-9.81
-9.81
-9.81
-9.81
-9.81
-9.81
-9.81
-9.81
-9.81
-9.81
-9.81
)
;
    }
    bottom
    {
        type            calculated;
        value           nonuniform List<scalar> 
13
(
-1753.43
-1762.39
-1770.94
-1779.89
-1790.32
-1803.44
-1819.93
-1838.72
-1857.88
-1873.57
-1879.12
-1868.8
-1851.3
)
;
    }
    frontAndBack
    {
        type            empty;
    }
    left_cyc
    {
        type            cyclic;
    }
    right_cyc
    {
        type            cyclic;
    }
    procBoundary0to1
    {
        type            processor;
        value           nonuniform List<scalar> 
16
(
-1740.15
-1566.3
-1414.21
-1272.83
-1136.51
-1001.66
-866.144
-728.593
-588.223
-444.855
-298.842
-152.744
1.21628
1.21628
108.924
9.88351
)
;
    }
    procBoundary0to3throughleft_cyc
    {
        type            processorCyclic;
        value           nonuniform List<scalar> 
15
(
-1652.96
-1488.69
-1352.81
-1232.34
-1115.41
-995.846
-871.553
-742.357
-609.01
-472.655
-335.209
-200.864
-75.883
14.1289
77.7768
)
;
    }
}


// ************************************************************************* //
