/*--------------------------------*- C++ -*----------------------------------*\
| =========                 |                                                 |
| \\      /  F ield         | OpenFOAM: The Open Source CFD Toolbox           |
|  \\    /   O peration     | Version:  2.3.0                                 |
|   \\  /    A nd           | Web:      www.OpenFOAM.org                      |
|    \\/     M anipulation  |                                                 |
\*---------------------------------------------------------------------------*/
FoamFile
{
    version     2.0;
    format      ascii;
    class       volScalarField;
    location    "21000";
    object      p_rgh;
}
// * * * * * * * * * * * * * * * * * * * * * * * * * * * * * * * * * * * * * //

dimensions      [0 2 -2 0 0 0 0];

internalField   nonuniform List<scalar> 
192
(
-1753.43
-1762.39
-1770.94
-1779.89
-1790.32
-1803.44
-1819.93
-1838.72
-1857.88
-1873.57
-1879.12
-1868.8
-1851.3
-1722.55
-1732.33
-1741.58
-1750.98
-1761.45
-1774.07
-1789.35
-1807.89
-1829.01
-1849.86
-1859.35
-1842.94
-1821.48
-1679.16
-1689.88
-1700.19
-1710.48
-1721.36
-1733.83
-1749.41
-1771.56
-1801.16
-1835.21
-1852.26
-1823.37
-1789.9
-1650.62
-1661.6
-1672.37
-1682.87
-1693.19
-1704.1
-1718.92
-1743.02
-1780.44
-1828.31
-1853
-1811.39
-1765.55
-1649.42
-1659.15
-1668.85
-1677.96
-1685.98
-1693.68
-1705.45
-1728.58
-1771.42
-1830.87
-1861.5
-1809.85
-1753.79
-1669.32
-1677.25
-1684.93
-1691.29
-1695.56
-1699.13
-1705.93
-1726.77
-1773.34
-1840.79
-1874.75
-1817.25
-1753.76
-1699.8
-1705.77
-1710.7
-1713.42
-1713.46
-1712.79
-1716.85
-1737.62
-1785.28
-1853.5
-1888.18
-1830.1
-1765.57
-1732.76
-1736.31
-1738.12
-1737.85
-1736.5
-1734.92
-1739.58
-1759.54
-1803.11
-1865.32
-1898.94
-1844.27
-1785.52
-1762.39
-1764.58
-1765.46
-1765.19
-1763.97
-1763.94
-1769.58
-1787.36
-1823.62
-1875.5
-1906.21
-1858.38
-1809.5
-1785.31
-1788.88
-1791.22
-1792.49
-1793.38
-1795.41
-1801.48
-1816.05
-1843.73
-1883.38
-1909.51
-1870.98
-1833.61
-1787.06
-1795.38
-1802.51
-1808.55
-1813.84
-1819.25
-1826.52
-1838.54
-1858.53
-1886.52
-1906.96
-1878.66
-1852.11
-1732.89
-1750.55
-1766.8
-1781.73
-1795.45
-1808.21
-1820.7
-1834.34
-1851.01
-1871.14
-1886.12
-1866.49
-1846.74
-1549.65
-1579.02
-1606.5
-1632.44
-1657.08
-1680.49
-1702.69
-1723.85
-1744.25
-1763.32
-1774.92
-1759.5
-1151.64
-1185.71
-1218.29
-1249.53
-1279.36
-1307.46
-1333.38
-1356.68
-1376.98
-1393.4
-1401.18
-1390.2
-427.427
-458.192
-489.666
-521.939
-555.099
-589.059
-623.329
-656.696
-686.731
-709.26
-717.183
-704.14
)
;

boundaryField
{
    top
    {
        type            fixedValue;
        value           uniform 0;
    }
    bottom
    {
        type            fixedFluxPressure;
        gradient        uniform 0;
        value           nonuniform List<scalar> 
13
(
-1753.43
-1762.39
-1770.94
-1779.89
-1790.32
-1803.44
-1819.93
-1838.72
-1857.88
-1873.57
-1879.12
-1868.8
-1851.3
)
;
    }
    frontAndBack
    {
        type            empty;
    }
    left_cyc
    {
        type            cyclic;
    }
    right_cyc
    {
        type            cyclic;
    }
    procBoundary0to1
    {
        type            processor;
        value           nonuniform List<scalar> 
16
(
-1831.84
-1801.06
-1762.69
-1732.88
-1718.37
-1716.88
-1727.68
-1750.39
-1779.75
-1810.45
-1834.77
-1830.99
-1739.49
-1739.49
-1372.23
-678.525
)
;
    }
    procBoundary0to3throughleft_cyc
    {
        type            processorCyclic;
        value           nonuniform List<scalar> 
15
(
-1743.6
-1711.72
-1667.83
-1639.46
-1640.07
-1661.9
-1693.85
-1728.26
-1759
-1780.55
-1777.49
-1713.69
-1518.16
-1115.73
-397.347
)
;
    }
}


// ************************************************************************* //
