/*--------------------------------*- C++ -*----------------------------------*\
| =========                 |                                                 |
| \\      /  F ield         | OpenFOAM: The Open Source CFD Toolbox           |
|  \\    /   O peration     | Version:  2.3.0                                 |
|   \\  /    A nd           | Web:      www.OpenFOAM.org                      |
|    \\/     M anipulation  |                                                 |
\*---------------------------------------------------------------------------*/
FoamFile
{
    version     2.0;
    format      ascii;
    class       volScalarField;
    location    "21000";
    object      T;
}
// * * * * * * * * * * * * * * * * * * * * * * * * * * * * * * * * * * * * * //

dimensions      [0 0 0 1 0 0 0];

internalField   nonuniform List<scalar> 
192
(
40.0069
40.0649
40.0156
39.9126
39.8353
39.8877
40.1524
40.4368
40.8214
41.3342
41.6171
41.1423
40.6583
33.0396
33.2244
33.2965
33.3032
33.3328
33.5106
33.9282
34.7528
36.1117
37.9052
38.8615
37.266
35.577
28.1408
28.4613
28.7091
28.9129
29.1255
29.4381
30.0054
31.1932
33.1852
35.7989
37.1674
34.8687
32.3831
26.0245
26.3995
26.7422
27.0545
27.3469
27.6728
28.2543
29.4764
31.644
34.5822
36.1127
33.5358
30.7557
26.0037
26.34
26.6701
26.9697
27.2177
27.4522
27.8978
28.9386
31.0109
33.9521
35.4692
32.9083
30.1448
26.9206
27.1971
27.465
27.6834
27.8213
27.9352
28.1884
29.0274
30.9324
33.7001
35.0907
32.7311
30.1264
28.0586
28.2734
28.4565
28.568
28.5924
28.5988
28.7746
29.5316
31.2178
33.6085
34.8155
32.7858
30.5194
29.1
29.2447
29.3416
29.3808
29.3931
29.4063
29.6133
30.2814
31.6508
33.5605
34.5772
32.9129
31.0996
29.9125
30.0245
30.1062
30.1625
30.201
30.2796
30.5166
31.0776
32.1183
33.5443
34.3672
33.0732
31.7162
30.4689
30.6182
30.7426
30.8484
30.9534
31.0957
31.343
31.7942
32.5441
33.544
34.1758
33.2309
32.2729
30.5057
30.761
30.9947
31.2121
31.4232
31.6477
31.9221
32.3001
32.8352
33.5048
33.96
33.3159
32.6635
29.4234
29.8632
30.2782
30.6741
31.056
31.4305
31.8095
32.2129
32.6608
33.137
33.4534
33.0237
32.54
26.1012
26.7537
27.3772
27.9807
28.5703
29.1481
29.7119
30.256
30.7681
31.2121
31.4525
31.1181
19.2084
19.9173
20.6038
21.2738
21.9305
22.5727
23.1936
23.779
24.3027
24.7136
24.8908
24.627
7.71594
8.10813
8.49647
8.88236
9.26516
9.64076
10.0006
10.3307
10.6109
10.8121
10.8866
10.7697
)
;

boundaryField
{
    top
    {
        type            fixedValue;
        value           uniform 0;
    }
    bottom
    {
        type            fixedValue;
        value           uniform 43.8;
    }
    frontAndBack
    {
        type            empty;
    }
    left_cyc
    {
        type            cyclic;
    }
    right_cyc
    {
        type            cyclic;
    }
    procBoundary0to1
    {
        type            processor;
        value           nonuniform List<scalar> 
16
(
40.3074
34.418
30.6701
28.9293
28.4603
28.6219
29.1703
29.9798
30.8427
31.6238
32.1783
32.1028
30.6405
30.6405
24.1708
10.5406
)
;
    }
    procBoundary0to3throughleft_cyc
    {
        type            processorCyclic;
        value           nonuniform List<scalar> 
15
(
39.8419
32.7057
27.7385
25.6168
25.6766
26.6644
27.8483
28.9317
29.7725
30.2936
30.2251
28.9528
25.4119
18.4721
7.31923
)
;
    }
}


// ************************************************************************* //
