/*--------------------------------*- C++ -*----------------------------------*\
| =========                 |                                                 |
| \\      /  F ield         | OpenFOAM: The Open Source CFD Toolbox           |
|  \\    /   O peration     | Version:  2.3.0                                 |
|   \\  /    A nd           | Web:      www.OpenFOAM.org                      |
|    \\/     M anipulation  |                                                 |
\*---------------------------------------------------------------------------*/
FoamFile
{
    version     2.0;
    format      ascii;
    class       volVectorField;
    location    "21000";
    object      U;
}
// * * * * * * * * * * * * * * * * * * * * * * * * * * * * * * * * * * * * * //

dimensions      [0 1 -1 0 0 0 0];

internalField   nonuniform List<vector> 
192
(
(46.1624 0 0.556473)
(46.2937 0 -0.0276036)
(47.7012 0 -0.804426)
(50.5621 0 -1.66608)
(54.6434 0 -2.32309)
(58.9382 0 -2.27702)
(61.3807 0 -0.923382)
(58.8855 0 2.06254)
(47.9188 0 6.5256)
(25.7757 0 11.3191)
(-5.66586 0 13.301)
(-34.9493 0 9.77852)
(-53.0308 0 4.85511)
(81.2377 0 0.0840811)
(82.9367 0 -1.63641)
(85.7356 0 -3.68818)
(89.5568 0 -5.60869)
(93.8377 0 -6.47798)
(97.2281 0 -4.87432)
(97.3177 0 0.834091)
(90.417 0 11.9024)
(72.0545 0 28.0421)
(38.4765 0 45.2213)
(-8.46912 0 52.1194)
(-52.184 0 39.748)
(-80.1657 0 22.0329)
(85.552 0 -1.94567)
(87.9716 0 -4.43845)
(90.829 0 -7.19574)
(93.8812 0 -9.40321)
(96.5262 0 -9.56568)
(97.6166 0 -5.4299)
(95.2398 0 5.72148)
(86.566 0 26.2512)
(67.9593 0 56.0181)
(36.0648 0 87.8987)
(-7.91695 0 100.504)
(-48.9148 0 77.7467)
(-75.883 0 44.8996)
(76.6056 0 -4.19839)
(78.5856 0 -6.84537)
(80.4372 0 -9.5588)
(81.8572 0 -11.2946)
(82.3288 0 -10.2174)
(81.0238 0 -3.58057)
(76.6964 0 11.9986)
(67.6472 0 39.5749)
(51.7242 0 79.2889)
(26.9322 0 121.917)
(-5.81805 0 138.596)
(-36.6066 0 108.363)
(-58.1647 0 64.4457)
(60.9624 0 -5.80721)
(61.8131 0 -8.18851)
(62.1482 0 -10.3902)
(61.6979 0 -11.2393)
(60.1037 0 -8.72731)
(56.8886 0 0.131236)
(51.4477 0 18.9962)
(43.1365 0 51.1478)
(31.2681 0 96.7178)
(15.5201 0 145.161)
(-3.19097 0 163.852)
(-21.231 0 129.864)
(-35.7137 0 79.7802)
(40.2506 0 -6.25397)
(39.7985 0 -8.07307)
(38.6428 0 -9.49992)
(36.6151 0 -9.32808)
(33.551 0 -5.51588)
(29.3108 0 4.94315)
(23.8519 0 25.6666)
(17.357 0 59.7918)
(10.3696 0 107.104)
(4.11391 0 156.423)
(-0.59167 0 175.135)
(-5.80261 0 141.047)
(-12.603 0 89.7088)
(15.8956 0 -5.47524)
(14.3551 0 -6.6182)
(12.112 0 -7.25204)
(9.1154 0 -6.20073)
(5.37542 0 -1.47855)
(1.04042 0 9.78065)
(-3.47174 0 30.932)
(-7.32914 0 64.6767)
(-8.96125 0 110.161)
(-6.07217 0 156.204)
(1.67165 0 173.386)
(8.07387 0 142.122)
(8.99974 0 93.7115)
(-9.7196 0 -3.79545)
(-11.9131 0 -4.30142)
(-14.7235 0 -4.27166)
(-18.1091 0 -2.59713)
(-21.9062 0 2.56469)
(-25.6945 0 13.7967)
(-28.6463 0 34.0391)
(-29.3152 0 65.3098)
(-25.4265 0 106.042)
(-14.369 0 145.863)
(3.4271 0 160.553)
(19.4572 0 133.979)
(27.6574 0 91.626)
(-33.8194 0 -1.68421)
(-36.2207 0 -1.6154)
(-39.1818 0 -1.04955)
(-42.5778 0 0.993275)
(-46.0677 0 6.1211)
(-48.9466 0 16.5227)
(-49.9812 0 34.551)
(-47.2381 0 61.4912)
(-38.1697 0 95.3759)
(-20.4838 0 127.386)
(4.61528 0 139.129)
(27.8704 0 118.108)
(42.3182 0 83.6781)
(-53.6838 0 0.442748)
(-55.9583 0 1.06701)
(-58.7603 0 2.08964)
(-61.8761 0 4.28877)
(-64.799 0 8.93092)
(-66.5725 0 17.7127)
(-65.6324 0 32.3434)
(-59.7848 0 53.5379)
(-46.5524 0 79.3836)
(-24.2797 0 103.09)
(5.23375 0 111.793)
(33.0525 0 96.4405)
(52.1148 0 70.6959)
(-66.4965 0 2.31823)
(-68.3986 0 3.48216)
(-70.7344 0 4.89418)
(-73.2458 0 7.06999)
(-75.3438 0 10.871)
(-75.9447 0 17.4381)
(-73.3543 0 27.8783)
(-65.3638 0 42.5624)
(-49.7599 0 60.0383)
(-25.5133 0 75.7377)
(5.27576 0 81.5555)
(34.6366 0 71.4847)
(55.9866 0 54.3217)
(-69.3637 0 3.61106)
(-70.6442 0 5.14037)
(-72.1032 0 6.72181)
(-73.5352 0 8.61862)
(-74.4341 0 11.2866)
(-73.8364 0 15.3304)
(-70.229 0 21.3368)
(-61.6739 0 29.5026)
(-46.3306 0 39.0493)
(-23.5578 0 47.559)
(4.67346 0 50.7873)
(31.7956 0 45.3285)
(52.2085 0 36.0061)
(-61.4549 0 5.47)
(-61.6994 0 7.2146)
(-61.6478 0 9.01036)
(-61.2383 0 10.9031)
(-60.2256 0 12.9739)
(-58.0665 0 15.3254)
(-53.8448 0 18.05)
(-46.3334 0 21.1589)
(-34.3226 0 24.4475)
(-17.3631 0 27.2912)
(3.29012 0 28.4196)
(23.2388 0 26.5802)
(-54.3653 0 3.11459)
(-52.2685 0 3.92486)
(-49.5276 0 4.71845)
(-46.1366 0 5.51658)
(-42.0609 0 6.32463)
(-37.2329 0 7.12562)
(-31.5499 0 7.87589)
(-24.885 0 8.50645)
(-17.1214 0 8.94051)
(-8.25485 0 9.14051)
(1.4564 0 9.1631)
(11.0191 0 9.0999)
(-52.6228 0 2.93171)
(-50.3428 0 3.11695)
(-47.4143 0 3.28748)
(-43.8136 0 3.44764)
(-39.5062 0 3.59941)
(-34.4543 0 3.74134)
(-28.6299 0 3.86831)
(-22.0377 0 3.97214)
(-14.7452 0 4.04449)
(-6.91385 0 4.08217)
(1.2071 0 4.09322)
(9.27615 0 4.0756)
)
;

boundaryField
{
    top
    {
        type            directionMixed;
        refValue        uniform (0 0 0);
        refGradient     uniform (0 0 0);
        valueFraction   uniform (0 0 0 0 0 1);
        value           nonuniform List<vector> 
12
(
(-52.6228 0 0)
(-50.3428 0 0)
(-47.4143 0 0)
(-43.8136 0 0)
(-39.5062 0 0)
(-34.4543 0 0)
(-28.6299 0 0)
(-22.0377 0 0)
(-14.7452 0 0)
(-6.91385 0 0)
(1.2071 0 0)
(9.27615 0 0)
)
;
    }
    bottom
    {
        type            fixedValue;
        value           uniform (0 0 0);
    }
    frontAndBack
    {
        type            empty;
    }
    left_cyc
    {
        type            cyclic;
    }
    right_cyc
    {
        type            cyclic;
    }
    procBoundary0to1
    {
        type            processor;
        value           nonuniform List<vector> 
16
(
(-60.6895 0 0.831284)
(-94.0707 0 7.41788)
(-90.6265 0 17.966)
(-71.4728 0 28.4973)
(-46.3354 0 38.3533)
(-19.604 0 46.3785)
(6.26402 0 51.6075)
(29.5765 0 53.4154)
(48.8407 0 51.4517)
(62.5352 0 45.808)
(68.8229 0 37.3255)
(65.1711 0 26.6577)
(38.6848 0 23.4533)
(38.6848 0 23.4533)
(19.5606 0 8.83242)
(16.9665 0 4.02927)
)
;
    }
    procBoundary0to3throughleft_cyc
    {
        type            processorCyclic;
        value           nonuniform List<vector> 
15
(
(46.9817 0 0.957956)
(80.4669 0 1.32762)
(83.5945 0 -0.059306)
(74.6469 0 -2.1208)
(59.7904 0 -3.85857)
(40.1616 0 -4.69733)
(16.8229 0 -4.46091)
(-8.11508 0 -3.3436)
(-31.9852 0 -1.76686)
(-51.9767 0 -0.170469)
(-65.0939 0 1.18024)
(-68.3121 0 2.0634)
(-60.9183 0 3.7844)
(-55.8052 0 2.27338)
(-54.2676 0 2.729)
)
;
    }
}


// ************************************************************************* //
