/*--------------------------------*- C++ -*----------------------------------*\
| =========                 |                                                 |
| \\      /  F ield         | OpenFOAM: The Open Source CFD Toolbox           |
|  \\    /   O peration     | Version:  2.3.0                                 |
|   \\  /    A nd           | Web:      www.OpenFOAM.org                      |
|    \\/     M anipulation  |                                                 |
\*---------------------------------------------------------------------------*/
FoamFile
{
    version     2.0;
    format      ascii;
    class       volScalarField;
    location    "20000";
    object      p;
}
// * * * * * * * * * * * * * * * * * * * * * * * * * * * * * * * * * * * * * //

dimensions      [0 2 -2 0 0 0 0];

internalField   nonuniform List<scalar> 
192
(
-1662.4
-1671.24
-1679.9
-1689.08
-1699.69
-1712.68
-1728.56
-1746.7
-1764.98
-1779.52
-1784.44
-1775.21
-1758.83
-1497.23
-1505.73
-1514.49
-1523.85
-1534.11
-1545.51
-1557.93
-1570.82
-1582.63
-1591.21
-1594.16
-1588.69
-1578.8
-1359.54
-1366.61
-1374.09
-1382.05
-1390.5
-1399.4
-1408.51
-1417.1
-1423.96
-1428.17
-1429.61
-1426.96
-1421.87
-1236.99
-1241.98
-1247.27
-1252.78
-1258.42
-1264.13
-1269.65
-1274.22
-1277
-1277.91
-1278.14
-1277.72
-1276.32
-1118.04
-1120.85
-1123.78
-1126.72
-1129.65
-1132.53
-1135.15
-1136.9
-1137.16
-1136.16
-1135.62
-1136.59
-1137.32
-996.826
-997.816
-998.763
-999.641
-1000.45
-1001.16
-1001.6
-1001.37
-1000.1
-998.042
-997.077
-998.831
-1000.76
-871.259
-870.858
-870.352
-869.759
-869.08
-868.222
-867.062
-865.371
-862.984
-860.243
-859.091
-861.25
-863.987
-741.088
-739.69
-738.181
-736.566
-734.797
-732.759
-730.335
-727.419
-724.085
-720.902
-719.69
-722.02
-725.362
-606.962
-604.805
-602.522
-600.066
-597.351
-594.271
-590.714
-586.714
-582.582
-579.117
-577.88
-580.275
-584.06
-469.821
-466.91
-463.849
-460.54
-456.87
-452.73
-448.074
-443.067
-438.218
-434.496
-433.215
-435.662
-439.85
-331.326
-327.412
-323.335
-318.953
-314.128
-308.763
-302.885
-296.78
-291.115
-286.997
-285.608
-288.185
-292.909
-195.353
-189.92
-184.374
-178.521
-172.189
-165.28
-157.867
-150.329
-143.479
-138.597
-136.957
-139.885
-145.525
-68.0452
-60.1631
-52.0552
-43.5587
-34.5443
-24.9696
-14.9883
-5.09689
3.73591
10.0137
12.1397
8.47766
23.6019
33.2239
42.9658
53.028
63.6797
75.1623
87.5167
100.303
112.287
121.204
124.36
119.085
73.9697
69.1725
63.4119
56.6909
48.877
39.787
29.3439
17.8372
6.34645
-2.86431
-5.8633
-0.568376
)
;

boundaryField
{
    top
    {
        type            calculated;
        value           nonuniform List<scalar> 
12
(
-9.81
-9.81
-9.81
-9.81
-9.81
-9.81
-9.81
-9.81
-9.81
-9.81
-9.81
-9.81
)
;
    }
    bottom
    {
        type            calculated;
        value           nonuniform List<scalar> 
13
(
-1753.41
-1762.38
-1770.93
-1779.87
-1790.31
-1803.42
-1819.9
-1838.69
-1857.85
-1873.56
-1879.13
-1868.82
-1851.33
)
;
    }
    frontAndBack
    {
        type            empty;
    }
    left_cyc
    {
        type            cyclic;
    }
    right_cyc
    {
        type            cyclic;
    }
    procBoundary0to1
    {
        type            processor;
        value           nonuniform List<scalar> 
16
(
-1740.17
-1566.32
-1414.22
-1272.83
-1136.51
-1001.66
-866.142
-728.589
-588.218
-444.848
-298.833
-152.734
1.22766
1.22766
108.94
9.86973
)
;
    }
    procBoundary0to3throughleft_cyc
    {
        type            processorCyclic;
        value           nonuniform List<scalar> 
15
(
-1652.95
-1488.68
-1352.81
-1232.34
-1115.41
-995.845
-871.554
-742.359
-609.013
-472.659
-335.214
-200.871
-75.893
14.1173
77.7824
)
;
    }
}


// ************************************************************************* //
