/*--------------------------------*- C++ -*----------------------------------*\
| =========                 |                                                 |
| \\      /  F ield         | OpenFOAM: The Open Source CFD Toolbox           |
|  \\    /   O peration     | Version:  2.3.0                                 |
|   \\  /    A nd           | Web:      www.OpenFOAM.org                      |
|    \\/     M anipulation  |                                                 |
\*---------------------------------------------------------------------------*/
FoamFile
{
    version     2.0;
    format      ascii;
    class       volScalarField;
    location    "20000";
    object      p_rgh;
}
// * * * * * * * * * * * * * * * * * * * * * * * * * * * * * * * * * * * * * //

dimensions      [0 2 -2 0 0 0 0];

internalField   nonuniform List<scalar> 
192
(
-1753.41
-1762.38
-1770.93
-1779.87
-1790.31
-1803.42
-1819.9
-1838.69
-1857.85
-1873.56
-1879.13
-1868.82
-1851.33
-1722.54
-1732.31
-1741.57
-1750.97
-1761.44
-1774.05
-1789.33
-1807.87
-1828.98
-1849.84
-1859.36
-1842.97
-1821.51
-1679.14
-1689.87
-1700.18
-1710.47
-1721.35
-1733.81
-1749.39
-1771.53
-1801.12
-1835.16
-1852.27
-1823.42
-1789.94
-1650.61
-1661.59
-1672.36
-1682.86
-1693.18
-1704.09
-1718.9
-1742.98
-1780.38
-1828.24
-1853.02
-1811.45
-1765.61
-1649.41
-1659.13
-1668.84
-1677.94
-1685.97
-1693.67
-1705.43
-1728.54
-1771.35
-1830.78
-1861.52
-1809.93
-1753.85
-1669.31
-1677.24
-1684.92
-1691.28
-1695.56
-1699.13
-1705.91
-1726.73
-1773.26
-1840.7
-1874.78
-1817.35
-1753.83
-1699.79
-1705.76
-1710.69
-1713.42
-1713.46
-1712.79
-1716.84
-1737.58
-1785.2
-1853.41
-1888.21
-1830.19
-1765.64
-1732.75
-1736.31
-1738.13
-1737.85
-1736.5
-1734.92
-1739.57
-1759.5
-1803.03
-1865.24
-1898.97
-1844.36
-1785.58
-1762.38
-1764.57
-1765.46
-1765.2
-1763.97
-1763.94
-1769.57
-1787.32
-1823.56
-1875.43
-1906.24
-1858.45
-1809.55
-1785.31
-1788.88
-1791.22
-1792.49
-1793.38
-1795.41
-1801.47
-1816.02
-1843.68
-1883.33
-1909.54
-1871.03
-1833.65
-1787.05
-1795.37
-1802.5
-1808.54
-1813.84
-1819.24
-1826.51
-1838.52
-1858.5
-1886.49
-1906.98
-1878.7
-1852.13
-1732.87
-1750.53
-1766.78
-1781.71
-1795.44
-1808.2
-1820.69
-1834.33
-1851
-1871.13
-1886.14
-1866.51
-1846.76
-1549.62
-1578.98
-1606.47
-1632.41
-1657.06
-1680.46
-1702.67
-1723.83
-1744.23
-1763.31
-1774.94
-1759.53
-1151.59
-1185.67
-1218.25
-1249.49
-1279.33
-1307.43
-1333.36
-1356.66
-1376.97
-1393.4
-1401.2
-1390.22
-427.388
-458.153
-489.626
-521.898
-555.057
-589.017
-623.289
-656.659
-686.703
-709.247
-717.194
-704.17
)
;

boundaryField
{
    top
    {
        type            fixedValue;
        value           uniform 0;
    }
    bottom
    {
        type            fixedFluxPressure;
        gradient        uniform 0;
        value           nonuniform List<scalar> 
13
(
-1753.41
-1762.38
-1770.93
-1779.87
-1790.31
-1803.42
-1819.9
-1838.69
-1857.85
-1873.56
-1879.13
-1868.82
-1851.33
)
;
    }
    frontAndBack
    {
        type            empty;
    }
    left_cyc
    {
        type            cyclic;
    }
    right_cyc
    {
        type            cyclic;
    }
    procBoundary0to1
    {
        type            processor;
        value           nonuniform List<scalar> 
16
(
-1831.87
-1801.09
-1762.72
-1732.92
-1718.4
-1716.91
-1727.71
-1750.42
-1779.78
-1810.47
-1834.79
-1831.01
-1739.52
-1739.52
-1372.25
-678.565
)
;
    }
    procBoundary0to3throughleft_cyc
    {
        type            processorCyclic;
        value           nonuniform List<scalar> 
15
(
-1743.58
-1711.7
-1667.81
-1639.44
-1640.06
-1661.89
-1693.84
-1728.26
-1759
-1780.54
-1777.48
-1713.67
-1518.12
-1115.69
-397.308
)
;
    }
}


// ************************************************************************* //
