/*--------------------------------*- C++ -*----------------------------------*\
| =========                 |                                                 |
| \\      /  F ield         | OpenFOAM: The Open Source CFD Toolbox           |
|  \\    /   O peration     | Version:  2.3.0                                 |
|   \\  /    A nd           | Web:      www.OpenFOAM.org                      |
|    \\/     M anipulation  |                                                 |
\*---------------------------------------------------------------------------*/
FoamFile
{
    version     2.0;
    format      ascii;
    class       volScalarField;
    location    "20000";
    object      T;
}
// * * * * * * * * * * * * * * * * * * * * * * * * * * * * * * * * * * * * * //

dimensions      [0 0 0 1 0 0 0];

internalField   nonuniform List<scalar> 
192
(
40.0067
40.0649
40.0157
39.9127
39.8353
39.8875
40.1519
40.4363
40.8207
41.3334
41.6173
41.1431
40.659
33.0392
33.2242
33.2964
33.3032
33.3326
33.5101
33.9275
34.7514
36.1095
37.9027
38.8624
37.2687
35.5791
28.1402
28.4608
28.7087
28.9126
29.1251
29.4375
30.0042
31.1909
33.1819
35.7953
37.1686
34.8724
32.3861
26.0239
26.399
26.7417
27.0541
27.3465
27.6722
28.2531
29.474
31.6403
34.5782
36.114
33.54
30.759
26.0033
26.3395
26.6697
26.9694
27.2174
27.4518
27.8968
28.9365
31.0073
33.9481
35.4705
32.9125
30.148
26.9202
27.1967
27.4647
27.6832
27.8212
27.935
28.1877
29.0255
30.929
33.6964
35.0919
32.735
30.1293
28.0583
28.2731
28.4563
28.5679
28.5923
28.5988
28.774
29.5299
31.2148
33.6054
34.8165
32.7891
30.5219
29.0998
29.2446
29.3416
29.3809
29.3931
29.4062
29.6128
30.28
31.6484
33.5579
34.5781
32.9155
31.1016
29.9124
30.0243
30.1061
30.1625
30.2009
30.2795
30.5161
31.0765
32.1166
33.5424
34.3679
33.0751
31.7176
30.4687
30.618
30.7425
30.8483
30.9533
31.0954
31.3426
31.7934
32.5429
33.5427
34.1764
33.2322
32.2739
30.5054
30.7607
30.9944
31.2118
31.4229
31.6475
31.9217
32.2996
32.8345
33.504
33.9605
33.3167
32.6641
29.4229
29.8627
30.2777
30.6736
31.0556
31.4301
31.8091
32.2125
32.6603
33.1366
33.4538
33.0243
32.5406
26.1004
26.753
27.3765
27.98
28.5696
29.1475
29.7113
30.2555
30.7676
31.2119
31.4529
31.1187
19.2075
19.9164
20.603
21.273
21.9298
22.572
23.193
23.7784
24.3023
24.7134
24.8911
24.6276
7.71545
8.10765
8.496
8.88191
9.26472
9.64034
10.0002
10.3304
10.6107
10.812
10.8868
10.77
)
;

boundaryField
{
    top
    {
        type            fixedValue;
        value           uniform 0;
    }
    bottom
    {
        type            fixedValue;
        value           uniform 43.8;
    }
    frontAndBack
    {
        type            empty;
    }
    left_cyc
    {
        type            cyclic;
    }
    right_cyc
    {
        type            cyclic;
    }
    procBoundary0to1
    {
        type            processor;
        value           nonuniform List<scalar> 
16
(
40.3079
34.4194
30.6719
28.9312
28.4619
28.6233
29.1715
29.9808
30.8435
31.6244
32.1788
32.1033
30.6411
30.6411
24.1715
10.541
)
;
    }
    procBoundary0to3throughleft_cyc
    {
        type            processorCyclic;
        value           nonuniform List<scalar> 
15
(
39.8416
32.7051
27.7378
25.6161
25.6762
26.6641
27.848
28.9315
29.7723
30.2934
30.2247
28.9522
25.411
18.4711
7.31873
)
;
    }
}


// ************************************************************************* //
