/*--------------------------------*- C++ -*----------------------------------*\
| =========                 |                                                 |
| \\      /  F ield         | OpenFOAM: The Open Source CFD Toolbox           |
|  \\    /   O peration     | Version:  2.3.0                                 |
|   \\  /    A nd           | Web:      www.OpenFOAM.org                      |
|    \\/     M anipulation  |                                                 |
\*---------------------------------------------------------------------------*/
FoamFile
{
    version     2.0;
    format      ascii;
    class       volVectorField;
    location    "20000";
    object      U;
}
// * * * * * * * * * * * * * * * * * * * * * * * * * * * * * * * * * * * * * //

dimensions      [0 1 -1 0 0 0 0];

internalField   nonuniform List<vector> 
192
(
(46.1632 0 0.557161)
(46.2928 0 -0.0266474)
(47.6984 0 -0.803251)
(50.5574 0 -1.66496)
(54.6375 0 -2.32257)
(58.9333 0 -2.27787)
(61.3803 0 -0.926288)
(58.8944 0 2.05725)
(47.9415 0 6.51876)
(25.8148 0 11.3134)
(-5.62102 0 13.3026)
(-34.9158 0 9.78497)
(-53.0131 0 4.86149)
(81.2361 0 0.0861519)
(82.9338 0 -1.63374)
(85.7311 0 -3.6853)
(89.5512 0 -5.60655)
(93.8322 0 -6.47824)
(97.2254 0 -4.8792)
(97.3219 0 0.822657)
(90.4339 0 11.8833)
(72.09 0 28.0176)
(38.5346 0 45.2012)
(-8.40231 0 52.1249)
(-52.1339 0 39.7711)
(-80.1372 0 22.056)
(85.5491 0 -1.94261)
(87.9681 0 -4.43473)
(90.825 0 -7.1921)
(93.8772 0 -9.40124)
(96.5235 0 -9.56798)
(97.6171 0 -5.44003)
(95.2469 0 5.69989)
(86.5842 0 26.216)
(67.9937 0 55.9728)
(36.1192 0 87.8617)
(-7.85461 0 100.515)
(-48.8678 0 77.7898)
(-75.8548 0 44.9422)
(76.6029 0 -4.1951)
(78.5831 0 -6.84155)
(80.435 0 -9.55548)
(81.8558 0 -11.2937)
(82.3292 0 -10.2221)
(81.0274 0 -3.5953)
(76.7053 0 11.9692)
(67.6639 0 39.5279)
(51.7519 0 79.2283)
(26.9729 0 121.867)
(-5.77209 0 138.609)
(-36.5707 0 108.42)
(-58.1412 0 64.5024)
(60.9611 0 -5.80419)
(61.8124 0 -8.18523)
(62.1483 0 -10.3879)
(61.6993 0 -11.24)
(60.1071 0 -8.73452)
(56.8945 0 0.112845)
(51.4571 0 18.9615)
(43.1502 0 51.0937)
(31.287 0 96.6489)
(15.5438 0 145.106)
(-3.1655 0 163.867)
(-21.2091 0 129.929)
(-35.6969 0 79.845)
(40.2509 0 -6.25162)
(39.7997 0 -8.07071)
(38.6451 0 -9.49878)
(36.6187 0 -9.33037)
(33.5562 0 -5.52508)
(29.3177 0 4.92242)
(23.8603 0 25.6293)
(17.3664 0 59.7351)
(10.3788 0 107.033)
(4.12064 0 156.368)
(-0.586535 0 175.15)
(-5.79524 0 141.113)
(-12.594 0 89.7757)
(15.8975 0 -5.47374)
(14.3579 0 -6.61686)
(12.1159 0 -7.25206)
(9.12027 0 -6.20426)
(5.38124 0 -1.48896)
(1.04682 0 9.75907)
(-3.46559 0 30.8947)
(-7.32491 0 64.6216)
(-8.9618 0 110.095)
(-6.08088 0 156.153)
(1.65898 0 173.4)
(8.06757 0 142.182)
(9.00048 0 93.7752)
(-9.7167 0 -3.79478)
(-11.9094 0 -4.30099)
(-14.7189 0 -4.27258)
(-18.1038 0 -2.60141)
(-21.9006 0 2.55394)
(-25.6894 0 13.7756)
(-28.6432 0 34.0039)
(-29.3167 0 65.2597)
(-25.4363 0 105.984)
(-14.3905 0 145.821)
(3.40049 0 160.565)
(19.4392 0 134.031)
(27.6499 0 91.6824)
(-33.8161 0 -1.6843)
(-36.2166 0 -1.61574)
(-39.1771 0 -1.05113)
(-42.5726 0 0.988693)
(-46.0628 0 6.11087)
(-48.9433 0 16.5036)
(-49.9816 0 34.5203)
(-47.2455 0 61.449)
(-38.1877 0 95.3289)
(-20.5148 0 127.354)
(4.57908 0 139.139)
(27.8433 0 118.149)
(42.3035 0 83.7244)
(-53.6806 0 0.441937)
(-55.9545 0 1.06598)
(-58.7559 0 2.08761)
(-61.8715 0 4.28433)
(-64.7952 0 8.92202)
(-66.5713 0 17.6969)
(-65.6363 0 32.3189)
(-59.7972 0 53.5054)
(-46.5764 0 79.3488)
(-24.3165 0 103.067)
(5.19236 0 111.801)
(33.0199 0 96.4708)
(52.0947 0 70.7307)
(-66.4939 0 2.3167)
(-68.3953 0 3.48049)
(-70.7308 0 4.89186)
(-73.2423 0 7.06609)
(-75.3415 0 10.8641)
(-75.9455 0 17.4266)
(-73.361 0 27.8612)
(-65.3795 0 42.5404)
(-49.787 0 60.0155)
(-25.5518 0 75.7231)
(5.23371 0 81.5611)
(34.6023 0 71.5045)
(55.964 0 54.3449)
(-69.3618 0 3.609)
(-70.6421 0 5.13833)
(-72.1009 0 6.71953)
(-73.5333 0 8.61563)
(-74.4335 0 11.2822)
(-73.8389 0 15.3236)
(-70.2369 0 21.3272)
(-61.69 0 29.4906)
(-46.3565 0 39.0371)
(-23.5929 0 47.5515)
(4.6359 0 50.7905)
(31.7645 0 45.3391)
(52.1872 0 36.0186)
(-61.4542 0 5.46774)
(-61.699 0 7.2123)
(-61.6478 0 9.00797)
(-61.239 0 10.9005)
(-60.2275 0 12.971)
(-58.0705 0 15.3221)
(-53.8525 0 18.0463)
(-46.3464 0 21.1548)
(-34.342 0 24.4436)
(-17.3884 0 27.2889)
(3.26342 0 28.4208)
(23.2164 0 26.5837)
(-54.3672 0 3.11351)
(-52.2713 0 3.92382)
(-49.5312 0 4.71742)
(-46.1411 0 5.51554)
(-42.0664 0 6.32359)
(-37.2394 0 7.12463)
(-31.5575 0 7.87501)
(-24.8941 0 8.5058)
(-17.1319 0 8.94016)
(-8.26661 0 9.14042)
(1.4444 0 9.16313)
(11.0081 0 9.10014)
(-52.625 0 2.93148)
(-50.3459 0 3.11675)
(-47.4182 0 3.28729)
(-43.8183 0 3.44747)
(-39.512 0 3.59925)
(-34.461 0 3.7412)
(-28.6376 0 3.8682)
(-22.0463 0 3.97207)
(-14.7546 0 4.04447)
(-6.92374 0 4.08218)
(1.19713 0 4.09327)
(9.26654 0 4.07567)
)
;

boundaryField
{
    top
    {
        type            directionMixed;
        refValue        uniform (0 0 0);
        refGradient     uniform (0 0 0);
        valueFraction   uniform (0 0 0 0 0 1);
        value           nonuniform List<vector> 
12
(
(-52.625 0 0)
(-50.3459 0 0)
(-47.4182 0 0)
(-43.8183 0 0)
(-39.512 0 0)
(-34.461 0 0)
(-28.6376 0 0)
(-22.0463 0 0)
(-14.7546 0 0)
(-6.92374 0 0)
(1.19713 0 0)
(9.26654 0 0)
)
;
    }
    bottom
    {
        type            fixedValue;
        value           uniform (0 0 0);
    }
    frontAndBack
    {
        type            empty;
    }
    left_cyc
    {
        type            cyclic;
    }
    right_cyc
    {
        type            cyclic;
    }
    procBoundary0to1
    {
        type            processor;
        value           nonuniform List<vector> 
16
(
(-60.6842 0 0.835766)
(-94.0589 0 7.43429)
(-90.6127 0 17.9962)
(-71.4591 0 28.5377)
(-46.3234 0 38.4001)
(-19.5953 0 46.4279)
(6.26846 0 51.656)
(29.5761 0 53.4598)
(48.8354 0 51.4895)
(62.5257 0 45.8374)
(68.8109 0 37.3455)
(65.159 0 26.6687)
(38.6689 0 23.4575)
(38.6689 0 23.4575)
(19.551 0 8.83296)
(16.9576 0 4.02938)
)
;
    }
    procBoundary0to3throughleft_cyc
    {
        type            processorCyclic;
        value           nonuniform List<vector> 
15
(
(46.9836 0 0.958433)
(80.4664 0 1.32903)
(83.5921 0 -0.0571902)
(74.6442 0 -2.11849)
(59.7887 0 -3.85643)
(40.1613 0 -4.69567)
(16.8241 0 -4.4599)
(-8.11293 0 -3.34329)
(-31.9826 0 -1.76719)
(-51.9742 0 -0.171418)
(-65.0919 0 1.17869)
(-68.3105 0 2.06135)
(-60.9171 0 3.78226)
(-55.8063 0 2.27227)
(-54.2689 0 2.72875)
)
;
    }
}


// ************************************************************************* //
