/*--------------------------------*- C++ -*----------------------------------*\
| =========                 |                                                 |
| \\      /  F ield         | OpenFOAM: The Open Source CFD Toolbox           |
|  \\    /   O peration     | Version:  2.3.0                                 |
|   \\  /    A nd           | Web:      www.OpenFOAM.org                      |
|    \\/     M anipulation  |                                                 |
\*---------------------------------------------------------------------------*/
FoamFile
{
    version     2.0;
    format      ascii;
    class       volScalarField;
    location    "9000";
    object      p;
}
// * * * * * * * * * * * * * * * * * * * * * * * * * * * * * * * * * * * * * //

dimensions      [0 2 -2 0 0 0 0];

internalField   nonuniform List<scalar> 
191
(
-1368.83
-1432.84
-1482.74
-1519.71
-1547.95
-1570.39
-1588.96
-1604.88
-1618.88
-1631.41
-1642.73
-1653.04
-1312.93
-1344.36
-1370.37
-1391.46
-1409.19
-1424.42
-1437.73
-1449.65
-1460.51
-1470.54
-1479.91
-1488.77
-1257.73
-1273.54
-1291.07
-1300.25
-1306.7
-1313.42
-1320.12
-1326.78
-1333.37
-1339.88
-1346.36
-1352.9
-1143.47
-1172.38
-1195.08
-1203.43
-1207.06
-1210.44
-1213.7
-1217.01
-1220.47
-1224.16
-1228.12
-1232.42
-1024.64
-1038.73
-1072.8
-1089.55
-1095.49
-1099.5
-1102.67
-1105.1
-1107.12
-1109
-1110.94
-1113.08
-1115.47
-933.119
-944.364
-967.289
-978.202
-982.688
-986.37
-989.1
-990.982
-992.284
-993.254
-994.102
-994.962
-995.886
-847.805
-850.265
-858.539
-863.573
-866.224
-868.467
-870.105
-871.135
-871.683
-871.893
-871.898
-871.781
-871.575
-766.767
-753.944
-746.278
-745.734
-746.053
-746.249
-746.391
-746.293
-745.928
-745.315
-744.491
-743.5
-742.364
-686.378
-657.743
-633.223
-626.335
-623.794
-621.393
-619.558
-617.916
-616.304
-614.625
-612.841
-610.965
-609.006
-599.156
-561.877
-522.829
-507.413
-501.374
-495.871
-491.542
-487.841
-484.518
-481.4
-478.392
-475.482
-472.642
-504.372
-470.182
-415.336
-393.578
-382.926
-373.294
-365.527
-358.978
-353.294
-348.193
-343.506
-339.196
-335.186
-399.18
-361.994
-301.117
-275.763
-265.407
-255.927
-246.03
-236.502
-227.885
-220.126
-213.051
-206.647
-200.824
-299.747
-253.124
-184.662
-146.934
-144.142
-138.848
-133.277
-124.507
-114.27
-103.671
-93.28
-84.0081
-75.8194
-191.427
-152.382
-95.7687
-52.697
-29.1019
-17.4461
-15.9248
-16.1914
-14.5634
-10.0791
-3.24637
5.0677
14.1885
-329.101
-250.459
-158.459
-74.7794
-8.55631
35.1084
60.8874
75.8412
83.8015
86.5337
84.8068
80.9633
77.5634
)
;

boundaryField
{
    top
    {
        type            calculated;
        value           nonuniform List<scalar> 
13
(
-9.81
-9.81
-9.81
-9.81
-9.81
-9.81
-9.81
-9.81
-9.81
-9.81
-9.81
-9.81
-9.81
)
;
    }
    bottom
    {
        type            calculated;
        value           nonuniform List<scalar> 
12
(
-1439.78
-1507.52
-1560.81
-1600.58
-1631.13
-1655.44
-1675.5
-1692.62
-1707.58
-1720.89
-1732.86
-1743.68
)
;
    }
    frontAndBack
    {
        type            empty;
    }
    left_cyc
    {
        type            cyclic;
    }
    right_cyc
    {
        type            cyclic;
    }
    procBoundary3to0throughright_cyc
    {
        type            processorCyclic;
        value           nonuniform List<scalar> 
15
(
-1662.49
-1497.32
-1359.64
-1237.07
-1118.1
-996.866
-871.277
-741.09
-606.952
-469.802
-331.296
-195.307
-67.97
23.6792
73.7366
)
;
    }
    procBoundary3to2
    {
        type            processor;
        value           nonuniform List<scalar> 
16
(
-1296.87
-1280.69
-1224.81
-1133.23
-1133.23
-1022.98
-932.35
-846.533
-764.819
-683.437
-597.121
-503.254
-407.295
-325.992
-216.71
-388.149
)
;
    }
}


// ************************************************************************* //
