/*--------------------------------*- C++ -*----------------------------------*\
| =========                 |                                                 |
| \\      /  F ield         | OpenFOAM: The Open Source CFD Toolbox           |
|  \\    /   O peration     | Version:  2.3.0                                 |
|   \\  /    A nd           | Web:      www.OpenFOAM.org                      |
|    \\/     M anipulation  |                                                 |
\*---------------------------------------------------------------------------*/
FoamFile
{
    version     2.0;
    format      ascii;
    class       volScalarField;
    location    "9000";
    object      p_rgh;
}
// * * * * * * * * * * * * * * * * * * * * * * * * * * * * * * * * * * * * * //

dimensions      [0 2 -2 0 0 0 0];

internalField   nonuniform List<scalar> 
191
(
-1439.78
-1507.52
-1560.81
-1600.58
-1631.13
-1655.44
-1675.5
-1692.62
-1707.58
-1720.89
-1732.86
-1743.68
-1446.62
-1489.82
-1530.3
-1564.82
-1593.31
-1617.13
-1637.55
-1655.53
-1671.68
-1686.32
-1699.67
-1711.8
-1441.59
-1476.61
-1512.14
-1537.02
-1557.36
-1576.52
-1594.46
-1611.36
-1627.18
-1641.92
-1655.56
-1667.91
-1395.22
-1455.12
-1504.24
-1533.05
-1552.11
-1567.56
-1580.84
-1593.09
-1605
-1616.75
-1628.24
-1639.56
-1308.86
-1373.75
-1455.63
-1511.92
-1546.74
-1570.49
-1586.87
-1598.44
-1607.42
-1615.35
-1623.19
-1631.4
-1640.19
-1286.84
-1371.22
-1461.97
-1527.88
-1571.75
-1601.48
-1620.39
-1631.98
-1639.36
-1644.82
-1649.91
-1655.51
-1662.03
-1271.35
-1371.7
-1469.37
-1545.61
-1599.01
-1634.7
-1656.69
-1669.21
-1676.16
-1680.54
-1684.37
-1688.72
-1693.97
-1257.16
-1367.73
-1471.02
-1557.33
-1619.62
-1661.29
-1687.22
-1702.02
-1710.16
-1715.21
-1719.39
-1723.73
-1728.37
-1235.33
-1354.52
-1461.81
-1556.07
-1625.78
-1673.37
-1704.69
-1724.13
-1736.02
-1743.86
-1749.79
-1754.8
-1759.07
-1189.82
-1319.51
-1431
-1530.95
-1607.98
-1662.65
-1701.45
-1727.88
-1745.7
-1758.12
-1767.37
-1774.68
-1780.62
-1110.51
-1252.73
-1361.22
-1468.06
-1550.89
-1612.1
-1658.98
-1693.85
-1719.54
-1738.89
-1754.15
-1766.77
-1777.61
-983.763
-1119.86
-1221.21
-1329.09
-1419.28
-1488.89
-1543.3
-1585.78
-1619.67
-1647.62
-1671.61
-1693.24
-1713.91
-810.999
-917.417
-991.523
-1073.91
-1167.47
-1240
-1299
-1345.83
-1385.12
-1419.65
-1451.88
-1485.3
-1518.5
-560.437
-631.876
-678.308
-723.682
-772.626
-820.587
-870.277
-917.044
-959.222
-999.518
-1039.5
-1078.45
-1116.15
-477.352
-440.382
-385.713
-333.807
-294.307
-273.727
-269.208
-275.509
-290.665
-312.074
-338.696
-368.173
-397.824
)
;

boundaryField
{
    top
    {
        type            fixedValue;
        value           uniform 0;
    }
    bottom
    {
        type            fixedFluxPressure;
        gradient        uniform 0;
        value           nonuniform List<scalar> 
12
(
-1439.78
-1507.52
-1560.81
-1600.58
-1631.13
-1655.44
-1675.5
-1692.62
-1707.58
-1720.89
-1732.86
-1743.68
)
;
    }
    frontAndBack
    {
        type            empty;
    }
    left_cyc
    {
        type            cyclic;
    }
    right_cyc
    {
        type            cyclic;
    }
    procBoundary3to0throughright_cyc
    {
        type            processorCyclic;
        value           nonuniform List<scalar> 
15
(
-1753.5
-1722.63
-1679.24
-1650.73
-1649.55
-1669.46
-1699.92
-1732.84
-1762.44
-1785.37
-1787.16
-1733.09
-1549.98
-1152.04
-427.918
)
;
    }
    procBoundary3to2
    {
        type            processor;
        value           nonuniform List<scalar> 
16
(
-1365.01
-1404.65
-1389.84
-1352.61
-1352.61
-1261.51
-1219.91
-1181
-1142.14
-1096.54
-1033.64
-945.063
-828.739
-691.397
-479.327
-494.101
)
;
    }
}


// ************************************************************************* //
