/*--------------------------------*- C++ -*----------------------------------*\
| =========                 |                                                 |
| \\      /  F ield         | OpenFOAM: The Open Source CFD Toolbox           |
|  \\    /   O peration     | Version:  2.3.0                                 |
|   \\  /    A nd           | Web:      www.OpenFOAM.org                      |
|    \\/     M anipulation  |                                                 |
\*---------------------------------------------------------------------------*/
FoamFile
{
    version     2.0;
    format      ascii;
    class       volScalarField;
    location    "9000";
    object      T;
}
// * * * * * * * * * * * * * * * * * * * * * * * * * * * * * * * * * * * * * //

dimensions      [0 0 0 1 0 0 0];

internalField   nonuniform List<scalar> 
191
(
31.2153
32.8536
34.3375
35.563
36.5755
37.3952
38.0501
38.573
38.9939
39.3365
39.6168
39.8425
19.6628
21.3812
23.4922
25.4526
27.0257
28.279
29.316
30.2021
30.9733
31.6471
32.2281
32.7063
16.2496
17.9322
19.5087
20.8848
22.1008
23.1911
24.1754
25.072
25.8811
26.6022
27.2299
27.7387
15.8951
17.8348
19.4876
20.7677
21.734
22.4886
23.1161
23.6751
24.2036
24.7081
25.1788
25.6187
13.9755
16.4477
18.7743
20.6989
22.1044
23.0644
23.7074
24.1524
24.4911
24.7858
25.0725
25.3681
25.6797
14.2277
17.1399
19.8407
22.0305
23.5986
24.6358
25.2799
25.6666
25.9084
26.0873
26.2561
26.4452
26.6679
14.4133
17.7115
20.7235
23.1227
24.8324
25.9595
26.6451
27.0322
27.2478
27.3885
27.5172
27.6679
27.8517
14.4626
18.0658
21.3057
23.8419
25.6514
26.8623
27.6155
28.0504
28.2988
28.4641
28.6104
28.766
28.9345
14.2868
18.0956
21.4915
24.0976
25.9591
27.247
28.1014
28.6444
28.9924
29.2377
29.4364
29.6137
29.7744
13.7596
17.6086
21.079
23.7385
25.6534
27.0405
28.0347
28.7295
29.2168
29.5751
29.8575
30.0933
30.2956
12.7855
16.4649
19.8718
22.5539
24.5037
25.9812
27.121
27.9849
28.6393
29.1493
29.5653
29.9183
30.228
11.2757
14.5756
17.6649
20.2023
22.117
23.6231
24.8478
25.8381
26.6476
27.3277
27.9193
28.4531
28.9576
9.10037
11.7816
14.2794
16.3838
18.072
19.4354
20.5667
21.5408
22.4086
23.1992
23.946
24.6939
25.419
6.12939
7.92167
9.5933
11.0281
12.2048
13.1719
14.0027
14.7571
15.4677
16.1941
16.9535
17.7202
18.4798
2.38233
3.01171
3.57555
4.05544
4.45905
4.8077
5.12881
5.44983
5.79896
6.16357
6.53958
6.92673
7.32321
)
;

boundaryField
{
    top
    {
        type            fixedValue;
        value           uniform 0;
    }
    bottom
    {
        type            fixedValue;
        value           uniform 43.8;
    }
    frontAndBack
    {
        type            empty;
    }
    left_cyc
    {
        type            cyclic;
    }
    right_cyc
    {
        type            cyclic;
    }
    procBoundary3to0throughright_cyc
    {
        type            processorCyclic;
        value           nonuniform List<scalar> 
15
(
40.0066
33.0377
28.1402
26.0262
26.0071
26.9245
28.0622
29.1025
29.914
30.4705
30.5083
29.428
26.108
19.216
7.71994
)
;
    }
    procBoundary3to2
    {
        type            processor;
        value           nonuniform List<scalar> 
16
(
29.9869
18.2409
14.6003
13.8701
13.8701
11.7517
11.5933
11.4122
11.161
10.7866
10.2061
9.3581
8.16898
6.54512
4.40347
1.74347
)
;
    }
}


// ************************************************************************* //
