/*--------------------------------*- C++ -*----------------------------------*\
| =========                 |                                                 |
| \\      /  F ield         | OpenFOAM: The Open Source CFD Toolbox           |
|  \\    /   O peration     | Version:  2.3.0                                 |
|   \\  /    A nd           | Web:      www.OpenFOAM.org                      |
|    \\/     M anipulation  |                                                 |
\*---------------------------------------------------------------------------*/
FoamFile
{
    version     2.0;
    format      ascii;
    class       volVectorField;
    location    "9000";
    object      U;
}
// * * * * * * * * * * * * * * * * * * * * * * * * * * * * * * * * * * * * * //

dimensions      [0 1 -1 0 0 0 0];

internalField   nonuniform List<vector> 
191
(
(72.7146 0 -6.04182)
(79.8306 0 2.38447)
(78.2178 0 6.77146)
(72.6721 0 7.01687)
(67.0338 0 5.62749)
(62.2994 0 4.17867)
(58.4565 0 3.08802)
(55.297 0 2.35407)
(52.6276 0 1.86863)
(50.3467 0 1.5287)
(48.4395 0 1.25097)
(46.9828 0 0.954469)
(37.2635 0 -20.6815)
(50.5839 0 -10.4592)
(61.72 0 -0.987076)
(69.6895 0 3.28021)
(74.9824 0 4.2725)
(78.2403 0 4.16182)
(79.9723 0 3.8035)
(80.68 0 3.44561)
(80.7585 0 3.097)
(80.5466 0 2.69401)
(80.3523 0 2.14302)
(80.4874 0 1.31348)
(24.6963 0 -27.3569)
(30.6357 0 -18.841)
(40.3725 0 -10.9438)
(51.3461 0 -6.04763)
(60.6866 0 -3.06824)
(67.9163 0 -1.0369)
(73.0078 0 0.397703)
(76.4478 0 1.32941)
(78.7823 0 1.77457)
(80.4988 0 1.72319)
(82.0047 0 1.13095)
(83.6257 0 -0.0845955)
(17.6028 0 -32.4392)
(21.9277 0 -26.1068)
(30.1053 0 -20.6791)
(40.2416 0 -16.1377)
(49.348 0 -11.7005)
(56.6826 0 -7.65014)
(62.0437 0 -4.37067)
(65.8536 0 -2.06104)
(68.6287 0 -0.740777)
(70.8202 0 -0.351206)
(72.7651 0 -0.833876)
(74.676 0 -2.15158)
(9.06214 0 -40.9668)
(12.1337 0 -36.3375)
(15.7422 0 -31.8194)
(23.5422 0 -29.1751)
(31.9009 0 -25.2501)
(39.4581 0 -19.5363)
(45.4211 0 -13.6472)
(49.7383 0 -8.71771)
(52.8148 0 -5.21414)
(55.0828 0 -3.15356)
(56.8855 0 -2.36843)
(58.4334 0 -2.66955)
(59.807 0 -3.89002)
(5.24405 0 -43.4725)
(7.29854 0 -39.481)
(10.3504 0 -37.2544)
(16.7319 0 -36.6161)
(22.6789 0 -32.4332)
(27.905 0 -25.4356)
(31.8333 0 -18.0382)
(34.5787 0 -11.8426)
(36.4855 0 -7.45913)
(37.8603 0 -4.85402)
(38.9008 0 -3.73659)
(39.6782 0 -3.78588)
(40.1595 0 -4.72454)
(1.82983 0 -44.8268)
(2.62305 0 -41.697)
(4.27735 0 -41.0876)
(7.68053 0 -41.4152)
(10.6628 0 -36.7279)
(13.1569 0 -28.7747)
(14.913 0 -20.3873)
(16.0315 0 -13.4234)
(16.7189 0 -8.532)
(17.1279 0 -5.59658)
(17.3159 0 -4.21081)
(17.243 0 -3.95298)
(16.803 0 -4.48036)
(-1.42543 0 -44.8153)
(-2.15083 0 -42.0434)
(-3.32585 0 -42.1859)
(-3.8131 0 -42.8713)
(-4.18038 0 -37.9601)
(-4.53208 0 -29.6524)
(-4.80743 0 -20.8956)
(-5.10233 0 -13.6462)
(-5.4274 0 -8.55761)
(-5.80786 0 -5.45487)
(-6.30676 0 -3.85555)
(-7.03782 0 -3.27719)
(-8.14537 0 -3.35411)
(-4.75629 0 -43.331)
(-7.04084 0 -39.7689)
(-11.4831 0 -39.6901)
(-16.3337 0 -40.4832)
(-20.1515 0 -35.9738)
(-23.296 0 -28.1758)
(-25.4177 0 -19.8127)
(-26.8818 0 -12.803)
(-27.9429 0 -7.82585)
(-28.8112 0 -4.71928)
(-29.6594 0 -2.98745)
(-30.6647 0 -2.12422)
(-32.0149 0 -1.76864)
(-8.44927 0 -40.4013)
(-12.0454 0 -35.012)
(-17.8185 0 -33.6453)
(-27.0814 0 -34.0792)
(-34.1325 0 -30.691)
(-39.848 0 -24.3824)
(-43.6856 0 -17.2663)
(-46.2011 0 -11.1061)
(-47.8308 0 -6.62398)
(-48.95 0 -3.74167)
(-49.8436 0 -2.01172)
(-50.7711 0 -0.931506)
(-51.9962 0 -0.163852)
(-12.8107 0 -36.3528)
(-17.2095 0 -30.1032)
(-21.9743 0 -25.3432)
(-33.0995 0 -24.9858)
(-42.5922 0 -23.2132)
(-50.2185 0 -18.8807)
(-55.5108 0 -13.4763)
(-58.9946 0 -8.63551)
(-61.1549 0 -5.04064)
(-62.4843 0 -2.66848)
(-63.3626 0 -1.1381)
(-64.1232 0 0.0489716)
(-65.0969 0 1.19483)
(-17.7958 0 -31.1763)
(-23.216 0 -25.2132)
(-27.9604 0 -18.0272)
(-35.0828 0 -13.1905)
(-43.4762 0 -12.9448)
(-51.1023 0 -11.8108)
(-57.136 0 -8.79002)
(-61.3254 0 -5.68606)
(-63.9485 0 -3.28867)
(-65.5611 0 -1.67081)
(-66.6105 0 -0.540583)
(-67.4365 0 0.636168)
(-68.2954 0 2.08419)
(-22.7447 0 -24.5754)
(-29.7661 0 -19.6989)
(-35.1311 0 -13.7561)
(-39.2105 0 -9.33122)
(-43.2332 0 -6.55117)
(-48.5515 0 -4.46205)
(-52.616 0 -2.89265)
(-55.3243 0 -1.71325)
(-57.0325 0 -0.70596)
(-58.1743 0 0.216981)
(-59.1224 0 1.14054)
(-60.0857 0 2.29896)
(-60.8817 0 3.80803)
(-26.4746 0 -15.4135)
(-34.4238 0 -12.2107)
(-40.4146 0 -8.50392)
(-44.5934 0 -5.48547)
(-47.9071 0 -3.50724)
(-50.7096 0 -2.34977)
(-52.8782 0 -1.58733)
(-54.5069 0 -0.951885)
(-55.6447 0 -0.34756)
(-56.3446 0 0.234378)
(-56.6513 0 0.810496)
(-56.5101 0 1.4745)
(-55.7443 0 2.28563)
(-29.4091 0 -10.1268)
(-37.8813 0 -7.74068)
(-44.1181 0 -5.00207)
(-48.1818 0 -2.61818)
(-50.799 0 -0.890531)
(-52.5984 0 0.220562)
(-53.931 0 0.896464)
(-54.9326 0 1.35498)
(-55.593 0 1.71774)
(-55.8798 0 2.02777)
(-55.7755 0 2.28948)
(-55.2482 0 2.51422)
(-54.2024 0 2.72921)
)
;

boundaryField
{
    top
    {
        type            directionMixed;
        refValue        uniform (0 0 0);
        refGradient     uniform (0 0 0);
        valueFraction   uniform (0 0 0 0 0 1);
        value           nonuniform List<vector> 
13
(
(-29.4091 0 0)
(-37.8813 0 0)
(-44.1181 0 0)
(-48.1818 0 0)
(-50.799 0 0)
(-52.5984 0 0)
(-53.931 0 0)
(-54.9326 0 0)
(-55.593 0 0)
(-55.8798 0 0)
(-55.7755 0 0)
(-55.2482 0 0)
(-54.2024 0 0)
)
;
    }
    bottom
    {
        type            fixedValue;
        value           uniform (0 0 0);
    }
    frontAndBack
    {
        type            empty;
    }
    left_cyc
    {
        type            cyclic;
    }
    right_cyc
    {
        type            cyclic;
    }
    procBoundary3to0throughright_cyc
    {
        type            processorCyclic;
        value           nonuniform List<vector> 
15
(
(46.1747 0 0.549745)
(81.272 0 0.0609587)
(85.5924 0 -1.98261)
(76.6377 0 -4.2405)
(60.9762 0 -5.84798)
(40.2413 0 -6.28779)
(15.8663 0 -5.4991)
(-9.75938 0 -3.80912)
(-33.8583 0 -1.68835)
(-53.7124 0 0.447953)
(-66.5075 0 2.33269)
(-69.3512 0 3.63232)
(-61.415 0 5.49578)
(-54.294 0 3.12701)
(-52.5476 0 2.93171)
)
;
    }
    procBoundary3to2
    {
        type            processor;
        value           nonuniform List<vector> 
16
(
(58.1446 0 -15.066)
(24.8161 0 -23.7277)
(18.517 0 -32.1581)
(13.4149 0 -37.0993)
(13.4149 0 -37.0993)
(5.88062 0 -44.2478)
(3.41338 0 -46.7776)
(1.25355 0 -48.0394)
(-0.76832 0 -48.0817)
(-2.86135 0 -46.9257)
(-5.27205 0 -44.5089)
(-8.14497 0 -40.6736)
(-11.431 0 -35.1371)
(-14.705 0 -27.8807)
(-17.2383 0 -17.6741)
(-19.2886 0 -11.8856)
)
;
    }
}


// ************************************************************************* //
