/*--------------------------------*- C++ -*----------------------------------*\
| =========                 |                                                 |
| \\      /  F ield         | OpenFOAM: The Open Source CFD Toolbox           |
|  \\    /   O peration     | Version:  2.3.0                                 |
|   \\  /    A nd           | Web:      www.OpenFOAM.org                      |
|    \\/     M anipulation  |                                                 |
\*---------------------------------------------------------------------------*/
FoamFile
{
    version     2.0;
    format      ascii;
    class       surfaceScalarField;
    location    "8000";
    object      phi;
}
// * * * * * * * * * * * * * * * * * * * * * * * * * * * * * * * * * * * * * //

dimensions      [0 3 -1 0 0 0 0];

internalField   nonuniform List<scalar> 
354
(
0.507284
-0.0780775
0.527191
-0.0199075
0.503674
0.0235172
0.46676
0.0369144
0.432201
0.0345592
0.40352
0.0286809
0.380099
0.0234209
0.360574
0.0195248
0.343964
0.0166104
0.329862
0.0141017
0.318445
0.0114173
0.00788621
0.287303
-0.163568
0.369695
-0.1023
0.434526
-0.0413137
0.47989
-0.0084492
0.509285
0.00516431
0.526523
0.0114423
0.535097
0.0148468
0.537965
0.0166566
0.537607
0.016969
0.536191
0.0155177
0.535774
0.0118342
0.00519229
0.180555
-0.203412
0.232881
-0.154626
0.300896
-0.109329
0.369254
-0.0768077
0.425763
-0.0513448
0.467675
-0.0304697
0.496768
-0.0142461
0.516426
-0.00300105
0.530121
0.00327408
0.540873
0.00476602
0.551165
0.00154213
-0.00654951
0.129221
-0.232326
0.170165
-0.19557
0.229607
-0.168771
0.294199
-0.1414
0.350241
-0.107387
0.393385
-0.0736136
0.424609
-0.0454704
0.446974
-0.0253656
0.463739
-0.0134907
0.477586
-0.00908112
0.490412
-0.011284
-0.0194002
0.0681867
-0.28344
0.0911474
-0.255286
0.127481
-0.231903
0.180023
-0.221313
0.234047
-0.195424
0.279997
-0.153337
0.314976
-0.108593
0.340196
-0.0706904
0.358379
-0.0435482
0.37216
-0.0272721
0.383444
-0.0203653
0.393259
-0.021099
-0.0279653
0.0400108
-0.296261
0.057165
-0.272441
0.0867192
-0.261457
0.127108
-0.261702
0.165515
-0.233831
0.196708
-0.18453
0.219564
-0.131449
0.235537
-0.0866631
0.24678
-0.054792
0.255038
-0.0355294
0.261262
-0.0265896
0.265629
-0.0254659
-0.0300523
0.0137867
-0.300652
0.0217135
-0.280368
0.0373486
-0.277092
0.0583465
-0.2827
0.0773103
-0.252795
0.0919514
-0.199171
0.10195
-0.141447
0.108289
-0.0930026
0.112173
-0.0586756
0.114352
-0.0377091
0.114931
-0.0271686
0.113453
-0.0239874
-0.0257417
-0.0123296
-0.295694
-0.0189892
-0.273708
-0.0239958
-0.272086
-0.0272299
-0.279466
-0.0297717
-0.250253
-0.0317172
-0.197225
-0.0335265
-0.139638
-0.0354736
-0.0910555
-0.0377014
-0.0564478
-0.0404846
-0.0349258
-0.0443895
-0.0232637
-0.0502667
-0.0181102
-0.0169688
-0.0391035
-0.28124
-0.0616504
-0.251161
-0.0900551
-0.243681
-0.119516
-0.250004
-0.144018
-0.225751
-0.16186
-0.179384
-0.17414
-0.127358
-0.182697
-0.0824978
-0.189155
-0.0499902
-0.194811
-0.0292702
-0.200829
-0.0172448
-0.208438
-0.0105017
-0.0066217
-0.0671818
-0.258292
-0.0981974
-0.220146
-0.145354
-0.196525
-0.199438
-0.19592
-0.244432
-0.180756
-0.276959
-0.146857
-0.298863
-0.105454
-0.313102
-0.0682591
-0.322477
-0.0406146
-0.329244
-0.0225033
-0.33522
-0.0112686
-0.342176
-0.00354596
0.00289584
-0.0980826
-0.227804
-0.129859
-0.188369
-0.179694
-0.14669
-0.247093
-0.128521
-0.306473
-0.121376
-0.350364
-0.102965
-0.380552
-0.0752672
-0.400003
-0.0488076
-0.41203
-0.028588
-0.419592
-0.0149413
-0.425049
-0.00581177
-0.430656
0.00206174
0.0106143
-0.134224
-0.187939
-0.169594
-0.152999
-0.207028
-0.109256
-0.257634
-0.0779153
-0.311985
-0.0670253
-0.358664
-0.056286
-0.393692
-0.0402394
-0.417074
-0.0254254
-0.431667
-0.0139951
-0.44085
-0.00575833
-0.447196
0.000533915
-0.452748
0.00761399
0.0169171
-0.171841
-0.137177
-0.21451
-0.110331
-0.246232
-0.0775338
-0.272617
-0.0515304
-0.304204
-0.0354385
-0.335776
-0.0247141
-0.359247
-0.0167679
-0.374493
-0.0101798
-0.384319
-0.00416895
-0.391518
0.00144027
-0.397966
0.00698254
-0.403875
0.0135227
0.0215347
-0.1994
-0.0792286
-0.247135
-0.0625955
-0.281757
-0.0429124
-0.307142
-0.0261448
-0.327921
-0.0146599
-0.344763
-0.00787157
-0.357783
-0.00374775
-0.367326
-0.000637324
-0.373736
0.00224135
-0.37735
0.00505375
-0.378183
0.00781605
-0.375512
0.0108518
0.0145351
-0.220553
-0.270809
-0.306173
-0.329203
-0.344311
-0.355012
-0.363031
-0.368803
-0.372205
-0.373058
-0.371228
-0.366331
)
;

boundaryField
{
    top
    {
        type            calculated;
        value           nonuniform List<scalar> 
13
(
-0.0163884
-0.0123399
-0.00754872
-0.00311501
0.000448027
0.00283029
0.0042706
0.00513484
0.00564341
0.00590629
0.00598614
0.00595476
0.0058929
)
;
    }
    bottom
    {
        type            calculated;
        value           uniform 0;
    }
    frontAndBack
    {
        type            empty;
        value           nonuniform 0();
    }
    left_cyc
    {
        type            cyclic;
        value           nonuniform 0();
    }
    right_cyc
    {
        type            cyclic;
        value           nonuniform 0();
    }
    procBoundary3to0throughright_cyc
    {
        type            processorCyclic;
        value           nonuniform List<scalar> 
15
(
0.310559
0.538468
0.562907
0.503262
0.401825
0.267716
0.109142
-0.0590396
-0.218785
-0.351694
-0.438375
-0.459051
-0.408493
-0.368513
-0.357688
)
;
    }
    procBoundary3to2
    {
        type            processor;
        value           nonuniform List<scalar> 
16
(
-0.429206
-0.201812
-0.14071
-0.100308
0.262641
-0.0473883
-0.0271898
-0.00939528
0.00737139
0.0246501
0.0442337
0.0675944
0.0943595
0.12108
0.141451
0.157713
)
;
    }
}


// ************************************************************************* //
