/*--------------------------------*- C++ -*----------------------------------*\
| =========                 |                                                 |
| \\      /  F ield         | OpenFOAM: The Open Source CFD Toolbox           |
|  \\    /   O peration     | Version:  2.3.0                                 |
|   \\  /    A nd           | Web:      www.OpenFOAM.org                      |
|    \\/     M anipulation  |                                                 |
\*---------------------------------------------------------------------------*/
FoamFile
{
    version     2.0;
    format      ascii;
    class       volScalarField;
    location    "8000";
    object      T;
}
// * * * * * * * * * * * * * * * * * * * * * * * * * * * * * * * * * * * * * //

dimensions      [0 0 0 1 0 0 0];

internalField   nonuniform List<scalar> 
191
(
31.1245
32.7482
34.2553
35.4963
36.5221
37.3532
38.0173
38.5473
38.9737
39.3206
39.6045
39.8337
19.5749
21.2835
23.3792
25.3561
26.9507
28.2191
29.2665
30.1605
30.9383
31.6182
32.2054
32.6911
16.1613
17.8526
19.4414
20.83
22.0513
23.1472
24.1362
25.0374
25.8516
26.5781
27.212
27.7297
15.7873
17.7453
19.4244
20.7284
21.7104
22.474
23.1059
23.6665
24.1953
24.7008
25.1734
25.6142
13.832
16.309
18.66
20.6212
22.0606
23.045
23.7031
24.156
24.4975
24.7921
25.0773
25.3709
25.6802
14.0508
16.9674
19.6994
21.9347
23.5431
24.6103
25.2744
25.6724
25.919
26.0984
26.2652
26.451
26.6701
14.2056
17.5078
20.5571
23.0077
24.7621
25.9234
26.6328
27.0342
27.2563
27.3982
27.5251
27.6725
27.853
14.2294
17.8369
21.1196
23.7097
25.5663
26.8137
27.5934
28.0448
28.3013
28.4688
28.614
28.7678
28.9347
14.0352
17.846
21.2906
23.9554
25.8642
27.1877
28.0682
28.6284
28.9859
29.2352
29.4354
29.613
29.7743
13.5007
17.3492
20.8701
23.5904
25.5508
26.9705
27.9893
28.7017
29.2002
29.5649
29.8509
30.0888
30.2927
12.5358
16.2177
19.6658
22.4037
24.3966
25.9026
27.0642
27.9452
28.6117
29.1298
29.551
29.9078
30.2193
11.0511
14.355
17.4727
20.0566
22.0112
23.5417
24.7847
25.7899
26.6103
27.2983
27.8958
28.4313
28.9382
8.91731
11.6038
14.1247
16.2623
17.9796
19.3633
20.5084
21.4917
22.3661
23.1622
23.9086
24.6584
25.3864
6.00767
7.8047
9.49167
10.9472
12.1428
13.1226
13.9606
14.7186
15.431
16.1545
16.9138
17.6813
18.4428
2.33927
2.97291
3.54333
4.03004
4.4391
4.79115
5.11372
5.43445
5.78148
6.14541
6.52115
6.90806
7.30476
)
;

boundaryField
{
    top
    {
        type            fixedValue;
        value           uniform 0;
    }
    bottom
    {
        type            fixedValue;
        value           uniform 43.8;
    }
    frontAndBack
    {
        type            empty;
    }
    left_cyc
    {
        type            cyclic;
    }
    right_cyc
    {
        type            cyclic;
    }
    procBoundary3to0throughright_cyc
    {
        type            processorCyclic;
        value           nonuniform List<scalar> 
15
(
40.0025
33.0355
28.1366
26.0229
26.0054
26.9235
28.061
29.1024
29.9149
30.4689
30.5012
29.4109
26.0786
19.1817
7.70228
)
;
    }
    procBoundary3to2
    {
        type            processor;
        value           nonuniform List<scalar> 
16
(
29.9142
18.1636
14.5128
13.7585
13.7585
11.6338
11.4495
11.2444
10.9723
10.5816
9.99286
9.14789
7.97526
6.38425
4.2943
1.70233
)
;
    }
}


// ************************************************************************* //
