/*--------------------------------*- C++ -*----------------------------------*\
| =========                 |                                                 |
| \\      /  F ield         | OpenFOAM: The Open Source CFD Toolbox           |
|  \\    /   O peration     | Version:  2.3.0                                 |
|   \\  /    A nd           | Web:      www.OpenFOAM.org                      |
|    \\/     M anipulation  |                                                 |
\*---------------------------------------------------------------------------*/
FoamFile
{
    version     2.0;
    format      ascii;
    class       volVectorField;
    location    "8000";
    object      U;
}
// * * * * * * * * * * * * * * * * * * * * * * * * * * * * * * * * * * * * * //

dimensions      [0 1 -1 0 0 0 0];

internalField   nonuniform List<vector> 
191
(
(72.001 0 -6.5939)
(79.6253 0 1.98713)
(78.4223 0 6.64482)
(72.9771 0 7.06047)
(67.3125 0 5.70683)
(62.5346 0 4.24755)
(58.6504 0 3.13757)
(55.4586 0 2.38781)
(52.7627 0 1.89214)
(50.4571 0 1.54675)
(48.5224 0 1.26803)
(47.0293 0 0.976013)
(36.3217 0 -21.075)
(49.7414 0 -11.1372)
(61.0987 0 -1.41239)
(69.2738 0 3.13384)
(74.7141 0 4.23999)
(78.0885 0 4.16761)
(79.8976 0 3.82054)
(80.6522 0 3.46663)
(80.7529 0 3.12268)
(80.5417 0 2.72789)
(80.3281 0 2.19135)
(80.4223 0 1.38583)
(24.1515 0 -27.8281)
(30.0959 0 -19.4609)
(39.6172 0 -11.3826)
(50.7033 0 -6.31507)
(60.172 0 -3.24339)
(67.5463 0 -1.1542)
(72.7546 0 0.324579)
(76.274 0 1.29455)
(78.6532 0 1.77506)
(80.3853 0 1.7589)
(81.8829 0 1.2055)
(83.4769 0 0.0347041)
(17.1803 0 -32.8922)
(21.4789 0 -26.573)
(29.3784 0 -21.0625)
(39.5942 0 -16.4844)
(48.8006 0 -12.0081)
(56.2737 0 -7.8965)
(61.7497 0 -4.54356)
(65.6381 0 -2.16032)
(68.4578 0 -0.772989)
(70.6675 0 -0.322843)
(72.6124 0 -0.748762)
(74.5138 0 -2.01237)
(8.72451 0 -41.2855)
(11.7854 0 -36.783)
(15.2953 0 -32.1425)
(22.8753 0 -29.464)
(31.3049 0 -25.6571)
(38.9534 0 -19.9685)
(45.0438 0 -14.0167)
(49.4632 0 -8.98382)
(52.6084 0 -5.37234)
(54.9163 0 -3.21676)
(56.7393 0 -2.35234)
(58.2977 0 -2.58697)
(59.6805 0 -3.75209)
(5.01206 0 -43.7758)
(7.03375 0 -39.8369)
(9.85853 0 -37.4021)
(16.1382 0 -36.8659)
(22.1618 0 -32.9158)
(27.4855 0 -25.9836)
(31.526 0 -18.5159)
(34.3561 0 -12.1883)
(36.3187 0 -7.66783)
(37.7281 0 -4.94677)
(38.7918 0 -3.73925)
(39.5905 0 -3.72035)
(40.0978 0 -4.60862)
(1.70091 0 -45.1097)
(2.4748 0 -41.9133)
(3.92618 0 -41.053)
(7.26172 0 -41.676)
(10.3084 0 -37.2937)
(12.8734 0 -29.4235)
(14.7072 0 -20.9515)
(15.8842 0 -13.8304)
(16.6116 0 -8.78082)
(17.0491 0 -5.71755)
(17.2627 0 -4.23911)
(17.2192 0 -3.91736)
(16.8164 0 -4.40223)
(-1.44832 0 -45.1001)
(-2.18654 0 -42.1945)
(-3.35997 0 -42.0486)
(-3.95163 0 -43.1381)
(-4.28622 0 -38.5676)
(-4.63645 0 -30.3536)
(-4.89322 0 -21.5077)
(-5.1678 0 -14.09)
(-5.47368 0 -8.8347)
(-5.834 0 -5.60162)
(-6.30832 0 -3.91319)
(-7.00679 0 -3.27828)
(-8.07278 0 -3.32062)
(-4.67726 0 -43.6298)
(-6.97401 0 -39.9215)
(-11.0825 0 -39.5455)
(-16.1265 0 -40.7154)
(-19.9656 0 -36.5448)
(-23.2016 0 -28.8511)
(-25.3808 0 -20.4156)
(-26.8735 0 -13.2495)
(-27.9437 0 -8.11406)
(-28.8061 0 -4.8848)
(-29.6364 0 -3.07268)
(-30.6116 0 -2.16262)
(-31.9206 0 -1.78045)
(-8.27148 0 -40.7517)
(-11.8376 0 -35.4402)
(-17.0733 0 -33.6453)
(-26.5649 0 -34.2198)
(-33.6996 0 -31.129)
(-39.577 0 -24.9389)
(-43.5412 0 -17.7908)
(-46.1352 0 -11.5107)
(-47.8082 0 -6.89761)
(-48.9428 0 -3.91188)
(-49.8318 0 -2.11722)
(-50.7362 0 -1.00423)
(-51.9228 0 -0.220186)
(-12.5287 0 -36.7479)
(-16.9175 0 -30.6816)
(-21.5279 0 -25.4303)
(-32.4034 0 -25.0339)
(-42.0491 0 -23.5078)
(-49.8396 0 -19.2896)
(-55.2938 0 -13.8848)
(-58.8917 0 -8.9611)
(-61.1267 0 -5.27057)
(-62.4946 0 -2.8224)
(-63.3852 0 -1.24972)
(-64.1345 0 -0.0506386)
(-65.0774 0 1.09747)
(-17.3833 0 -31.5527)
(-22.9035 0 -25.769)
(-27.6866 0 -18.5052)
(-34.4364 0 -13.4255)
(-42.9889 0 -13.0117)
(-50.6818 0 -12.0078)
(-56.8761 0 -9.0485)
(-61.1988 0 -5.90766)
(-63.9191 0 -3.45635)
(-65.5883 0 -1.79372)
(-66.6649 0 -0.647491)
(-67.4969 0 0.517534)
(-68.3465 0 1.9555)
(-22.2169 0 -24.8826)
(-29.3519 0 -20.1231)
(-34.8516 0 -14.1711)
(-38.9588 0 -9.5927)
(-42.9751 0 -6.7241)
(-48.2868 0 -4.5957)
(-52.4797 0 -2.99248)
(-55.2783 0 -1.79606)
(-57.0528 0 -0.782603)
(-58.2336 0 0.142223)
(-59.2002 0 1.05625)
(-60.1802 0 2.18848)
(-61.0019 0 3.6762)
(-25.8777 0 -15.6223)
(-33.9557 0 -12.4867)
(-40.1088 0 -8.77351)
(-44.3938 0 -5.68004)
(-47.7662 0 -3.61875)
(-50.6155 0 -2.41925)
(-52.8371 0 -1.64027)
(-54.5107 0 -1.00121)
(-55.691 0 -0.396537)
(-56.4293 0 0.185402)
(-56.7737 0 0.758226)
(-56.6794 0 1.41275)
(-55.972 0 2.2178)
(-28.7646 0 -10.2725)
(-37.3909 0 -7.92398)
(-43.8105 0 -5.18403)
(-48.022 0 -2.7517)
(-50.7271 0 -0.968264)
(-52.575 0 0.181658)
(-53.9423 0 0.880923)
(-54.9749 0 1.34928)
(-55.6696 0 1.71631)
(-55.9933 0 2.02921)
(-55.9283 0 2.29405)
(-55.4455 0 2.52075)
(-54.452 0 2.73678)
)
;

boundaryField
{
    top
    {
        type            directionMixed;
        refValue        uniform (0 0 0);
        refGradient     uniform (0 0 0);
        valueFraction   uniform (0 0 0 0 0 1);
        value           nonuniform List<vector> 
13
(
(-28.7646 0 0)
(-37.3909 0 0)
(-43.8105 0 0)
(-48.022 0 0)
(-50.7271 0 0)
(-52.575 0 0)
(-53.9423 0 0)
(-54.9749 0 0)
(-55.6696 0 0)
(-55.9933 0 0)
(-55.9283 0 0)
(-55.4455 0 0)
(-54.452 0 0)
)
;
    }
    bottom
    {
        type            fixedValue;
        value           uniform (0 0 0);
    }
    frontAndBack
    {
        type            empty;
    }
    left_cyc
    {
        type            cyclic;
    }
    right_cyc
    {
        type            cyclic;
    }
    procBoundary3to0throughright_cyc
    {
        type            processorCyclic;
        value           nonuniform List<vector> 
15
(
(46.1661 0 0.582288)
(81.1455 0 0.166709)
(85.4057 0 -1.81762)
(76.465 0 -4.05441)
(60.8641 0 -5.66891)
(40.2139 0 -6.14011)
(15.9252 0 -5.39801)
(-9.63845 0 -3.75857)
(-33.716 0 -1.68729)
(-53.5919 0 0.400185)
(-66.4483 0 2.23846)
(-69.386 0 3.50558)
(-61.5617 0 5.35636)
(-54.58 0 3.06066)
(-52.8532 0 2.94035)
)
;
    }
    procBoundary3to2
    {
        type            processor;
        value           nonuniform List<vector> 
16
(
(57.0056 0 -15.6648)
(23.9892 0 -23.8965)
(17.9392 0 -32.4413)
(12.9704 0 -37.4019)
(12.9704 0 -37.4019)
(5.52384 0 -44.4519)
(3.16997 0 -46.9932)
(1.11726 0 -48.2626)
(-0.803381 0 -48.3157)
(-2.79779 0 -47.1704)
(-5.095 0 -44.7618)
(-7.84119 0 -40.9221)
(-10.9893 0 -35.3634)
(-14.1274 0 -28.0734)
(-16.5638 0 -17.808)
(-18.54 0 -11.9837)
)
;
    }
}


// ************************************************************************* //
