/*--------------------------------*- C++ -*----------------------------------*\
| =========                 |                                                 |
| \\      /  F ield         | OpenFOAM: The Open Source CFD Toolbox           |
|  \\    /   O peration     | Version:  2.3.0                                 |
|   \\  /    A nd           | Web:      www.OpenFOAM.org                      |
|    \\/     M anipulation  |                                                 |
\*---------------------------------------------------------------------------*/
FoamFile
{
    version     2.0;
    format      ascii;
    class       volScalarField;
    location    "17000";
    object      NUEff;
}
// * * * * * * * * * * * * * * * * * * * * * * * * * * * * * * * * * * * * * //

dimensions      [0 2 -1 0 0 0 0];

internalField   nonuniform List<scalar> 
765
(
0.285618
0.274641
0.257949
0.239227
0.221048
0.204786
0.191185
0.18141
0.173669
0.167467
0.162724
0.159554
0.158225
0.159084
0.161865
0.166261
0.172126
0.179484
0.188743
0.201451
0.217145
0.234978
0.253777
0.271282
0.284025
0.288082
0.281371
0.266986
0.248849
0.230147
0.212811
0.197832
0.186175
0.177443
0.170476
0.16498
0.160979
0.158658
0.158361
0.160196
0.163786
0.168907
0.175489
0.183717
0.194393
0.208678
0.225488
0.243968
0.262474
0.278111
0.287039
0.964057
0.961993
0.957929
0.951128
0.939845
0.919804
0.878651
0.771752
0.502351
0.296455
0.224884
0.196805
0.187539
0.193417
0.216232
0.273321
0.436949
0.725517
0.861954
0.912987
0.936308
0.949066
0.956684
0.96129
0.96379
0.964482
0.963314
0.960308
0.955032
0.946353
0.931603
0.903742
0.83939
0.66019
0.376557
0.252888
0.208184
0.190457
0.188443
0.201708
0.236984
0.330254
0.582009
0.809987
0.892433
0.92612
0.943276
0.953169
0.95917
0.962688
0.964298
0.985526
0.984719
0.983191
0.980797
0.977202
0.9717
0.962728
0.94634
0.910845
0.805375
0.478778
0.284796
0.243665
0.268593
0.409559
0.754706
0.896901
0.94074
0.959889
0.97006
0.976166
0.980112
0.982741
0.984451
0.985422
0.985696
0.985235
0.984078
0.98215
0.979227
0.974825
0.967912
0.956063
0.932901
0.875725
0.674802
0.351302
0.25555
0.247241
0.311087
0.574808
0.846147
0.923047
0.951559
0.965462
0.973329
0.97825
0.981495
0.983649
0.984988
0.985621
0.9912
0.990629
0.989565
0.987948
0.985618
0.982233
0.977051
0.968323
0.951802
0.914484
0.801754
0.502099
0.362211
0.446936
0.750037
0.899674
0.946089
0.965549
0.975511
0.981268
0.984969
0.987496
0.989256
0.99044
0.991126
0.99132
0.990992
0.990178
0.988854
0.986917
0.984134
0.980009
0.973445
0.96175
0.937936
0.876916
0.672333
0.401736
0.373817
0.58215
0.845011
0.927501
0.957161
0.971029
0.978593
0.983215
0.986285
0.988412
0.98988
0.990818
0.991267
0.993492
0.992977
0.992023
0.990605
0.988624
0.985853
0.981775
0.975167
0.963394
0.939635
0.882246
0.730296
0.572987
0.682862
0.859423
0.931109
0.959541
0.973142
0.980604
0.985084
0.988083
0.990213
0.991748
0.992805
0.993424
0.993598
0.993303
0.992569
0.991392
0.989717
0.987393
0.984081
0.979007
0.970379
0.954162
0.9187
0.825257
0.631032
0.591392
0.780964
0.902523
0.94753
0.967113
0.97718
0.982969
0.986644
0.989183
0.991007
0.992304
0.993147
0.993553
0.99462
0.994091
0.993114
0.991676
0.989715
0.987057
0.983286
0.9774
0.96741
0.948672
0.909401
0.827023
0.744033
0.803255
0.895569
0.942358
0.964252
0.975639
0.982212
0.98633
0.989185
0.991281
0.99283
0.993911
0.994547
0.994724
0.994423
0.993669
0.992467
0.990786
0.988517
0.985395
0.980777
0.973263
0.959915
0.933474
0.876124
0.776342
0.754606
0.852615
0.922445
0.9547
0.970502
0.97916
0.984372
0.987803
0.990261
0.992081
0.9934
0.994266
0.994681
0.995287
0.994715
0.993649
0.992083
0.989967
0.987161
0.983316
0.977594
0.968368
0.952193
0.922055
0.870441
0.82747
0.857469
0.912444
0.947024
0.965543
0.975922
0.982235
0.986402
0.989397
0.99165
0.993335
0.994516
0.995206
0.995396
0.995071
0.994251
0.992939
0.991112
0.988687
0.985441
0.98083
0.973704
0.961727
0.939959
0.899627
0.843388
0.832546
0.885155
0.931544
0.957244
0.971166
0.979271
0.984405
0.987939
0.99055
0.992521
0.99396
0.994904
0.995352
0.995777
0.995151
0.993975
0.992236
0.989882
0.986785
0.982646
0.976845
0.968039
0.953736
0.930061
0.896074
0.872014
0.88848
0.923175
0.949414
0.965437
0.975199
0.98152
0.985951
0.989245
0.99175
0.993624
0.994929
0.995687
0.995893
0.995539
0.994636
0.993183
0.99115
0.988458
0.984907
0.98008
0.973052
0.961992
0.943678
0.914389
0.880511
0.874637
0.905041
0.937127
0.958053
0.970645
0.978511
0.983799
0.987638
0.990529
0.992722
0.994319
0.995358
0.995848
0.996213
0.995537
0.994269
0.992381
0.989809
0.986438
0.982047
0.976208
0.96791
0.955546
0.937377
0.914995
0.901035
0.910446
0.932519
0.952023
0.965557
0.9746
0.98088
0.985534
0.989107
0.991847
0.993885
0.995296
0.996112
0.996336
0.995953
0.994979
0.993406
0.99119
0.988245
0.984415
0.979412
0.972543
0.962511
0.947485
0.926548
0.905775
0.902448
0.920511
0.942516
0.959137
0.970294
0.977843
0.983245
0.987355
0.990514
0.992909
0.99464
0.99576
0.996289
0.996662
0.995968
0.994674
0.992746
0.990111
0.986658
0.982248
0.976644
0.969213
0.959137
0.946028
0.931969
0.92406
0.929328
0.942791
0.956438
0.967197
0.975146
0.981094
0.985732
0.989385
0.992196
0.99428
0.995719
0.996556
0.996788
0.996392
0.995396
0.99379
0.991521
0.988498
0.984595
0.979666
0.97327
0.964655
0.953068
0.93894
0.926652
0.924803
0.935224
0.949537
0.96194
0.971278
0.978173
0.983423
0.98759
0.990832
0.993285
0.995051
0.996196
0.996741
0.997158
0.996496
0.995277
0.993475
0.991029
0.987853
0.983878
0.979028
0.973026
0.965653
0.957165
0.94915
0.945014
0.947741
0.955221
0.9638
0.971472
0.977767
0.98285
0.987002
0.990355
0.992961
0.994906
0.996259
0.997055
0.997279
0.996898
0.995954
0.994447
0.992333
0.989534
0.985967
0.981597
0.976223
0.969568
0.96156
0.952975
0.946325
0.945373
0.950901
0.959315
0.967612
0.974636
0.98032
0.984921
0.988705
0.991697
0.993977
0.995631
0.996713
0.997235
0.997713
0.99714
0.996106
0.994613
0.992632
0.990123
0.987078
0.98351
0.979392
0.9748
0.970088
0.966108
0.964196
0.965445
0.969078
0.973714
0.978375
0.98261
0.986299
0.989459
0.992091
0.994191
0.995795
0.996936
0.997622
0.997819
0.997485
0.996676
0.995413
0.99368
0.99144
0.98866
0.985369
0.981534
0.977165
0.972444
0.967944
0.964784
0.964351
0.966935
0.971222
0.975967
0.980461
0.984442
0.987872
0.990792
0.993168
0.995026
0.996404
0.997326
0.99778
0.998321
0.997888
0.997132
0.99608
0.994743
0.993123
0.991234
0.989113
0.986825
0.984488
0.982313
0.980632
0.979867
0.980364
0.981871
0.983965
0.986285
0.988595
0.990759
0.992703
0.994386
0.995789
0.996908
0.997737
0.998251
0.998403
0.998148
0.997545
0.996638
0.995443
0.993964
0.992208
0.990201
0.98799
0.98566
0.983369
0.981387
0.980098
0.979927
0.980969
0.982815
0.98506
0.987402
0.989657
0.991726
0.99355
0.9951
0.996367
0.997347
0.998028
0.998373
0.998971
0.998711
0.998274
0.9977
0.997012
0.996226
0.995347
0.994391
0.993419
0.992495
0.991697
0.991119
0.990866
0.991029
0.991542
0.992297
0.993198
0.994164
0.995127
0.996028
0.996835
0.997546
0.998149
0.998621
0.998928
0.999021
0.998865
0.99851
0.998
0.997367
0.99663
0.995799
0.994875
0.993905
0.992949
0.992077
0.991374
0.990941
0.990885
0.991232
0.991877
0.992715
0.993658
0.994632
0.995578
0.996432
0.997193
0.997854
0.998397
0.998794
0.999003
0.999645
0.999562
0.999431
0.99927
0.999092
0.998901
0.998691
0.998459
0.998233
0.998028
0.997859
0.997742
0.997692
0.997725
0.997827
0.997985
0.998183
0.998405
0.998637
0.998854
0.999048
0.999229
0.999395
0.999534
0.999631
0.999662
0.999611
0.999501
0.999352
0.999182
0.998999
0.998802
0.998576
0.998345
0.998127
0.997939
0.997794
0.997707
0.997696
0.997765
0.997897
0.998076
0.998287
0.998518
0.998749
0.998951
0.999138
0.999312
0.999467
0.999588
0.999656
)
;

boundaryField
{
    top
    {
        type            calculated;
        value           uniform 1;
    }
    bottom
    {
        type            calculated;
        value           uniform 0.148957;
    }
    frontAndBack
    {
        type            empty;
    }
    left_cyc
    {
        type            cyclic;
    }
    right_cyc
    {
        type            cyclic;
    }
}


// ************************************************************************* //
