/*--------------------------------*- C++ -*----------------------------------*\
| =========                 |                                                 |
| \\      /  F ield         | OpenFOAM: The Open Source CFD Toolbox           |
|  \\    /   O peration     | Version:  2.3.0                                 |
|   \\  /    A nd           | Web:      www.OpenFOAM.org                      |
|    \\/     M anipulation  |                                                 |
\*---------------------------------------------------------------------------*/
FoamFile
{
    version     2.0;
    format      ascii;
    class       volScalarField;
    location    "17000";
    object      NUEff;
}
// * * * * * * * * * * * * * * * * * * * * * * * * * * * * * * * * * * * * * //

dimensions      [0 2 -1 0 0 0 0];

internalField   nonuniform List<scalar> 
765
(
0.0165285
0.0164886
0.0165217
0.016592
0.0166454
0.01661
0.0164311
0.0162423
0.0159945
0.0156761
0.0155035
0.0157899
0.0160953
0.0163248
0.0165164
0.0166445
0.0166408
0.0165734
0.0165098
0.0164973
0.0165675
0.0166979
0.0168708
0.0170887
0.0173636
0.0177159
0.0181771
0.0187924
0.0196234
0.0207526
0.0223031
0.0245795
0.0271326
0.0294177
0.0312645
0.0321425
0.0319034
0.0306578
0.0285955
0.0262133
0.0236044
0.0216567
0.0202835
0.0192783
0.0185374
0.0179869
0.0175714
0.0172514
0.0169998
0.0167995
0.0166417
0.0233198
0.0230637
0.022965
0.0229558
0.0229165
0.0226812
0.0221452
0.0211621
0.0197244
0.018109
0.0173451
0.0186345
0.0202485
0.0215383
0.022343
0.0228218
0.0229739
0.022986
0.0230146
0.0231616
0.0234797
0.0240551
0.0248538
0.0258769
0.0271689
0.0288214
0.0310085
0.0340838
0.0388348
0.047254
0.0640387
0.0961037
0.160441
0.317759
0.58837
0.716937
0.687277
0.488453
0.23963
0.129885
0.0818251
0.0560742
0.0433901
0.0367513
0.0327778
0.0300989
0.0281418
0.0266395
0.0254556
0.0245182
0.0237974
0.0331464
0.0322478
0.0315863
0.0310631
0.0305369
0.0297971
0.0285459
0.0262444
0.0231344
0.0200435
0.0187263
0.0210078
0.0242552
0.027182
0.0291535
0.0301518
0.0307888
0.0312997
0.0318637
0.032606
0.0336151
0.0349512
0.0368322
0.0393713
0.0427282
0.0472455
0.0534919
0.0626344
0.0773854
0.104658
0.173005
0.434775
0.805443
0.906118
0.938669
0.949851
0.947199
0.929719
0.88114
0.707225
0.287081
0.136973
0.0916126
0.0706671
0.0586246
0.0508167
0.0453298
0.0413136
0.0382964
0.0360112
0.0343495
0.0406524
0.0390785
0.0377448
0.0366074
0.0356044
0.0345528
0.0328299
0.0297244
0.0254753
0.021371
0.0197096
0.0226238
0.0270077
0.0309994
0.033638
0.0349955
0.0359939
0.037038
0.0382463
0.0396679
0.0413475
0.0433383
0.0457081
0.0485666
0.0520244
0.0562081
0.0615706
0.0691813
0.0816302
0.106449
0.175157
0.48662
0.850134
0.930725
0.956461
0.965186
0.963174
0.94947
0.911034
0.768149
0.305286
0.138038
0.0942698
0.0758682
0.0658125
0.0592813
0.0544727
0.0505975
0.0473831
0.0447337
0.0425169
0.0407414
0.0393188
0.0380166
0.0369081
0.0360391
0.0352569
0.0338662
0.0310161
0.026584
0.0221321
0.0203649
0.0234788
0.0282172
0.0322277
0.0344982
0.0355768
0.0363366
0.0372868
0.0384725
0.0398273
0.0412814
0.0427872
0.0443227
0.0458957
0.0475618
0.0494803
0.052027
0.0559857
0.0630627
0.0776848
0.116033
0.291093
0.816308
0.932062
0.961149
0.97017
0.968172
0.953674
0.907681
0.666644
0.184463
0.0960704
0.0706399
0.0597944
0.0542219
0.0509419
0.048705
0.0469167
0.0453016
0.0437507
0.042229
0.0370848
0.0361103
0.035214
0.0345154
0.034088
0.0337446
0.0330106
0.0307921
0.0267269
0.022451
0.0207725
0.0237342
0.0282574
0.0317972
0.0333932
0.0338817
0.0342084
0.0347279
0.0355053
0.0364401
0.037415
0.0383407
0.0391712
0.0399116
0.0406337
0.041507
0.0428569
0.0452818
0.0499626
0.0597012
0.0836908
0.177253
0.747254
0.930083
0.963807
0.973341
0.971298
0.955632
0.89854
0.478921
0.122993
0.0717405
0.0551552
0.0478464
0.0442135
0.0422886
0.0411704
0.0403838
0.0396706
0.038903
0.0380363
0.0333813
0.0327655
0.0322578
0.0319558
0.0318906
0.0318732
0.0314182
0.0295916
0.0262061
0.022567
0.02108
0.0236585
0.0274681
0.0304128
0.031695
0.0318643
0.0318874
0.0320272
0.0324059
0.0329592
0.0335855
0.0341938
0.0347268
0.0351756
0.0355967
0.0361385
0.0370839
0.0389312
0.0426048
0.0501757
0.0680607
0.131006
0.662138
0.929117
0.966339
0.976152
0.974091
0.957729
0.890898
0.333177
0.0957653
0.0593792
0.0467209
0.0409788
0.0381334
0.0366962
0.0359433
0.0354704
0.0350506
0.034573
0.0340074
0.0305972
0.0302471
0.0300168
0.0299242
0.0298955
0.0298659
0.0293962
0.027974
0.0254551
0.0226265
0.021354
0.0234812
0.0263821
0.028581
0.0296389
0.0299002
0.0299061
0.0299374
0.0300722
0.0303449
0.0307215
0.0311454
0.0315662
0.0319619
0.0323619
0.0328815
0.033768
0.0354658
0.038774
0.0454262
0.0607015
0.111682
0.600491
0.930594
0.969074
0.978877
0.976829
0.96041
0.888818
0.268485
0.0834802
0.0533364
0.0424294
0.0373398
0.0347529
0.0334178
0.0327017
0.0322437
0.0318509
0.0314437
0.0310144
0.0287348
0.0284959
0.0283241
0.0282069
0.0281275
0.0279678
0.0274971
0.0264439
0.0246927
0.0226443
0.0216018
0.0232603
0.0253207
0.0268625
0.0276986
0.0280363
0.0281475
0.0282345
0.0283664
0.0285572
0.0288168
0.0291386
0.0295106
0.0299318
0.0304327
0.0311107
0.0321787
0.0340337
0.0374027
0.0438813
0.0584346
0.107288
0.61344
0.935801
0.972196
0.981606
0.97962
0.963996
0.896546
0.264276
0.0802067
0.0514785
0.0410188
0.0359839
0.0332824
0.0317699
0.0308727
0.030272
0.0298031
0.0293975
0.0290392
0.0275886
0.0272966
0.027058
0.0268587
0.0266639
0.0264051
0.0259676
0.0252069
0.0240383
0.0226415
0.021833
0.0230467
0.0244352
0.0254804
0.0261231
0.0264874
0.0267146
0.0269053
0.0271137
0.0273688
0.0276791
0.0280502
0.0284923
0.0290305
0.0297161
0.0306609
0.0320839
0.0343855
0.0383104
0.045566
0.0618798
0.121391
0.723758
0.945285
0.975924
0.984411
0.98258
0.968781
0.915102
0.357724
0.0879565
0.0541455
0.0424311
0.0367078
0.0334832
0.0315519
0.030328
0.0294891
0.028861
0.0283576
0.0279397
0.0275171
0.0270243
0.0265889
0.0261968
0.0258274
0.0254462
0.0249964
0.0244029
0.0236109
0.0226904
0.0220997
0.0229339
0.0238513
0.0245849
0.0251266
0.0255477
0.0259205
0.0262946
0.026699
0.0271515
0.0276656
0.0282552
0.0289384
0.0297779
0.0308457
0.0322931
0.0343992
0.0376695
0.0430686
0.0529889
0.0768458
0.190042
0.849828
0.957299
0.980146
0.987269
0.985683
0.974487
0.938185
0.665993
0.122105
0.0652996
0.0487379
0.0409103
0.036417
0.0336275
0.0317883
0.0304921
0.0295129
0.0287313
0.0280806
0.0298304
0.0288441
0.0279732
0.0271912
0.0264784
0.0258159
0.0251794
0.0245369
0.0238619
0.0231846
0.0227522
0.0233365
0.024034
0.0247029
0.0253426
0.0259857
0.0266629
0.0273963
0.0282045
0.0291092
0.0301392
0.0313305
0.0327207
0.0343382
0.0363698
0.0390714
0.0429245
0.0488903
0.0590705
0.0796827
0.144693
0.632872
0.925285
0.96968
0.984694
0.990151
0.988889
0.980674
0.959286
0.883382
0.342994
0.110176
0.0705856
0.0549854
0.0466235
0.0415311
0.0381372
0.0356938
0.0338144
0.0322861
0.0309656
0.0403246
0.0377057
0.0355077
0.0336157
0.031956
0.0304844
0.0291764
0.0280188
0.0270121
0.0261967
0.0257726
0.0263588
0.0272473
0.0283064
0.0295128
0.0308717
0.0323995
0.0341262
0.0361039
0.0384188
0.0412007
0.0446251
0.0488895
0.0541812
0.0607589
0.0700526
0.0842578
0.109251
0.165957
0.369818
0.795529
0.924265
0.963743
0.98086
0.989361
0.993026
0.99214
0.986886
0.97597
0.95342
0.896363
0.680514
0.264672
0.140703
0.0993127
0.0790112
0.066802
0.058555
0.0524543
0.0475023
0.0435256
0.152461
0.119172
0.098071
0.0835221
0.072886
0.064805
0.0585304
0.0536366
0.0499057
0.0473231
0.0462821
0.0478253
0.0507639
0.0548361
0.0601171
0.0668798
0.0756294
0.087258
0.103414
0.127391
0.166461
0.238178
0.380157
0.595152
0.757511
0.839055
0.884967
0.914776
0.936095
0.952601
0.96588
0.976381
0.984315
0.990029
0.993869
0.99584
0.99534
0.992659
0.988172
0.981725
0.97295
0.961604
0.947442
0.929713
0.906277
0.872408
0.818454
0.716952
0.527945
0.326642
0.211244
0.98252
0.980831
0.979008
0.977027
0.97487
0.972539
0.970077
0.96759
0.965282
0.963496
0.9628
0.963867
0.965859
0.968265
0.970778
0.973222
0.975514
0.977626
0.979564
0.981349
0.983006
0.984546
0.985955
0.987226
0.988377
0.989418
0.990335
0.991155
0.991955
0.992798
0.99373
0.994763
0.995865
0.99696
0.997922
0.998516
0.998357
0.997595
0.996569
0.995465
0.994389
0.993398
0.992507
0.991691
0.990897
0.990061
0.989099
0.988028
0.986846
0.985538
0.98409
)
;

boundaryField
{
    top
    {
        type            calculated;
        value           uniform 1;
    }
    bottom
    {
        type            calculated;
        value           uniform 0.0143123;
    }
    frontAndBack
    {
        type            empty;
    }
    left_cyc
    {
        type            cyclic;
    }
    right_cyc
    {
        type            cyclic;
    }
}


// ************************************************************************* //
