/*--------------------------------*- C++ -*----------------------------------*\
| =========                 |                                                 |
| \\      /  F ield         | OpenFOAM: The Open Source CFD Toolbox           |
|  \\    /   O peration     | Version:  2.3.0                                 |
|   \\  /    A nd           | Web:      www.OpenFOAM.org                      |
|    \\/     M anipulation  |                                                 |
\*---------------------------------------------------------------------------*/
FoamFile
{
    version     2.0;
    format      ascii;
    class       volScalarField;
    location    "17000";
    object      p;
}
// * * * * * * * * * * * * * * * * * * * * * * * * * * * * * * * * * * * * * //

dimensions      [0 2 -2 0 0 0 0];

internalField   nonuniform List<scalar> 
765
(
-1662.36
-1671.2
-1679.86
-1689.04
-1699.64
-1712.62
-1728.49
-1746.62
-1764.91
-1779.47
-1784.45
-1775.27
-1758.91
-1740.25
-1722.68
-1707.71
-1695.59
-1685.56
-1676.64
-1667.96
-1658.94
-1649.18
-1638.51
-1626.76
-1613.7
-1599.03
-1582.2
-1562.31
-1537.87
-1506.64
-1465.06
-1409.13
-1342.28
-1264.6
-1172.55
-1110.07
-1126.03
-1207.34
-1296.07
-1368.14
-1432.23
-1482.27
-1519.35
-1547.66
-1570.15
-1588.74
-1604.68
-1618.71
-1631.25
-1642.59
-1652.91
-1497.19
-1505.7
-1514.46
-1523.81
-1534.07
-1545.46
-1557.87
-1570.77
-1582.59
-1591.19
-1594.17
-1588.72
-1578.85
-1566.38
-1553.48
-1541.36
-1530.32
-1520.38
-1511.25
-1502.59
-1494.08
-1485.44
-1476.41
-1466.8
-1456.48
-1445.25
-1432.84
-1418.86
-1402.68
-1383.83
-1360.99
-1332.44
-1299.11
-1274.4
-1281.47
-1282.47
-1282.86
-1277
-1280.42
-1312.55
-1344.02
-1370.09
-1391.23
-1408.98
-1424.24
-1437.56
-1449.49
-1460.36
-1470.4
-1479.78
-1488.64
-1359.52
-1366.58
-1374.06
-1382.02
-1390.47
-1399.36
-1408.47
-1417.07
-1423.94
-1428.16
-1429.61
-1426.98
-1421.9
-1414.26
-1405.35
-1396.28
-1387.5
-1379.2
-1371.4
-1364.06
-1357.11
-1350.45
-1343.95
-1337.46
-1330.93
-1324.32
-1317.64
-1310.94
-1304.27
-1297.78
-1284.59
-1268.25
-1248.06
-1212.71
-1204.32
-1203.23
-1203.66
-1205.24
-1224.4
-1257.48
-1273.34
-1290.88
-1300.14
-1306.59
-1313.31
-1320.01
-1326.67
-1333.26
-1339.77
-1346.24
-1352.78
-1236.97
-1241.96
-1247.25
-1252.76
-1258.4
-1264.1
-1269.63
-1274.21
-1277
-1277.91
-1278.14
-1277.72
-1276.33
-1272.85
-1267.86
-1262.21
-1256.51
-1250.9
-1245.45
-1240.26
-1235.38
-1230.86
-1226.7
-1222.84
-1219.25
-1215.85
-1212.59
-1209.32
-1205.85
-1201.9
-1187.19
-1161.55
-1139.42
-1129.99
-1123.01
-1117.63
-1119.08
-1125.65
-1133.1
-1143.26
-1172.09
-1194.87
-1203.35
-1206.98
-1210.37
-1213.62
-1216.93
-1220.39
-1224.08
-1228.03
-1232.32
-1118.03
-1120.84
-1123.77
-1126.71
-1129.64
-1132.52
-1135.14
-1136.89
-1137.16
-1136.17
-1135.62
-1136.59
-1137.32
-1136.52
-1134.4
-1131.64
-1128.73
-1125.79
-1122.85
-1119.96
-1117.21
-1114.66
-1112.37
-1110.32
-1108.42
-1106.51
-1104.37
-1101.69
-1098.11
-1093.88
-1083.98
-1063.07
-1030.48
-1022.74
-1022.95
-1021.61
-1022.05
-1022.97
-1024.55
-1038.38
-1072.57
-1089.39
-1095.4
-1099.42
-1102.61
-1105.04
-1107.06
-1108.94
-1110.88
-1113.02
-1115.4
-996.824
-997.813
-998.761
-999.639
-1000.45
-1001.16
-1001.6
-1001.38
-1000.11
-998.052
-997.076
-998.823
-1000.75
-1001.66
-1001.6
-1001.04
-1000.28
-999.448
-998.548
-997.587
-996.6
-995.641
-994.746
-993.903
-993.029
-991.959
-990.46
-988.274
-985.133
-981.238
-974.921
-962.067
-936.079
-931.792
-933.139
-932.685
-932.91
-932.371
-933.071
-944.025
-967.151
-978.108
-982.615
-986.301
-989.04
-990.931
-992.238
-993.211
-994.06
-994.919
-995.843
-871.262
-870.861
-870.356
-869.763
-869.084
-868.227
-867.069
-865.382
-862.997
-860.255
-859.09
-861.239
-863.977
-866.134
-867.613
-868.641
-869.417
-870.066
-870.634
-871.11
-871.479
-871.744
-871.92
-872
-871.931
-871.609
-870.891
-869.636
-867.739
-865.403
-862.055
-857.431
-847.591
-846.927
-846.517
-845.842
-846.095
-846.526
-847.804
-850.14
-858.481
-863.512
-866.171
-868.416
-870.061
-871.098
-871.651
-871.866
-871.873
-871.759
-871.557
-741.095
-739.697
-738.189
-736.574
-734.806
-732.77
-730.347
-727.433
-724.101
-720.915
-719.689
-722.007
-725.348
-728.576
-731.315
-733.576
-735.506
-737.214
-738.793
-740.269
-741.627
-742.852
-743.936
-744.868
-745.616
-746.135
-746.391
-746.375
-746.151
-745.984
-745.322
-748.646
-761.393
-765.897
-762.927
-761.205
-761.625
-764.767
-766.772
-754.112
-746.313
-745.704
-746.03
-746.223
-746.367
-746.273
-745.913
-745.304
-744.484
-743.497
-742.365
-606.971
-604.815
-602.532
-600.078
-597.364
-594.286
-590.731
-586.732
-582.6
-579.13
-577.879
-580.261
-584.043
-588.201
-592.062
-595.44
-598.383
-600.996
-603.386
-605.622
-607.74
-609.755
-611.68
-613.519
-615.258
-616.895
-618.487
-620.141
-622.071
-624.587
-626.904
-638.772
-675.353
-684.618
-679.317
-676.732
-677.334
-683.315
-686.303
-658.163
-633.367
-626.341
-623.808
-621.399
-619.561
-617.918
-616.308
-614.631
-612.851
-610.978
-609.021
-469.833
-466.923
-463.863
-460.555
-456.887
-452.749
-448.095
-443.089
-438.237
-434.509
-433.213
-435.649
-439.831
-444.828
-449.749
-454.232
-458.203
-461.737
-464.95
-467.948
-470.824
-473.65
-476.502
-479.44
-482.477
-485.645
-489.072
-492.933
-497.592
-503.404
-510.179
-533.344
-590.348
-600.204
-592.883
-590.714
-591.06
-596.95
-599.127
-562.654
-523.109
-507.467
-501.43
-495.915
-491.577
-487.872
-484.546
-481.427
-478.42
-475.51
-472.671
-331.342
-327.428
-323.353
-318.972
-314.149
-308.786
-302.91
-296.805
-291.136
-287.011
-285.605
-288.17
-292.887
-298.809
-304.891
-310.614
-315.795
-320.46
-324.724
-328.73
-332.619
-336.527
-340.617
-345.054
-349.88
-355.164
-361.133
-368.066
-376.533
-386.757
-399.602
-426.765
-492.34
-506.503
-502.128
-502.589
-502.249
-503.123
-504.399
-470.93
-415.595
-393.728
-383.046
-373.395
-365.608
-359.047
-353.354
-348.248
-343.557
-339.243
-335.23
-195.375
-189.942
-184.397
-178.545
-172.215
-165.309
-157.896
-150.357
-143.502
-138.61
-136.953
-139.867
-145.499
-152.705
-160.274
-167.552
-174.273
-180.436
-186.17
-191.659
-197.1
-202.693
-208.687
-215.328
-222.64
-230.682
-239.647
-249.349
-259.323
-267.547
-283.584
-319.398
-383.245
-402.51
-410.233
-415.368
-414.126
-407.333
-399.244
-362.594
-301.498
-275.967
-265.489
-256.048
-246.15
-236.614
-227.986
-220.218
-213.134
-206.722
-200.893
-68.0749
-60.1932
-52.0865
-43.5918
-34.5795
-25.0067
-15.0259
-5.13206
3.70841
9.99968
12.147
8.5013
1.26152
-8.06588
-18.0806
-27.9784
-37.3875
-46.2334
-54.5966
-62.6214
-70.4786
-78.3833
-86.8607
-96.5791
-107.169
-117.736
-127.713
-135.337
-141.001
-143.864
-157.753
-210.388
-275.903
-311.401
-333.388
-343.76
-341.299
-326.194
-300.075
-253.826
-185.326
-147.13
-144.131
-138.909
-133.358
-124.626
-114.399
-103.805
-93.4079
-84.1199
-75.9231
23.5665
33.1883
42.9296
52.9901
63.6392
75.1186
87.4708
100.259
112.251
121.186
124.373
119.12
108.987
96.5055
83.7275
71.602
60.3823
49.933
39.9867
30.2847
20.6734
11.2652
2.33171
-5.55923
-11.6849
-15.1658
-15.9209
-15.4402
-20.1362
-35.3228
-66.1807
-118.564
-169.836
-202.414
-223.653
-233.581
-231.241
-216.906
-191.732
-152.889
-96.3664
-53.0254
-29.2372
-17.4851
-15.8821
-16.1609
-14.5681
-10.1246
-3.32238
4.97208
14.0827
73.9901
69.197
63.4402
56.7234
48.9143
39.8297
29.3915
17.8867
6.391
-2.83878
-5.86892
-0.598879
9.82866
21.5856
32.8758
42.9141
51.5862
59.0331
65.4393
70.9004
75.3732
78.9209
82.4456
85.9784
86.3431
81.9035
71.7138
53.4953
21.7641
-29.7044
-104.396
-193.773
-282.7
-354.197
-404.647
-428.78
-423.117
-388.648
-329.826
-251.385
-159.432
-75.5909
-9.09187
34.8104
60.772
75.8352
83.8797
86.6886
85.0264
81.1966
77.7991
)
;

boundaryField
{
    top
    {
        type            calculated;
        value           uniform -9.81;
    }
    bottom
    {
        type            calculated;
        value           nonuniform List<scalar> 
51
(
-1753.38
-1762.35
-1770.9
-1779.84
-1790.26
-1803.36
-1819.83
-1838.61
-1857.78
-1873.51
-1879.14
-1868.88
-1851.41
-1831.96
-1813.73
-1798.33
-1786.23
-1776.42
-1767.71
-1759.08
-1749.82
-1739.63
-1728.4
-1715.95
-1702.05
-1686.34
-1668.2
-1646.68
-1620.2
-1586.48
-1541.9
-1482.29
-1412.05
-1331.86
-1238.05
-1174.81
-1190.97
-1273.4
-1364.19
-1439.05
-1506.87
-1560.31
-1600.19
-1630.81
-1655.18
-1675.27
-1692.41
-1707.4
-1720.72
-1732.7
-1743.54
)
;
    }
    frontAndBack
    {
        type            empty;
    }
    left_cyc
    {
        type            cyclic;
    }
    right_cyc
    {
        type            cyclic;
    }
}


// ************************************************************************* //
