/*--------------------------------*- C++ -*----------------------------------*\
| =========                 |                                                 |
| \\      /  F ield         | OpenFOAM: The Open Source CFD Toolbox           |
|  \\    /   O peration     | Version:  2.3.0                                 |
|   \\  /    A nd           | Web:      www.OpenFOAM.org                      |
|    \\/     M anipulation  |                                                 |
\*---------------------------------------------------------------------------*/
FoamFile
{
    version     2.0;
    format      ascii;
    class       volScalarField;
    location    "17000";
    object      p_rgh;
}
// * * * * * * * * * * * * * * * * * * * * * * * * * * * * * * * * * * * * * //

dimensions      [0 2 -2 0 0 0 0];

internalField   nonuniform List<scalar> 
3060
(
0.16311
0.163079
0.163021
0.162936
0.162825
0.162688
0.162526
0.162339
0.162127
0.161891
0.161635
0.161362
0.161076
0.160784
0.160495
0.160218
0.159963
0.159739
0.159554
0.15941
0.159305
0.159233
0.159188
0.159161
0.159148
0.159144
0.159149
0.159164
0.159193
0.159242
0.159318
0.159429
0.159579
0.15977
0.159999
0.160258
0.160537
0.160827
0.161119
0.161403
0.161674
0.161926
0.162157
0.162364
0.162546
0.162703
0.162834
0.162938
0.163016
0.163068
0.163092
0.163088
0.163057
0.162998
0.162913
0.162801
0.162664
0.1625
0.162311
0.162097
0.16186
0.161603
0.161328
0.161041
0.160749
0.160461
0.160186
0.159934
0.159715
0.159535
0.159396
0.159295
0.159227
0.159184
0.159159
0.159147
0.159144
0.15915
0.159167
0.159198
0.159249
0.159329
0.159445
0.1596
0.159796
0.160029
0.16029
0.160572
0.160862
0.161153
0.161437
0.161706
0.161957
0.162186
0.162392
0.162572
0.162728
0.162857
0.162961
0.163039
0.16309
0.163113
0.162872
0.162844
0.162793
0.162718
0.162619
0.162496
0.162348
0.162178
0.161985
0.161772
0.161541
0.161295
0.16104
0.160782
0.160528
0.160284
0.160051
0.159837
0.159655
0.159513
0.159407
0.159332
0.159283
0.159252
0.159235
0.15923
0.159237
0.159255
0.159289
0.159342
0.15942
0.159531
0.159679
0.159866
0.160084
0.160319
0.160565
0.160819
0.161077
0.161331
0.161574
0.161802
0.162012
0.1622
0.162365
0.162507
0.162625
0.162718
0.162788
0.162833
0.162854
0.162851
0.162823
0.162771
0.162696
0.162596
0.162472
0.162323
0.162151
0.161957
0.161743
0.16151
0.161263
0.161008
0.16075
0.160498
0.160254
0.160023
0.159813
0.159636
0.159498
0.159396
0.159325
0.159278
0.159249
0.159234
0.15923
0.159238
0.159258
0.159294
0.15935
0.159432
0.159547
0.1597
0.159892
0.160112
0.160348
0.160595
0.160851
0.161109
0.161362
0.161604
0.161831
0.162039
0.162226
0.16239
0.162531
0.162648
0.162741
0.162809
0.162854
0.162875
0.162732
0.162704
0.16265
0.162573
0.162472
0.16235
0.162207
0.162046
0.16187
0.161679
0.161476
0.161263
0.161041
0.16081
0.160573
0.160338
0.160119
0.159927
0.159765
0.159628
0.159518
0.159439
0.159385
0.15935
0.15933
0.159324
0.159332
0.159354
0.159392
0.159449
0.159532
0.159646
0.159787
0.159953
0.160149
0.160371
0.160606
0.160842
0.161072
0.161292
0.161503
0.161703
0.161891
0.162064
0.162221
0.162359
0.162477
0.162572
0.162643
0.16269
0.162712
0.162709
0.16268
0.162626
0.162549
0.162447
0.162324
0.162181
0.162019
0.161842
0.161651
0.161448
0.161234
0.161011
0.16078
0.160543
0.160309
0.160093
0.159906
0.159747
0.159612
0.159506
0.159431
0.15938
0.159347
0.159329
0.159324
0.159334
0.159358
0.159397
0.159457
0.159544
0.159662
0.159806
0.159976
0.160176
0.160401
0.160637
0.160873
0.161102
0.161322
0.161532
0.161731
0.161918
0.162091
0.162247
0.162385
0.162502
0.162596
0.162667
0.162714
0.162735
0.162918
0.162888
0.162832
0.162751
0.162647
0.16252
0.162373
0.162209
0.162029
0.161838
0.161637
0.161427
0.161211
0.160988
0.16076
0.160534
0.160317
0.160114
0.15993
0.159781
0.159666
0.159576
0.159513
0.159471
0.159446
0.159439
0.159449
0.159476
0.15952
0.159587
0.15968
0.1598
0.159954
0.160141
0.160346
0.160565
0.160791
0.161018
0.161239
0.161455
0.161662
0.161862
0.16205
0.162226
0.162387
0.162529
0.162651
0.16275
0.162825
0.162874
0.162897
0.162894
0.162863
0.162807
0.162726
0.16262
0.162493
0.162346
0.162181
0.162001
0.161809
0.161607
0.161397
0.161181
0.160957
0.16073
0.160505
0.16029
0.160088
0.159909
0.159765
0.159653
0.159566
0.159506
0.159467
0.159445
0.159439
0.159451
0.15948
0.159527
0.159597
0.159694
0.159817
0.159977
0.160167
0.160375
0.160595
0.160822
0.161048
0.16127
0.161484
0.161692
0.161891
0.162079
0.162254
0.162414
0.162556
0.162677
0.162776
0.16285
0.162899
0.162922
0.163223
0.163192
0.163136
0.163055
0.16295
0.162823
0.162676
0.162511
0.162329
0.162134
0.161928
0.161711
0.161487
0.161258
0.161026
0.160799
0.16058
0.160369
0.160167
0.159987
0.159845
0.159741
0.159666
0.159614
0.159583
0.159573
0.159586
0.15962
0.159675
0.159754
0.159862
0.160009
0.160193
0.160397
0.160609
0.160829
0.161057
0.161288
0.161517
0.16174
0.161954
0.162159
0.162351
0.162529
0.16269
0.162833
0.162954
0.163054
0.163129
0.163178
0.163202
0.163198
0.163168
0.163111
0.163029
0.162924
0.162796
0.162648
0.162482
0.162301
0.162105
0.161898
0.161681
0.161456
0.161226
0.160995
0.160769
0.160551
0.160341
0.160141
0.159966
0.15983
0.15973
0.159658
0.159609
0.159581
0.159574
0.15959
0.159626
0.159684
0.159766
0.15988
0.160032
0.16022
0.160425
0.160638
0.160859
0.161088
0.16132
0.161548
0.16177
0.161984
0.162188
0.16238
0.162557
0.162717
0.162859
0.16298
0.163079
0.163154
0.163203
0.163226
0.163544
0.163513
0.163454
0.16337
0.163263
0.163132
0.162982
0.162812
0.162627
0.162428
0.162217
0.161995
0.161765
0.161529
0.16129
0.161051
0.160817
0.160594
0.160386
0.160197
0.160037
0.159917
0.159832
0.159775
0.159738
0.159725
0.159741
0.159781
0.159842
0.15993
0.160055
0.160221
0.160412
0.160623
0.160848
0.161083
0.161322
0.161561
0.161796
0.162024
0.162244
0.162453
0.16265
0.162831
0.162996
0.163142
0.163268
0.16337
0.163447
0.163499
0.163523
0.163519
0.163487
0.163429
0.163345
0.163236
0.163105
0.162954
0.162784
0.162598
0.162398
0.162186
0.161964
0.161733
0.161497
0.161257
0.161019
0.160786
0.160565
0.160359
0.160173
0.160018
0.159903
0.159823
0.159769
0.159734
0.159726
0.159746
0.159788
0.159852
0.159945
0.160076
0.160246
0.16044
0.160653
0.160879
0.161115
0.161354
0.161593
0.161828
0.162056
0.162275
0.162483
0.162679
0.16286
0.163024
0.163169
0.163294
0.163395
0.163473
0.163524
0.163548
0.163873
0.16384
0.163779
0.163691
0.163579
0.163444
0.163288
0.163114
0.162923
0.162718
0.1625
0.162272
0.162034
0.16179
0.16154
0.161289
0.16104
0.160798
0.160569
0.160363
0.160191
0.160066
0.159985
0.15993
0.159895
0.159883
0.159898
0.159936
0.159993
0.160079
0.160211
0.160389
0.160598
0.160829
0.161073
0.161323
0.161574
0.161823
0.162066
0.162302
0.162529
0.162744
0.162946
0.163134
0.163304
0.163455
0.163585
0.163691
0.163772
0.163826
0.163852
0.163848
0.163814
0.163753
0.163665
0.163553
0.163417
0.16326
0.163085
0.162893
0.162687
0.162469
0.16224
0.162001
0.161756
0.161507
0.161255
0.161006
0.160766
0.16054
0.160337
0.16017
0.160052
0.159975
0.159924
0.159892
0.159883
0.159903
0.159942
0.160003
0.160094
0.160233
0.160416
0.160629
0.160862
0.161106
0.161356
0.161608
0.161856
0.162099
0.162334
0.16256
0.162774
0.162976
0.163162
0.163332
0.163482
0.163612
0.163717
0.163798
0.163851
0.163877
0.164189
0.164154
0.164089
0.163996
0.163878
0.163736
0.163573
0.163391
0.163193
0.16298
0.162756
0.16252
0.162274
0.162021
0.161761
0.161497
0.161233
0.160973
0.160726
0.160499
0.160306
0.160165
0.160086
0.160046
0.160022
0.160014
0.160024
0.16005
0.160093
0.160179
0.160328
0.160527
0.160758
0.161008
0.161268
0.161533
0.161797
0.162056
0.162308
0.162552
0.162786
0.163009
0.163218
0.163413
0.163591
0.163749
0.163886
0.163998
0.164084
0.164141
0.164168
0.164164
0.164129
0.164064
0.16397
0.163851
0.163709
0.163545
0.163362
0.163163
0.16295
0.162724
0.162487
0.162241
0.161987
0.161726
0.161462
0.161197
0.160939
0.160693
0.16047
0.160282
0.16015
0.160078
0.160042
0.16002
0.160014
0.160027
0.160055
0.160102
0.160196
0.160354
0.160558
0.160791
0.161042
0.161304
0.161569
0.161832
0.16209
0.162341
0.162584
0.162817
0.163039
0.163248
0.163442
0.163619
0.163776
0.163912
0.164024
0.164109
0.164166
0.164193
0.164486
0.164448
0.164378
0.164278
0.164151
0.164
0.163827
0.163636
0.163428
0.163207
0.162973
0.162729
0.162476
0.162213
0.161943
0.161667
0.161389
0.161113
0.160848
0.160602
0.160388
0.160222
0.160126
0.160089
0.160077
0.160073
0.160077
0.160091
0.160133
0.16024
0.160413
0.160632
0.160882
0.16115
0.161426
0.161705
0.161981
0.16225
0.162511
0.162763
0.163006
0.163237
0.163456
0.16366
0.163848
0.164016
0.164162
0.164282
0.164374
0.164436
0.164466
0.164461
0.164423
0.164353
0.164252
0.164125
0.163973
0.163799
0.163607
0.163399
0.163176
0.162942
0.162696
0.162442
0.162178
0.161907
0.16163
0.161351
0.161076
0.160813
0.16057
0.160361
0.160204
0.160117
0.160086
0.160075
0.160073
0.160079
0.160095
0.160145
0.160261
0.160441
0.160665
0.160918
0.161187
0.161464
0.161742
0.162017
0.162285
0.162545
0.162796
0.163037
0.163268
0.163486
0.163689
0.163876
0.164043
0.164188
0.164308
0.1644
0.164461
0.16449
0.164762
0.16472
0.164643
0.164534
0.164396
0.164233
0.164047
0.163843
0.163624
0.163391
0.163147
0.162894
0.162631
0.16236
0.16208
0.161793
0.161502
0.161212
0.160931
0.160667
0.160433
0.160244
0.160118
0.16006
0.160044
0.160041
0.160045
0.160064
0.16013
0.160265
0.160461
0.1607
0.160968
0.161251
0.161542
0.161833
0.162119
0.162398
0.162669
0.16293
0.163182
0.163424
0.163655
0.163871
0.164072
0.164252
0.16441
0.164541
0.164642
0.16471
0.164743
0.164738
0.164696
0.164618
0.164509
0.16437
0.164206
0.16402
0.163815
0.163594
0.16336
0.163115
0.162861
0.162597
0.162324
0.162043
0.161755
0.161463
0.161174
0.160894
0.160633
0.160404
0.160222
0.160106
0.160056
0.160043
0.160041
0.160046
0.16007
0.160145
0.16029
0.160492
0.160736
0.161005
0.16129
0.16158
0.161871
0.162156
0.162434
0.162703
0.162963
0.163214
0.163455
0.163684
0.1639
0.164099
0.164279
0.164436
0.164567
0.164667
0.164735
0.164767
0.16502
0.164974
0.164888
0.164767
0.164615
0.164436
0.164234
0.164014
0.163779
0.163533
0.163277
0.163012
0.16274
0.162459
0.16217
0.161873
0.161572
0.16127
0.160975
0.160696
0.160444
0.160234
0.160081
0.159992
0.159956
0.159948
0.159958
0.159999
0.160097
0.160259
0.160475
0.160732
0.161014
0.161311
0.161613
0.161915
0.162211
0.162499
0.162779
0.163051
0.163315
0.16357
0.163814
0.164047
0.164263
0.16446
0.164634
0.164779
0.164891
0.164967
0.165003
0.164997
0.16495
0.164864
0.164743
0.16459
0.16441
0.164207
0.163986
0.16375
0.163502
0.163245
0.162979
0.162705
0.162423
0.162132
0.161834
0.161532
0.16123
0.160936
0.16066
0.160413
0.160209
0.160064
0.159984
0.159953
0.159948
0.159962
0.16001
0.160116
0.160286
0.160509
0.160769
0.161054
0.161351
0.161653
0.161954
0.162249
0.162535
0.162814
0.163084
0.163346
0.1636
0.163844
0.164075
0.16429
0.164487
0.164659
0.164803
0.164915
0.16499
0.165026
0.165267
0.165215
0.165118
0.164983
0.164813
0.164614
0.164392
0.164152
0.163898
0.163634
0.163363
0.163086
0.162802
0.162512
0.162214
0.161909
0.161599
0.161289
0.160983
0.160692
0.160427
0.160199
0.160023
0.159908
0.15985
0.159835
0.159855
0.15992
0.160043
0.160226
0.16046
0.16073
0.161024
0.161331
0.161642
0.161952
0.162257
0.162555
0.162845
0.163128
0.163405
0.163676
0.163939
0.16419
0.164427
0.164645
0.164837
0.164999
0.165125
0.16521
0.165251
0.165245
0.165192
0.165095
0.164959
0.164788
0.164588
0.164365
0.164124
0.163869
0.163604
0.163331
0.163052
0.162767
0.162475
0.162175
0.161869
0.161558
0.161248
0.160943
0.160655
0.160393
0.160172
0.160004
0.159897
0.159846
0.159836
0.159861
0.159933
0.160065
0.160256
0.160495
0.160769
0.161065
0.161372
0.161683
0.161991
0.162295
0.162591
0.162879
0.163161
0.163437
0.163706
0.163967
0.164218
0.164454
0.16467
0.164862
0.165023
0.165148
0.165233
0.165274
0.165508
0.165449
0.16534
0.165187
0.164996
0.164773
0.164527
0.164262
0.163986
0.163701
0.163412
0.163119
0.162823
0.162522
0.162215
0.161904
0.161588
0.161271
0.160959
0.16066
0.160385
0.160146
0.159955
0.159821
0.159747
0.159725
0.159753
0.159835
0.159977
0.160175
0.16042
0.1607
0.161001
0.161315
0.161632
0.161949
0.162261
0.162568
0.162869
0.163166
0.163459
0.163749
0.164033
0.164308
0.164569
0.164811
0.165027
0.165209
0.165351
0.165448
0.165494
0.165487
0.165427
0.165318
0.165164
0.164972
0.164748
0.1645
0.164235
0.163957
0.163671
0.163381
0.163086
0.162788
0.162486
0.162177
0.161864
0.161547
0.16123
0.160919
0.160622
0.16035
0.160117
0.159933
0.159807
0.159741
0.159726
0.159761
0.159851
0.160001
0.160206
0.160456
0.160739
0.161042
0.161356
0.161673
0.161988
0.162299
0.162604
0.162903
0.163198
0.16349
0.163778
0.164061
0.164335
0.164595
0.164836
0.16505
0.165232
0.165374
0.16547
0.165516
0.16575
0.165682
0.165559
0.165385
0.165169
0.16492
0.164645
0.164352
0.164049
0.16374
0.16343
0.163119
0.162808
0.162496
0.162181
0.161863
0.161543
0.161223
0.160908
0.160606
0.160326
0.160081
0.15988
0.159736
0.159652
0.159627
0.159659
0.159752
0.159904
0.160111
0.160362
0.160646
0.160951
0.161268
0.161589
0.16191
0.162229
0.162544
0.162858
0.16317
0.163482
0.163794
0.164103
0.164406
0.164695
0.164966
0.165208
0.165414
0.165576
0.165685
0.165738
0.165729
0.165661
0.165537
0.165363
0.165146
0.164895
0.164619
0.164325
0.164021
0.163711
0.163399
0.163086
0.162774
0.16246
0.162143
0.161824
0.161503
0.161182
0.160868
0.160567
0.160291
0.160051
0.159857
0.159721
0.159645
0.159628
0.159669
0.159769
0.159929
0.160143
0.160399
0.160685
0.160992
0.161309
0.161629
0.161949
0.162266
0.16258
0.162892
0.163202
0.163513
0.163824
0.164131
0.164432
0.164721
0.16499
0.165231
0.165436
0.165597
0.165706
0.165758
0.165997
0.16592
0.16578
0.165583
0.16534
0.16506
0.164753
0.164429
0.164096
0.163759
0.163424
0.163093
0.162766
0.162442
0.162119
0.161796
0.161473
0.161151
0.160837
0.160535
0.160256
0.16001
0.159807
0.159658
0.159568
0.159541
0.159577
0.159674
0.159831
0.160041
0.160293
0.160576
0.16088
0.161197
0.16152
0.161844
0.162169
0.162494
0.16282
0.16315
0.163484
0.163821
0.164159
0.164492
0.164813
0.165115
0.165387
0.16562
0.165803
0.165927
0.165987
0.165977
0.1659
0.165759
0.165562
0.165318
0.165037
0.164728
0.164403
0.164068
0.16373
0.163394
0.163061
0.162732
0.162406
0.162082
0.161757
0.161433
0.161111
0.160797
0.160498
0.160222
0.15998
0.159784
0.159642
0.159561
0.159542
0.159586
0.159692
0.159857
0.160072
0.160329
0.160615
0.16092
0.161237
0.16156
0.161883
0.162206
0.162529
0.162854
0.163182
0.163514
0.16385
0.164186
0.164518
0.164838
0.165139
0.16541
0.165641
0.165823
0.165947
0.166006
0.166252
0.166166
0.166008
0.165787
0.165514
0.165201
0.16486
0.164502
0.164135
0.163768
0.163406
0.163052
0.162707
0.162369
0.162038
0.161711
0.161387
0.161067
0.160756
0.160458
0.160183
0.15994
0.159739
0.159589
0.159498
0.15947
0.159507
0.159606
0.159763
0.159971
0.16022
0.160499
0.1608
0.161113
0.161435
0.161761
0.162091
0.162425
0.162766
0.163116
0.163473
0.163838
0.164207
0.164574
0.16493
0.165266
0.165571
0.165832
0.166038
0.166178
0.166245
0.166234
0.166147
0.165988
0.165767
0.165493
0.165178
0.164836
0.164476
0.164108
0.16374
0.163376
0.163021
0.162674
0.162335
0.162002
0.161673
0.161348
0.161028
0.160717
0.160422
0.16015
0.159911
0.159716
0.159574
0.159491
0.159471
0.159517
0.159624
0.159788
0.160002
0.160255
0.160537
0.160838
0.161152
0.161473
0.161798
0.162127
0.16246
0.162799
0.163147
0.163503
0.163867
0.164234
0.164599
0.164954
0.165289
0.165592
0.165852
0.166057
0.166196
0.166263
0.16652
0.166423
0.166246
0.166
0.165697
0.16535
0.164973
0.164579
0.164178
0.16378
0.163389
0.163011
0.162646
0.162294
0.161954
0.161622
0.161297
0.16098
0.160674
0.160383
0.160115
0.159878
0.159681
0.159535
0.159445
0.159417
0.159453
0.159552
0.159706
0.159909
0.160151
0.160424
0.160718
0.161028
0.161347
0.161675
0.16201
0.162355
0.162711
0.163081
0.163464
0.163858
0.164259
0.164661
0.165053
0.165424
0.165763
0.166053
0.166283
0.16644
0.166515
0.166504
0.166406
0.166228
0.165981
0.165676
0.165327
0.164949
0.164553
0.164151
0.163751
0.16336
0.16298
0.162614
0.162261
0.161919
0.161586
0.161261
0.160943
0.160637
0.160348
0.160083
0.15985
0.159659
0.159519
0.159438
0.159418
0.159463
0.159569
0.15973
0.159938
0.160184
0.16046
0.160755
0.161065
0.161384
0.161711
0.162045
0.162388
0.162743
0.163112
0.163493
0.163886
0.164286
0.164686
0.165076
0.165446
0.165783
0.166072
0.166301
0.166457
0.166532
0.166803
0.166695
0.1665
0.166228
0.165894
0.165514
0.165102
0.164672
0.164238
0.163807
0.163388
0.162985
0.162599
0.162232
0.161881
0.161544
0.161219
0.160905
0.160604
0.160321
0.160061
0.159832
0.159642
0.159501
0.159414
0.159387
0.159422
0.159517
0.159667
0.159863
0.160097
0.160361
0.160648
0.160953
0.16127
0.1616
0.161941
0.162297
0.16267
0.163062
0.163471
0.163895
0.164329
0.164765
0.165192
0.165599
0.16597
0.16629
0.166544
0.166718
0.166801
0.166788
0.166679
0.166483
0.16621
0.165875
0.165493
0.165079
0.164648
0.164212
0.16378
0.163359
0.162955
0.162568
0.1622
0.161848
0.16151
0.161184
0.160869
0.160569
0.160288
0.160031
0.159806
0.159622
0.159486
0.159407
0.159388
0.159431
0.159534
0.159689
0.15989
0.160128
0.160395
0.160683
0.160988
0.161305
0.161634
0.161974
0.162329
0.162701
0.163091
0.163499
0.163922
0.164355
0.164789
0.165215
0.16562
0.165989
0.166308
0.16656
0.166733
0.166816
0.167103
0.166985
0.166772
0.166476
0.166114
0.165703
0.165258
0.164795
0.164328
0.163866
0.163419
0.16299
0.162584
0.162201
0.161839
0.161495
0.161168
0.160856
0.160561
0.160285
0.160034
0.159814
0.159633
0.159497
0.159414
0.159388
0.159422
0.159514
0.159657
0.159845
0.16007
0.160326
0.160606
0.160905
0.161222
0.161554
0.161903
0.162271
0.162661
0.163074
0.16351
0.163963
0.164429
0.164897
0.165358
0.165798
0.166199
0.166546
0.166823
0.167012
0.167104
0.167089
0.166971
0.166756
0.16646
0.166096
0.165683
0.165236
0.164772
0.164303
0.16384
0.163391
0.162961
0.162553
0.16217
0.161807
0.161463
0.161135
0.160823
0.160528
0.160254
0.160006
0.15979
0.159614
0.159484
0.159408
0.159389
0.159431
0.159529
0.159678
0.15987
0.160099
0.160357
0.160638
0.160938
0.161255
0.161586
0.161934
0.162302
0.162691
0.163104
0.163538
0.16399
0.164454
0.164921
0.16538
0.165817
0.166217
0.166563
0.166838
0.167027
0.167118
0.167422
0.167295
0.167067
0.166751
0.166365
0.165926
0.165453
0.164961
0.164465
0.163975
0.163501
0.163049
0.162622
0.162223
0.161849
0.161498
0.161167
0.160856
0.160565
0.160296
0.160054
0.159843
0.15967
0.15954
0.159461
0.159437
0.159469
0.159557
0.159693
0.159873
0.160089
0.160337
0.160611
0.160907
0.161223
0.161559
0.161917
0.162298
0.162705
0.16314
0.1636
0.16408
0.164574
0.165072
0.165562
0.166029
0.166457
0.166828
0.167123
0.167327
0.167425
0.16741
0.167282
0.167053
0.166735
0.166347
0.165907
0.165432
0.164939
0.164441
0.163949
0.163474
0.16302
0.162592
0.162193
0.161818
0.161467
0.161136
0.160825
0.160535
0.160268
0.160028
0.159821
0.159652
0.159528
0.159455
0.159438
0.159477
0.15957
0.159712
0.159896
0.160116
0.160366
0.160641
0.160938
0.161254
0.16159
0.161947
0.162328
0.162734
0.163168
0.163627
0.164106
0.164598
0.165095
0.165583
0.166048
0.166474
0.166843
0.167137
0.16734
0.167438
0.167761
0.167627
0.167387
0.167056
0.166652
0.166193
0.165699
0.165185
0.164666
0.164154
0.163657
0.163184
0.162739
0.162324
0.161939
0.161579
0.161244
0.160932
0.160644
0.160381
0.160145
0.159942
0.159777
0.159653
0.159578
0.159555
0.159586
0.159669
0.1598
0.159972
0.160181
0.160422
0.160691
0.160985
0.161303
0.161644
0.162011
0.162405
0.162828
0.163282
0.163763
0.164266
0.164782
0.165303
0.165815
0.166304
0.166751
0.167139
0.167449
0.167663
0.167767
0.16775
0.167616
0.167375
0.167042
0.166636
0.166176
0.165679
0.165164
0.164643
0.164129
0.163631
0.163157
0.162711
0.162296
0.16191
0.16155
0.161215
0.160904
0.160616
0.160355
0.160122
0.159922
0.15976
0.159642
0.159572
0.159556
0.159593
0.159682
0.159817
0.159994
0.160206
0.160449
0.160719
0.161014
0.161332
0.161674
0.16204
0.162433
0.162856
0.163309
0.163789
0.16429
0.164805
0.165324
0.165834
0.166321
0.166766
0.167153
0.167461
0.167674
0.167778
0.168121
0.167983
0.167736
0.167397
0.166983
0.166514
0.166008
0.165482
0.16495
0.164423
0.163912
0.163424
0.162965
0.162538
0.162142
0.161775
0.161435
0.161121
0.160834
0.160575
0.160345
0.160148
0.159989
0.159871
0.159799
0.159776
0.159807
0.159886
0.160012
0.160178
0.160381
0.160617
0.160882
0.161176
0.161496
0.161843
0.162218
0.162623
0.163059
0.163527
0.164023
0.16454
0.165071
0.165605
0.166129
0.166629
0.167087
0.167484
0.167802
0.168022
0.168129
0.168112
0.167973
0.167725
0.167384
0.166969
0.166498
0.16599
0.165462
0.164928
0.1644
0.163887
0.163398
0.162938
0.162511
0.162114
0.161747
0.161407
0.161094
0.160808
0.16055
0.160323
0.160129
0.159974
0.15986
0.159794
0.159777
0.159813
0.159898
0.160028
0.160198
0.160403
0.160642
0.160909
0.161203
0.161524
0.161871
0.162246
0.16265
0.163086
0.163553
0.164048
0.164564
0.165093
0.165625
0.166147
0.166644
0.1671
0.167496
0.167812
0.168031
0.168138
0.168501
0.168363
0.168116
0.167777
0.167365
0.166898
0.166394
0.165868
0.165335
0.164807
0.164292
0.163799
0.163334
0.1629
0.162498
0.162125
0.161782
0.161467
0.161181
0.160924
0.160699
0.160508
0.160353
0.16024
0.16017
0.160149
0.160179
0.160255
0.160376
0.160537
0.160736
0.160967
0.16123
0.161523
0.161845
0.162196
0.162577
0.162988
0.163431
0.163905
0.164406
0.164926
0.165459
0.165993
0.166516
0.167014
0.16747
0.167867
0.168184
0.168404
0.168511
0.168494
0.168355
0.168108
0.167767
0.167353
0.166884
0.166378
0.16585
0.165315
0.164785
0.164269
0.163775
0.163308
0.162875
0.162472
0.162099
0.161756
0.161442
0.161157
0.160902
0.160679
0.16049
0.16034
0.16023
0.160166
0.16015
0.160184
0.160266
0.160391
0.160556
0.160756
0.16099
0.161255
0.161549
0.161871
0.162223
0.162603
0.163014
0.163456
0.16393
0.164429
0.164948
0.165479
0.166011
0.166532
0.167028
0.167482
0.167877
0.168192
0.168412
0.168518
0.168903
0.168769
0.16853
0.168202
0.167805
0.167354
0.166867
0.166359
0.165842
0.165328
0.164825
0.164341
0.163881
0.163451
0.16305
0.162678
0.162336
0.162023
0.16174
0.161488
0.161267
0.161081
0.160932
0.160822
0.160756
0.160736
0.160764
0.160838
0.160955
0.161111
0.161304
0.161531
0.161791
0.162081
0.162401
0.162751
0.16313
0.16354
0.163979
0.164446
0.164938
0.165446
0.165964
0.166481
0.166987
0.167468
0.167908
0.16829
0.168597
0.16881
0.168914
0.168898
0.168763
0.168523
0.168194
0.167795
0.167342
0.166853
0.166343
0.165824
0.165308
0.164804
0.164319
0.163858
0.163427
0.163026
0.162654
0.162312
0.162
0.161718
0.161467
0.161249
0.161066
0.16092
0.160814
0.160752
0.160736
0.160769
0.160848
0.160968
0.161128
0.161323
0.161553
0.161813
0.162105
0.162425
0.162775
0.163155
0.163564
0.164002
0.164469
0.164959
0.165466
0.165981
0.166497
0.167001
0.167479
0.167917
0.168298
0.168603
0.168816
0.168919
0.169324
0.169199
0.168978
0.168674
0.168306
0.167889
0.167439
0.166968
0.166487
0.166008
0.165536
0.165079
0.164643
0.16423
0.163844
0.163484
0.163153
0.16285
0.162576
0.162332
0.16212
0.161941
0.161798
0.161694
0.161631
0.161611
0.161638
0.161709
0.161821
0.161971
0.162156
0.162375
0.162626
0.162906
0.163217
0.163556
0.163923
0.164317
0.164737
0.16518
0.165643
0.166119
0.166602
0.167083
0.167551
0.167996
0.168404
0.168758
0.169042
0.16924
0.169337
0.169322
0.169196
0.168973
0.168669
0.168299
0.16788
0.167428
0.166955
0.166472
0.165991
0.165518
0.16506
0.164622
0.164209
0.163822
0.163462
0.163131
0.162828
0.162555
0.162313
0.162103
0.161927
0.161787
0.161686
0.161627
0.161612
0.161643
0.161718
0.161833
0.161986
0.162173
0.162394
0.162646
0.162928
0.163239
0.163578
0.163945
0.164339
0.164758
0.1652
0.165662
0.166136
0.166617
0.167096
0.167562
0.168005
0.168411
0.168763
0.169046
0.169243
0.16934
0.169766
0.169656
0.169461
0.169195
0.168873
0.168509
0.168115
0.167704
0.167283
0.166862
0.166446
0.16604
0.165649
0.165275
0.164922
0.164591
0.164285
0.164005
0.163751
0.163525
0.163329
0.163164
0.163032
0.162936
0.162877
0.16286
0.162885
0.16295
0.163053
0.163192
0.163363
0.163566
0.163798
0.164059
0.164346
0.164658
0.164995
0.165355
0.165734
0.166131
0.166542
0.166962
0.167385
0.167806
0.168216
0.168604
0.16896
0.16927
0.169519
0.169693
0.169779
0.169765
0.169655
0.169459
0.169192
0.168869
0.168503
0.168108
0.167694
0.167272
0.166849
0.166431
0.166024
0.165631
0.165256
0.164903
0.164572
0.164266
0.163986
0.163733
0.163509
0.163314
0.163151
0.163022
0.162929
0.162874
0.16286
0.162889
0.162958
0.163064
0.163205
0.163379
0.163583
0.163817
0.164078
0.164365
0.164678
0.165014
0.165373
0.165752
0.166147
0.166557
0.166975
0.167397
0.167816
0.168223
0.16861
0.168964
0.169273
0.169521
0.169694
0.169779
0.170225
0.170136
0.169978
0.169764
0.169506
0.169214
0.1689
0.168571
0.168236
0.167899
0.167565
0.167237
0.166918
0.166609
0.166314
0.166036
0.165777
0.165538
0.165322
0.165129
0.164961
0.16482
0.164707
0.164624
0.164574
0.164558
0.16458
0.164637
0.164725
0.164844
0.164991
0.165165
0.165363
0.165585
0.165829
0.166093
0.166376
0.166676
0.166989
0.167312
0.167644
0.16798
0.168319
0.168655
0.168982
0.169293
0.169578
0.169827
0.170028
0.170169
0.170239
0.170227
0.170138
0.169979
0.169764
0.169505
0.169212
0.168896
0.168566
0.168229
0.16789
0.167554
0.167225
0.166905
0.166594
0.166299
0.16602
0.165761
0.165523
0.165308
0.165116
0.164949
0.164809
0.164699
0.164618
0.164571
0.164559
0.164584
0.164643
0.164734
0.164855
0.165004
0.165179
0.165378
0.1656
0.165844
0.166108
0.166391
0.16669
0.167002
0.167324
0.167654
0.167989
0.168326
0.168661
0.168986
0.169295
0.169579
0.169827
0.170027
0.170167
0.170236
0.170702
0.170639
0.170529
0.170381
0.170202
0.170003
0.169789
0.169567
0.169342
0.169115
0.168891
0.16867
0.168452
0.168237
0.16803
0.167833
0.167648
0.167477
0.167321
0.167181
0.167058
0.166955
0.166872
0.166811
0.166774
0.166763
0.166779
0.166821
0.166886
0.166973
0.167081
0.167207
0.167351
0.167511
0.167686
0.167875
0.168075
0.168286
0.168503
0.168723
0.168946
0.169173
0.1694
0.169626
0.169848
0.170059
0.170255
0.170427
0.170567
0.170666
0.170715
0.170707
0.170644
0.170533
0.170384
0.170205
0.170004
0.169789
0.169566
0.169339
0.169112
0.168886
0.168664
0.168445
0.168229
0.168021
0.167823
0.167638
0.167467
0.167311
0.167172
0.16705
0.166948
0.166867
0.166807
0.166772
0.166763
0.166782
0.166825
0.166892
0.166981
0.167089
0.167217
0.167361
0.167521
0.167696
0.167884
0.168084
0.168294
0.16851
0.168729
0.168951
0.169176
0.169402
0.169627
0.169848
0.170058
0.170253
0.170424
0.170563
0.170661
0.17071
0.171195
0.171164
0.17111
0.17104
0.170958
0.170868
0.170774
0.17068
0.170586
0.170495
0.170406
0.170318
0.170231
0.17014
0.170051
0.169966
0.169885
0.169809
0.16974
0.169677
0.169621
0.169574
0.169535
0.169506
0.169489
0.169483
0.169491
0.169511
0.169542
0.169583
0.169632
0.16969
0.169755
0.169826
0.169903
0.169986
0.170073
0.170163
0.170254
0.170343
0.170432
0.170522
0.170615
0.170709
0.170805
0.170898
0.170987
0.171067
0.171134
0.171182
0.171206
0.171202
0.171171
0.171117
0.171047
0.170964
0.170873
0.170779
0.170684
0.17059
0.170498
0.170408
0.170319
0.170231
0.170139
0.17005
0.169963
0.169882
0.169806
0.169737
0.169674
0.169618
0.169571
0.169533
0.169505
0.169488
0.169483
0.169492
0.169513
0.169544
0.169586
0.169635
0.169693
0.169758
0.169829
0.169906
0.169988
0.170075
0.170164
0.170254
0.170341
0.170429
0.170519
0.170611
0.170705
0.170799
0.170892
0.170981
0.17106
0.171127
0.171175
0.171199
0.171701
0.171707
0.171718
0.171737
0.171763
0.171798
0.17184
0.17189
0.171946
0.172007
0.172072
0.172138
0.172204
0.172265
0.172324
0.172379
0.172431
0.172479
0.172522
0.172561
0.172593
0.17262
0.17264
0.172654
0.172663
0.172665
0.172662
0.172653
0.172638
0.172616
0.172589
0.172555
0.172516
0.172472
0.172424
0.172372
0.172316
0.172257
0.172196
0.17213
0.172064
0.172
0.17194
0.171886
0.171838
0.171798
0.171765
0.171741
0.171725
0.171715
0.171711
0.171711
0.171717
0.171728
0.171747
0.171773
0.171808
0.17185
0.1719
0.171955
0.172017
0.172081
0.172148
0.172213
0.172273
0.172331
0.172386
0.172437
0.172485
0.172527
0.172565
0.172597
0.172622
0.172642
0.172656
0.172663
0.172665
0.172661
0.172651
0.172635
0.172613
0.172585
0.172551
0.172511
0.172467
0.172417
0.172364
0.172308
0.172249
0.172187
0.17212
0.172054
0.17199
0.17193
0.171875
0.171828
0.171787
0.171755
0.171731
0.171714
0.171705
0.171701
)
;

boundaryField
{
    top
    {
        type            fixedFluxPressure;
        gradient        nonuniform List<scalar> 
102
(
0.0157902
0.016986
0.0191071
0.0220076
0.0255354
0.0295452
0.0339069
0.0385094
0.0432626
0.0480977
0.0529692
0.0578617
0.062812
0.0679418
0.0730145
0.0779207
0.0825895
0.0869629
0.0909885
0.0946161
0.097797
0.100484
0.102633
0.104199
0.105144
0.105428
0.105022
0.103961
0.102282
0.100028
0.0972399
0.0939636
0.0902464
0.0861376
0.0816878
0.0769513
0.0719889
0.0668796
0.0617563
0.0568024
0.0518947
0.0470102
0.0421725
0.0374333
0.0328675
0.0285713
0.0246615
0.0212737
0.0185565
0.0166623
0.0157331
0.0158811
0.0170813
0.0192104
0.0221222
0.0256639
0.0296896
0.0340684
0.0386889
0.0434606
0.0483145
0.0532059
0.0581216
0.0631049
0.0682528
0.0733357
0.0782456
0.0829114
0.0872752
0.091284
0.0948876
0.0980375
0.100687
0.102791
0.104307
0.105196
0.105419
0.104954
0.103838
0.102111
0.0998138
0.0969894
0.0936838
0.0899445
0.0858206
0.0813629
0.0766253
0.0716692
0.0665753
0.0614851
0.0565532
0.051664
0.0467974
0.0419775
0.0372562
0.0327081
0.0284288
0.0245347
0.0211604
0.0184541
0.0165676
0.0156424
)
;
        value           nonuniform List<scalar> 
102
(
0.171964
0.17199
0.172037
0.172104
0.172189
0.17229
0.172405
0.172531
0.172667
0.172808
0.172955
0.173103
0.173251
0.173398
0.173541
0.173678
0.173808
0.173928
0.174039
0.174137
0.174223
0.174294
0.174351
0.174391
0.174415
0.174422
0.174412
0.174385
0.174342
0.174283
0.174209
0.174121
0.174021
0.173908
0.173785
0.173654
0.173516
0.173372
0.173225
0.173076
0.172929
0.172783
0.172643
0.172509
0.172386
0.172274
0.172176
0.172096
0.172034
0.171993
0.171973
0.171976
0.172002
0.172049
0.172116
0.172201
0.172303
0.172418
0.172544
0.17268
0.172822
0.172968
0.173116
0.173265
0.173411
0.173553
0.17369
0.173819
0.173939
0.174049
0.174146
0.174231
0.174301
0.174355
0.174394
0.174416
0.174422
0.17441
0.174382
0.174337
0.174277
0.174201
0.174112
0.17401