/*--------------------------------*- C++ -*----------------------------------*\
| =========                 |                                                 |
| \\      /  F ield         | OpenFOAM: The Open Source CFD Toolbox           |
|  \\    /   O peration     | Version:  2.3.0                                 |
|   \\  /    A nd           | Web:      www.OpenFOAM.org                      |
|    \\/     M anipulation  |                                                 |
\*---------------------------------------------------------------------------*/
FoamFile
{
    version     2.0;
    format      ascii;
    class       volScalarField;
    location    "17000";
    object      p_rgh;
}
// * * * * * * * * * * * * * * * * * * * * * * * * * * * * * * * * * * * * * //

dimensions      [0 2 -2 0 0 0 0];

internalField   nonuniform List<scalar> 
765
(
-1753.38
-1762.35
-1770.9
-1779.84
-1790.26
-1803.36
-1819.83
-1838.61
-1857.78
-1873.51
-1879.14
-1868.88
-1851.41
-1831.96
-1813.73
-1798.33
-1786.23
-1776.42
-1767.71
-1759.08
-1749.82
-1739.63
-1728.4
-1715.95
-1702.05
-1686.34
-1668.2
-1646.68
-1620.2
-1586.48
-1541.9
-1482.29
-1412.05
-1331.86
-1238.05
-1174.81
-1190.97
-1273.4
-1364.19
-1439.05
-1506.87
-1560.31
-1600.19
-1630.81
-1655.18
-1675.27
-1692.41
-1707.4
-1720.72
-1732.7
-1743.54
-1722.5
-1732.27
-1741.53
-1750.93
-1761.39
-1773.99
-1789.26
-1807.79
-1828.89
-1849.76
-1859.39
-1843.06
-1821.6
-1801.18
-1783.8
-1769.16
-1757.35
-1747.35
-1738.07
-1728.68
-1718.61
-1707.26
-1694.67
-1680.85
-1665.66
-1648.87
-1630.03
-1608.44
-1582.92
-1552.2
-1515.07
-1473.1
-1428.79
-1395.01
-1395.08
-1392.33
-1393.73
-1392.98
-1404.3
-1446.14
-1489.37
-1529.88
-1564.46
-1593.01
-1616.87
-1637.31
-1655.32
-1671.48
-1686.14
-1699.5
-1711.65
-1679.1
-1689.82
-1700.13
-1710.42
-1721.3
-1733.75
-1749.31
-1771.42
-1800.98
-1835.03
-1852.32
-1823.56
-1790.07
-1762.82
-1742.98
-1728.94
-1717.16
-1706.55
-1696.27
-1685.82
-1674.86
-1663.26
-1650.41
-1636.35
-1621.19
-1604.94
-1587.65
-1569.24
-1549.53
-1528.54
-1498.66
-1463.71
-1424.29
-1370.85
-1347.91
-1338.85
-1341.38
-1353.84
-1389.26
-1441.15
-1476.22
-1511.78
-1536.77
-1557.12
-1576.29
-1594.24
-1611.14
-1626.98
-1641.74
-1655.39
-1667.76
-1650.56
-1661.55
-1672.31
-1682.82
-1693.14
-1704.04
-1718.82
-1742.85
-1780.2
-1828.05
-1853.08
-1811.66
-1765.77
-1733.03
-1712.58
-1699.92
-1689.4
-1679.03
-1668.42
-1657.55
-1646.48
-1635.24
-1623.86
-1612.25
-1600.42
-1588.43
-1575.87
-1561.88
-1545.17
-1523.98
-1486.44
-1432.29
-1378.28
-1337.3
-1304.5
-1285.08
-1290.14
-1315.95
-1352.17
-1394.68
-1454.53
-1503.78
-1532.78
-1551.89
-1567.37
-1580.66
-1592.91
-1604.83
-1616.58
-1628.07
-1639.39
-1649.37
-1659.09
-1668.8
-1677.91
-1685.94
-1693.63
-1705.37
-1728.41
-1771.13
-1830.54
-1861.6
-1810.18
-1754.05
-1718.51
-1700.39
-1690.76
-1683.26
-1674.85
-1665.46
-1655.68
-1646.05
-1636.89
-1628.31
-1620.26
-1612.45
-1604.24
-1594.44
-1581.26
-1562.22
-1534.96
-1492.01
-1427.8
-1345.59
-1288.02
-1247.24
-1223.86
-1229.83
-1261.11
-1308.28
-1372.89
-1454.93
-1511.4
-1546.39
-1570.22
-1586.67
-1598.28
-1607.28
-1615.21
-1623.04
-1631.25
-1640.02
-1669.28
-1677.21
-1684.89
-1691.26
-1695.55
-1699.11
-1705.86
-1726.6
-1773.01
-1840.43
-1874.87
-1817.63
-1754.04
-1717.01
-1702.54
-1697.85
-1694.39
-1689.38
-1682.45
-1674.59
-1666.79
-1659.68
-1653.52
-1648.17
-1643.07
-1637.08
-1628.37
-1614.34
-1591.62
-1556.9
-1505.29
-1431.63
-1334.58
-1258.29
-1200.21
-1168.02
-1176.06
-1219.37
-1286.07
-1370.14
-1461.17
-1527.27
-1571.31
-1601.16
-1620.16
-1631.82
-1639.23
-1644.7
-1649.78
-1655.37
-1661.87
-1699.77
-1705.74
-1710.68
-1713.41
-1713.46
-1712.8
-1716.79
-1737.44
-1784.95
-1853.14
-1888.29
-1830.48
-1765.85
-1727.81
-1714.18
-1713.31
-1713.83
-1712.92
-1709.36
-1703.96
-1697.92
-1692.2
-1687.3
-1683.23
-1679.37
-1674.29
-1665.62
-1649.96
-1623.19
-1581.21
-1519.46
-1435.59
-1331.35
-1234.06
-1153.45
-1109.91
-1120.63
-1180.24
-1270.38
-1370.57
-1468.42
-1544.86
-1598.45
-1634.31
-1656.43
-1669.04
-1676.03
-1680.43
-1684.25
-1688.59
-1693.82
-1732.74
-1736.31
-1738.13
-1737.87
-1736.52
-1734.92
-1739.52
-1759.37
-1802.8
-1865
-1899.06
-1844.61
-1785.77
-1750.52
-1736.83
-1735.22
-1737.06
-1738.31
-1737.93
-1735.48
-1731.54
-1726.96
-1722.43
-1718.23
-1713.92
-1708.06
-1697.88
-1679.38
-1647.87
-1598.8
-1526.77
-1433.08
-1327.92
-1210.34
-1105.15
-1048.12
-1062.1
-1141.13
-1255.93
-1366.62
-1469.93
-1556.42
-1618.95
-1660.81
-1686.91
-1701.82
-1710.02
-1715.09
-1719.27
-1723.61
-1728.25
-1762.38
-1764.57
-1765.47
-1765.2
-1763.98
-1763.94
-1769.53
-1787.21
-1823.37
-1875.23
-1906.32
-1858.66
-1809.7
-1779.86
-1766.91
-1763.79
-1764.62
-1765.6
-1765.53
-1764.26
-1761.67
-1757.97
-1753.45
-1748.19
-1741.75
-1732.75
-1718.51
-1695.08
-1657.94
-1602.47
-1521.86
-1419.88
-1315.54
-1178.66
-1049.91
-978.971
-996.561
-1095.25
-1233.77
-1353.39
-1460.61
-1555.03
-1625.02
-1672.81
-1704.31
-1723.87
-1735.84
-1743.72
-1749.67
-1754.69
-1758.99
-1785.3
-1788.87
-1791.21
-1792.49
-1793.38
-1795.4
-1801.44
-1815.94
-1843.55
-1883.18
-1909.62
-1871.18
-1833.76
-1810.53
-1799.25
-1794.91
-1793.5
-1792.6
-1791.03
-1788.28
-1784.31
-1779.15
-1772.78
-1764.87
-1754.67
-1740.6
-1720.03
-1689.37
-1644.91
-1582.54
-1494.91
-1388.43
-1284.56
-1128.99
-980.584
-898.219
-918.839
-1032.12
-1188.1
-1318.49
-1429.73
-1529.81
-1607.12
-1661.99
-1700.96
-1727.54
-1745.45
-1757.94
-1767.22
-1774.57
-1780.53
-1787.02
-1795.35
-1802.48
-1808.53
-1813.83
-1819.22
-1826.48
-1838.47
-1858.42
-1886.39
-1907.05
-1878.8
-1852.21
-1834.83
-1824.61
-1818.15
-1812.89
-1807.39
-1800.99
-1793.45
-1784.69
-1774.68
-1763.37
-1749.88
-1733.35
-1711.99
-1683.29
-1644.23
-1592.29
-1523.98
-1431.32
-1315.84
-1209.13
-1047.43
-891.106
-802.691
-825.205
-943.475
-1108.73
-1251.59
-1359.8
-1466.88
-1549.96
-1611.36
-1658.39
-1693.4
-1719.19
-1738.62
-1753.93
-1766.59
-1777.44
-1732.8
-1750.48
-1766.73
-1781.67
-1795.4
-1808.16
-1820.65
-1834.29
-1850.95
-1871.08
-1886.2
-1866.59
-1846.82
-1831.05
-1817.83
-1805.26
-1792.16
-1777.99
-1762.58
-1745.83
-1727.62
-1707.84
-1686.63
-1664.44
-1639.26
-1609.42
-1572.74
-1526.14
-1466.51
-1388.38
-1291.77
-1181.59
-1076.62
-922.938
-778.47
-692.035
-714.703
-827.304
-982.051
-1118.62
-1219.87
-1327.89
-1418.23
-1488.05
-1542.61
-1585.22
-1619.2
-1647.23
-1671.27
-1692.91
-1713.6
-1549.51
-1578.88
-1606.37
-1632.33
-1656.98
-1680.39
-1702.6
-1723.78
-1744.19
-1763.29
-1775
-1759.61
-1739.6
-1718.75
-1697.1
-1674.37
-1650.44
-1625.29
-1598.79
-1570.65
-1540.52
-1508.26
-1474.68
-1441.5
-1409.25
-1373.03
-1331.37
-1280.39
-1216.97
-1135.46
-1043.81
-966.384
-883.289
-765.542
-650.62
-576.586
-596.474
-690.262
-809.744
-916.495
-990.677
-1072.81
-1166.37
-1239.12
-1298.26
-1345.21
-1384.58
-1419.16
-1451.37
-1484.78
-1518
-1151.47
-1185.55
-1218.14
-1249.39
-1279.23
-1307.35
-1333.28
-1356.6
-1376.93
-1393.38
-1401.24
-1390.3
-1372.34
-1350.91
-1326.59
-1299.79
-1270.96
-1240.54
-1208.78
-1175.65
-1140.92
-1104.28
-1065.98
-1026.53
-985.843
-945.23
-901.434
-853.06
-803.865
-754.978
-707.054
-664.466
-608.408
-530.002
-450.701
-397.213
-411.858
-478.534
-559.591
-631.211
-677.81
-723.055
-771.944
-819.906
-869.571
-916.376
-958.598
-998.877
-1038.87
-1077.83
-1115.55
-427.271
-458.034
-489.505
-521.775
-554.933
-588.892
-623.167
-656.549
-686.617
-709.209
-717.229
-704.259
-678.682
-647.116
-613.135
-578.765
-544.938
-511.982
-479.904
-448.592
-417.98
-388.039
-358.338
-329.353
-304.224
-284.745
-272.513
-269.55
-279.465
-306.616
-352.681
-407.989
-457.521
-486.299
-495.955
-493.156
-494.819
-494.195
-477.632
-440.878
-386.298
-334.279
-294.544
-273.75
-269.053
-275.226
-290.252
-311.564
-338.107
-367.554
-397.193
)
;

boundaryField
{
    top
    {
        type            fixedValue;
        value           uniform 0;
    }
    bottom
    {
        type            fixedFluxPressure;
        gradient        uniform 0;
        value           nonuniform List<scalar> 
51
(
-1753.38
-1762.35
-1770.9
-1779.84
-1790.26
-1803.36
-1819.83
-1838.61
-1857.78
-1873.51
-1879.14
-1868.88
-1851.41
-1831.96
-1813.73
-1798.33
-1786.23
-1776.42
-1767.71
-1759.08
-1749.82
-1739.63
-1728.4
-1715.95
-1702.05
-1686.34
-1668.2
-1646.68
-1620.2
-1586.48
-1541.9
-1482.29
-1412.05
-1331.86
-1238.05
-1174.81
-1190.97
-1273.4
-1364.19
-1439.05
-1506.87
-1560.31
-1600.19
-1630.81
-1655.18
-1675.27
-1692.41
-1707.4
-1720.72
-1732.7
-1743.54
)
;
    }
    frontAndBack
    {
        type            empty;
    }
    left_cyc
    {
        type            cyclic;
    }
    right_cyc
    {
        type            cyclic;
    }
}


// ************************************************************************* //
