/*--------------------------------*- C++ -*----------------------------------*\
| =========                 |                                                 |
| \\      /  F ield         | OpenFOAM: The Open Source CFD Toolbox           |
|  \\    /   O peration     | Version:  2.3.0                                 |
|   \\  /    A nd           | Web:      www.OpenFOAM.org                      |
|    \\/     M anipulation  |                                                 |
\*---------------------------------------------------------------------------*/
FoamFile
{
    version     2.0;
    format      ascii;
    class       volScalarField;
    location    "17000";
    object      T;
}
// * * * * * * * * * * * * * * * * * * * * * * * * * * * * * * * * * * * * * //

dimensions      [0 0 0 1 0 0 0];

internalField   nonuniform List<scalar> 
765
(
40.0061
40.0648
40.016
39.9131
39.8354
39.8868
40.1501
40.4346
40.8187
41.3311
41.6181
41.1455
40.6609
40.3094
40.0237
39.8368
39.8421
39.9402
40.0335
40.052
39.9488
39.7596
39.5136
39.2108
38.8404
38.3832
37.8129
37.0976
36.2059
35.1135
33.8006
32.1837
30.7029
29.6017
28.8323
28.4982
28.5873
29.0745
29.9771
31.2018
32.8367
34.3242
35.5519
36.5665
37.388
38.0444
38.5684
38.9901
39.3334
39.6144
39.8407
33.038
33.2236
33.2962
33.303
33.3321
33.5088
33.9256
34.7473
36.1029
37.8952
38.8649
37.2765
35.5855
34.4236
33.7694
33.4028
33.2897
33.2807
33.2596
33.1521
32.9243
32.5281
32.0095
31.3935
30.6839
29.8717
28.9333
27.8222
26.4583
24.7245
22.6392
20.6795
19.0763
17.7521
16.7303
16.1831
16.3299
17.0773
18.2287
19.6481
21.3641
23.4721
25.4355
27.0121
28.268
29.3066
30.1939
30.9661
31.641
32.2232
32.7031
28.1385
28.4595
28.7076
28.9116
29.124
29.4356
30.0004
31.1843
33.172
35.7845
37.1721
34.8835
32.3949
30.6771
29.7199
29.2842
29.0214
28.8185
28.6023
28.3294
27.9781
27.545
26.9894
26.3253
25.5703
24.726
23.7957
22.7707
21.6278
20.3573
18.8962
17.2658
15.581
13.9965
12.7218
12.0236
12.2079
13.16
14.5851
16.2332
17.9161
19.4941
20.8722
22.0893
23.1807
24.1659
25.0632
25.8733
26.5955
27.2246
27.7357
26.0222
26.3974
26.7403
27.0528
27.3452
27.6705
28.2495
29.4671
31.6292
34.5661
36.1179
33.5524
30.7687
28.9369
27.9704
27.5312
27.2297
26.9321
26.6085
26.2534
25.8658
25.4459
24.9944
24.5091
23.994
23.4562
22.8742
22.2034
21.3751
20.2963
18.8677
17.0837
15.0892
13.115
11.4995
10.6212
10.8469
12.0509
13.8508
15.8749
17.816
19.4723
20.756
21.7249
22.4812
23.1097
23.6692
24.198
24.7028
25.1742
25.6143
26.0019
26.3382
26.6684
26.9682
27.2164
27.4506
27.894
28.9303
30.9964
33.936
35.4743
32.925
30.1573
28.4668
27.688
27.3535
27.1301
26.8638
26.5502
26.2151
25.8804
25.5582
25.2524
24.9607
24.6729
24.3659
23.9937
23.4827
22.7299
21.6091
20.0007
17.8933
15.4788
13.0536
11.0589
9.98624
10.255
11.7328
13.9515
16.4228
18.7515
20.6808
22.0914
23.0554
23.7011
24.1477
24.4871
24.7819
25.0684
25.3638
25.6749
26.9192
27.1956
27.4637
27.6825
27.8208
27.9346
28.1859
29.0201
30.9187
33.6853
35.0953
32.7466
30.1379
28.6273
28.0535
27.8889
27.7815
27.6149
27.3751
27.1004
26.8289
26.5841
26.3745
26.1951
26.0265
25.8306
25.5438
25.0721
24.2925
23.0652
21.2616
18.8406
16.011
13.1438
10.7776
9.51389
9.825
11.5709
14.1991
17.1102
19.814
22.0098
23.5838
24.6258
25.2734
25.6623
25.9051
26.0842
26.2527
26.4411
26.6632
28.0576
28.2724
28.4558
28.5677
28.5922
28.5987
28.7724
29.525
31.2059
33.5959
34.8195
32.799
30.5294
29.1752
28.6661
28.602
28.5933
28.541
28.4017
28.2039
27.9881
27.7862
27.6153
27.4755
27.3476
27.1874
26.9194
26.4341
25.596
24.2605
22.2928
19.6227
16.4422
13.1865
10.4845
9.04025
9.39298
11.3868
14.3807
17.6776
20.6934
23.0993
24.8156
25.9481
26.6378
27.0276
27.2446
27.3856
27.5141
27.6641
27.8473
29.0993
29.2442
29.3414
29.3809
29.3932
29.4059
29.6112
30.2759
31.6413
33.5504
34.5807
32.9233
31.1075
29.9839
29.5043
29.3912
29.3887
29.3753
29.3179
29.2034
29.0486
28.8791
28.7153
28.5654
28.4177
28.2313
27.9268
27.387
26.4736
25.0456
22.9615
20.1288
16.686
13.1209
10.1361
8.52118
8.91711
11.1329
14.4266
18.0284
21.2729
23.8162
25.6326
26.8493
27.6071
28.0451
28.2951
28.461
28.6071
28.7625
28.9309
29.9119
30.024
30.1059
30.1623
30.2008
30.2789
30.5146
31.0733
32.1114
33.5368
34.3702
33.0808
31.722
30.8459
30.4127
30.2453
30.1911
30.149
30.0856
29.9951
29.8738
29.7267
29.5606
29.3777
29.1669
28.8928
28.4849
27.8387
26.8322
25.3381
23.2015
20.2684
16.6375
12.872
9.69142
7.93033
8.36802
10.7566
14.2485
18.0555
21.4569
24.0707
25.9391
27.2326
28.0915
28.6377
28.9876
29.2338
29.433
29.6106
29.7718
30.4682
30.6176
30.7421
30.8479
30.9529
31.0948
31.3413
31.7911
32.5394
33.5389
34.1782
33.236
32.2769
31.6262
31.2527
31.0493
30.9254
30.823
30.7128
30.5803
30.4225
30.2385
30.0257
29.7757
29.4707
29.0733
28.5199
27.7241
26.5919
25.0201
22.8438
19.8551
16.1465
12.3331
9.08074
7.23203
7.69939
10.1751
13.7205
17.5672
21.0433
23.7109
25.6323
27.0244
28.0228
28.7208
29.2104
29.5701
29.8535
30.0899
30.2928
30.5044
30.7599
30.9937
31.2111
31.4222
31.6466
31.9206
32.2979
32.8322
33.5018
33.9619
33.3193
32.6662
32.1802
31.8402
31.5862
31.3684
31.1563
30.9338
30.693
30.4293
30.139
29.8178
29.4439
28.9985
28.4428
27.7197
26.7603
25.5005
23.8624
21.6619
18.6867
15.0933
11.4255
8.2562
6.4025
6.87916
9.32771
12.7479
16.4256
19.8367
22.526
24.4818
25.9636
27.107
27.9739
28.6307
29.1424
29.5596
29.9135
30.2237
29.4212
29.8612
30.2763
30.6723
31.0543
31.4289
31.8079
32.2111
32.6589
33.1355
33.4551
33.0261
32.5423
32.1048
31.7088
31.3309
30.9534
30.5662
30.1635
29.74
29.2896
28.8065
28.2883
27.7394
27.1206
26.3992
25.5299
24.4577
23.1323
21.4877
19.3427
16.5624
13.3475
10.054
7.15575
5.41193
5.86727
8.14093
11.2419
14.5406
17.6323
20.1754
22.0955
23.6048
24.8324
25.8254
26.6369
27.3185
27.9113
28.4454
28.9504
26.0979
26.7507
27.3743
27.9779
28.5676
29.1456
29.7096
30.2539
30.7663
31.2112
31.454
31.1205
30.6431
30.1144
29.5596
28.988
28.404
27.8083
27.1975
26.564
25.8984
25.1947
24.4579
23.7063
22.9557
22.1359
21.2313
20.2046
18.9942
17.516
15.6669
13.3883
10.7846
8.09977
5.70114
4.22234
4.6139
6.52169
9.07262
11.7532
14.253
16.3611
18.0529
19.419
20.5523
21.5278
22.3967
23.1883
23.9348
24.6829
25.4084
19.2049
19.9139
20.6005
21.2707
21.9275
22.5699
23.191
23.7768
24.3011
24.7129
24.8921
24.6293
24.1736
23.6235
23.0217
22.3902
21.7406
21.0776
20.4009
19.7062
18.9869
18.2398
17.4736
16.7056
15.9462
15.2309
14.5082
13.7313
12.8571
11.8176
10.5396
8.99896
7.25784
5.45743
3.82645
2.7977
3.07323
4.38742
6.11072
7.90266
9.57554
11.0126
12.1916
13.1603
13.992
14.7467
15.4575
16.183
16.9421
17.7086
18.4683
7.71399
8.10623
8.4946
8.88054
9.2634
9.6391
9.99911
10.3295
10.61
10.8119
10.8872
10.7709
10.5421
10.2429
9.90022
9.53273
9.1528
8.76753
8.37979
7.98936
7.59457
7.19594
6.80059
6.41617
6.04214
5.68089
5.34224
5.02232
4.69283
4.32554
3.89319
3.37863
2.78362
2.13843
1.5223
1.11552
1.22618
1.73735
2.3756
3.00522
3.56968
4.05031
4.45454
4.80355
5.12472
5.44547
5.7939
6.15821
6.534
6.9209
7.31725
)
;

boundaryField
{
    top
    {
        type            fixedValue;
        value           uniform 0;
    }
    bottom
    {
        type            fixedValue;
        value           uniform 43.8;
    }
    frontAndBack
    {
        type            empty;
    }
    left_cyc
    {
        type            cyclic;
    }
    right_cyc
    {
        type            cyclic;
    }
}


// ************************************************************************* //
