/*--------------------------------*- C++ -*----------------------------------*\
| =========                 |                                                 |
| \\      /  F ield         | OpenFOAM: The Open Source CFD Toolbox           |
|  \\    /   O peration     | Version:  2.3.0                                 |
|   \\  /    A nd           | Web:      www.OpenFOAM.org                      |
|    \\/     M anipulation  |                                                 |
\*---------------------------------------------------------------------------*/
FoamFile
{
    version     2.0;
    format      ascii;
    class       volScalarField;
    location    "17000";
    object      T;
}
// * * * * * * * * * * * * * * * * * * * * * * * * * * * * * * * * * * * * * //

dimensions      [0 0 0 1 0 0 0];

internalField   nonuniform List<scalar> 
765
(
31.4903
31.6144
31.8319
32.1309
32.5019
32.9354
33.4105
33.8461
34.2706
34.6791
35.0448
35.3211
35.4457
35.3645
35.1169
34.7672
34.3658
33.9442
33.5106
33.0405
32.5955
32.2093
31.8928
31.6552
31.5075
31.4642
31.5368
31.7094
31.9687
32.3041
32.7066
33.1624
33.6218
34.0533
34.4721
34.8643
35.1934
35.4045
35.4327
35.2629
34.9583
34.5778
34.1632
33.7344
33.2865
32.8204
32.402
32.0485
31.769
31.5737
31.4752
23.1579
23.4528
23.9667
24.6716
25.5464
26.574
27.7321
28.972
30.2052
31.3796
32.4152
33.1986
33.562
33.3234
32.6183
31.6303
30.4806
29.2607
28.0282
26.83
25.767
24.855
24.1089
23.5477
23.1975
23.0939
23.267
23.6758
24.2878
25.0786
26.0304
27.1269
28.344
29.5795
30.7874
31.9061
32.8346
33.4398
33.5232
33.0322
32.1717
31.0908
29.8974
28.6603
27.4296
26.3014
25.3109
24.4774
23.8183
23.3563
23.1217
17.2524
17.6498
18.3388
19.2771
20.4354
21.7968
23.3508
25.0797
26.9035
28.7028
30.3003
31.4992
32.0536
31.6888
30.6109
29.0872
27.3169
25.4871
23.729
22.1316
20.7248
19.5188
18.5274
17.7763
17.3047
17.1652
17.3986
17.9484
18.7659
19.8154
21.0744
22.5316
24.1774
25.9609
27.7888
29.5142
30.9427
31.8665
31.9944
31.2453
29.9251
28.2576
26.4388
24.6317
22.942
21.4352
20.1241
19.0194
18.1405
17.5201
17.2037
13.5331
14.0021
14.8087
15.8908
17.205
18.733
20.4787
22.4583
24.6089
26.7768
28.7351
30.2062
30.873
30.4358
29.1167
27.2426
25.0994
22.9281
20.8988
19.1044
17.5294
16.1663
15.0277
14.1512
13.5952
13.4308
13.7064
14.3536
15.304
16.504
17.9228
19.554
21.4081
23.486
25.668
27.766
29.5255
30.6505
30.8032
29.8968
28.2725
26.2364
24.0552
21.9371
20.018
18.3285
16.8543
15.5959
14.5781
13.8495
13.4759
11.337
11.8802
12.8058
14.0212
15.4573
17.0838
18.9124
20.9878
23.2554
25.5601
27.6591
29.234
29.9321
29.477
28.0678
26.0563
23.7726
21.4782
19.3462
17.4731
15.8061
14.3268
13.056
12.0545
11.4109
11.2214
11.5404
12.2881
13.3684
14.6984
16.2274
17.9468
19.8864
22.0686
24.3779
26.618
28.5068
29.703
29.861
28.9045
27.1624
24.9839
22.6705
20.4419
18.4326
16.6578
15.079
13.694
12.5435
11.7043
11.2714
10.0283
10.6639
11.7388
13.1199
14.6999
16.424
18.2981
20.3781
22.6195
24.8886
26.9513
28.4876
29.1537
28.7219
27.3514
25.3762
23.1287
20.8653
18.7413
16.8301
15.0774
13.4638
12.0295
10.8709
10.1179
9.89752
10.27
11.1436
12.387
13.8758
15.5275
17.3186
19.2843
21.4503
23.7258
25.9294
27.7812
28.9389
29.0878
28.1687
26.4646
24.3225
22.044
19.8372
17.8132
15.98
14.2905
12.753
11.4368
10.4587
9.95238
9.16321
9.90942
11.1653
12.7511
14.5137
16.3635
18.2854
20.3213
22.45
24.5719
26.4812
27.8858
28.4827
28.0976
26.8489
25.0251
22.9291
20.7903
18.7321
16.791
14.9289
13.1436
11.506
10.1563
9.27205
9.01486
9.45104
10.4765
11.9191
13.6068
15.4157
17.2955
19.265
21.3476
23.4891
25.5389
27.2439
28.2936
28.4256
27.5971
26.0335
24.0458
21.9087
19.8009
17.7976
15.8959
14.0643
12.3348
10.8149
9.66902
9.07505
8.47925
9.34604
10.7977
12.6076
14.5767
16.5785
18.5661
20.537
22.5091
24.4209
26.1102
27.3384
27.8576
27.5229
26.4333
24.8249
22.9458
20.9795
19.0099
17.0326
15.0359
13.0543
11.193
9.63632
8.60933
8.31138
8.81772
10.0077
11.6667
13.575
15.5664
17.5592
19.5296
21.4989
23.453
25.2817
26.7802
27.6948
27.8094
27.0882
25.7178
23.9522
22.0152
20.0436
18.0738
16.0807
14.0813
12.1367
10.3949
9.06734
8.37739
7.83277
8.81984
10.4547
12.4701
14.6305
16.7714
18.8065
20.7134
22.5319
24.2332
25.7025
26.7583
27.2048
26.9169
25.9816
24.588
22.9268
21.1306
19.2472
17.2481
15.1313
12.9672
10.9006
9.1517
7.98525
7.64309
8.22331
9.57126
11.4299
13.5413
15.7035
17.7931
19.7548
21.6135
23.3811
24.9876
26.2815
27.0659
27.1646
26.5454
25.3651
23.8223
22.0854
20.2473
18.3158
16.2498
14.0928
11.9493
10.0036
8.50393
7.71562
7.12455
8.2009
9.96107
12.1134
14.4053
16.6496
18.7269
20.5933
22.2942
23.8224
25.1042
26.011
26.3945
26.1471
25.3456
24.1362
22.656
20.993
19.1688
17.1464
14.937
12.6454
10.4414
8.56262
7.29513
6.91718
7.55568
9.01549
11.008
13.2564
15.5403
17.7086
19.6704
21.4489
23.0676
24.4873
25.6049
26.2766
26.3615
25.8305
24.8142
23.4601
21.8855
20.1476
18.2391
16.1096
13.8382
11.5595
9.47755
7.85841
6.99477
6.28678
7.3908
9.17788
11.3554
13.6759
15.9496
18.0386
19.8799
21.5048
22.9116
24.0547
24.8478
25.1823
24.9666
24.2678
23.1961
21.8449
20.2701
18.4823
16.4555
14.2179
11.8962
9.66632
7.76132
6.46524
6.07298
6.73329
8.22188
10.24
12.5155
14.8306
17.0242
18.9806
20.7091
22.2269
23.5116
24.4964
25.0809
25.1549
24.6924
23.8005
22.5844
21.1215
19.4464
17.5525
15.4039
13.1018
10.7954
8.68833
7.04121
6.15171
5.27554
6.31901
7.9951
10.0368
12.2266
14.3956
16.4119
18.201
19.7612
21.0808
22.1262
22.8381
23.1372
22.9446
22.3195
21.345
20.0857
18.5811
16.8467
14.8849
12.7436
10.5473
8.45418
6.66868
5.44675
5.0723
5.70067
7.10098
8.99195
11.131
13.3273
15.4334
17.3317
19.0045
20.4462
21.6355
22.526
23.0478
23.1138
22.7007
21.8972
20.7782
19.3969
17.7805
15.9376
13.8709
11.682
9.51066
7.53648
5.98982
5.14627
4.06144
4.93649
6.33269
8.03413
9.87443
11.7295
13.5035
15.1271
16.556
17.759
18.7013
19.3362
19.6024
19.4312
18.8752
17.9996
16.8545
15.4768
13.8976
12.1564
10.3144
8.46229
6.71567
5.22912
4.20664
3.89
4.41996
5.58934
7.16325
8.95129
10.8108
12.6345
14.3364
15.8647
17.1838
18.2623
19.06
19.5235
19.5822
19.2148
18.4965
17.4846
16.2222
14.7418
13.0756
11.2739
9.41291
7.59416
5.95079
4.66124
3.95189
2.62671
3.22017
4.15917
5.29958
6.53924
7.81247
9.08232
10.3089
11.4163
12.3597
13.1012
13.6008
13.8107
13.6759
13.2386
12.5496
11.6505
10.5791
9.37756
8.11235
6.83874
5.58742
4.41635
3.41792
2.72607
2.50968
2.87098
3.6603
4.71596
5.91538
7.17614
8.44793
9.70654
10.8787
11.9085
12.7563
13.3841
13.7486
13.7947
13.5055
12.9401
12.1439
11.1555
10.0127
8.76349
7.49325
6.22548
5.00393
3.90263
3.03403
2.55171
0.960838
1.17682
1.51252
1.9126
2.34229
2.78809
3.26302
3.76952
4.24561
4.66129
4.99321
5.21878
5.31386
5.25283
5.05519
4.74604
4.34817
3.88454
3.38302
2.89583
2.4462
2.01271
1.60346
1.24816
0.997331
0.917811
1.05023
1.33504
1.70868
2.12597
2.56252
3.01597
3.51731
4.0126
4.46135
4.83823
5.12064
5.28558
5.30645
5.17542
4.92055
4.56525
4.13191
3.64416
3.1341
2.6732
2.23298
1.80926
1.42136
1.10941
0.933226
)
;

boundaryField
{
    top
    {
        type            fixedValue;
        value           uniform 0;
    }
    bottom
    {
        type            fixedValue;
        value           uniform 36.5;
    }
    frontAndBack
    {
        type            empty;
    }
    left_cyc
    {
        type            cyclic;
    }
    right_cyc
    {
        type            cyclic;
    }
}


// ************************************************************************* //
