/*--------------------------------*- C++ -*----------------------------------*\
| =========                 |                                                 |
| \\      /  F ield         | OpenFOAM: The Open Source CFD Toolbox           |
|  \\    /   O peration     | Version:  2.3.0                                 |
|   \\  /    A nd           | Web:      www.OpenFOAM.org                      |
|    \\/     M anipulation  |                                                 |
\*---------------------------------------------------------------------------*/
FoamFile
{
    version     2.0;
    format      ascii;
    class       volVectorField;
    location    "17000";
    object      U;
}
// * * * * * * * * * * * * * * * * * * * * * * * * * * * * * * * * * * * * * //

dimensions      [0 1 -1 0 0 0 0];

internalField   nonuniform List<vector> 
3060
(
(6.07726e-06 0 -4.09158e-06)
(1.55687e-05 0 -3.95221e-06)
(2.48256e-05 0 -3.69478e-06)
(3.37144e-05 0 -3.32591e-06)
(4.21124e-05 0 -2.85635e-06)
(4.99111e-05 0 -2.30425e-06)
(5.70172e-05 0 -1.69805e-06)
(6.33544e-05 0 -1.07649e-06)
(6.88596e-05 0 -4.82995e-07)
(7.34752e-05 0 4.45939e-08)
(7.71328e-05 0 4.83325e-07)
(7.9735e-05 0 8.27735e-07)
(8.11404e-05 0 1.08542e-06)
(8.11561e-05 0 1.26927e-06)
(7.95679e-05 0 1.40584e-06)
(7.6183e-05 0 1.55724e-06)
(7.09391e-05 0 1.7811e-06)
(6.39728e-05 0 2.03761e-06)
(5.56336e-05 0 2.19946e-06)
(4.64884e-05 0 2.18342e-06)
(3.7167e-05 0 2.01314e-06)
(2.822e-05 0 1.7432e-06)
(2.0016e-05 0 1.44982e-06)
(1.26407e-05 0 1.20294e-06)
(5.93126e-06 0 1.04605e-06)
(-4.2651e-07 0 9.9737e-07)
(-6.80918e-06 0 1.06103e-06)
(-1.35892e-05 0 1.23153e-06)
(-2.10661e-05 0 1.48783e-06)
(-2.93741e-05 0 1.78244e-06)
(-3.83887e-05 0 2.04308e-06)
(-4.77073e-05 0 2.19453e-06)
(-5.67613e-05 0 2.18568e-06)
(-6.49185e-05 0 2.00331e-06)
(-7.16338e-05 0 1.7446e-06)
(-7.6588e-05 0 1.53081e-06)
(-7.96699e-05 0 1.38421e-06)
(-8.09684e-05 0 1.23967e-06)
(-8.06827e-05 0 1.04108e-06)
(-7.90299e-05 0 7.65422e-07)
(-7.61957e-05 0 4.00395e-07)
(-7.23159e-05 0 -5.93389e-08)
(-6.74839e-05 0 -6.04796e-07)
(-6.17676e-05 0 -1.2093e-06)
(-5.52273e-05 0 -1.83266e-06)
(-4.79306e-05 0 -2.43128e-06)
(-3.99596e-05 0 -2.96794e-06)
(-3.14125e-05 0 -3.4162e-06)
(-2.2403e-05 0 -3.7596e-06)
(-1.30577e-05 0 -3.98843e-06)
(-3.51396e-06 0 -4.09646e-06)
(6.08369e-06 0 -4.07956e-06)
(1.55881e-05 0 -3.93865e-06)
(2.48564e-05 0 -3.6784e-06)
(3.37539e-05 0 -3.30571e-06)
(4.21571e-05 0 -2.83176e-06)
(4.99564e-05 0 -2.27542e-06)
(5.70576e-05 0 -1.66611e-06)
(6.33831e-05 0 -1.04348e-06)
(6.88683e-05 0 -4.5129e-07)
(7.34523e-05 0 7.30347e-08)
(7.70624e-05 0 5.07518e-07)
(7.95949e-05 0 8.47623e-07)
(8.09015e-05 0 1.10149e-06)
(8.07829e-05 0 1.28232e-06)
(7.90246e-05 0 1.41975e-06)
(7.5441e-05 0 1.58018e-06)
(6.99951e-05 0 1.8136e-06)
(6.28515e-05 0 2.06543e-06)
(5.43928e-05 0 2.20639e-06)
(4.52057e-05 0 2.16788e-06)
(3.59182e-05 0 1.98078e-06)
(2.70646e-05 0 1.70346e-06)
(1.89793e-05 0 1.41281e-06)
(1.17112e-05 0 1.17615e-06)
(5.07135e-06 0 1.03313e-06)
(-1.26705e-06 0 9.99431e-07)
(-7.68346e-06 0 1.07791e-06)
(-1.45451e-05 0 1.26161e-06)
(-2.21356e-05 0 1.52649e-06)
(-3.05593e-05 0 1.82118e-06)
(-3.96537e-05 0 2.07171e-06)
(-4.89875e-05 0 2.20474e-06)
(-5.79784e-05 0 2.17217e-06)
(-6.59975e-05 0 1.97233e-06)
(-7.25259e-05 0 1.71374e-06)
(-7.72761e-05 0 1.51083e-06)
(-8.01644e-05 0 1.37138e-06)
(-8.13021e-05 0 1.22613e-06)
(-8.08915e-05 0 1.02398e-06)
(-7.9148e-05 0 7.44277e-07)
(-7.62504e-05 0 3.74836e-07)
(-7.23275e-05 0 -8.90358e-08)
(-6.74669e-05 0 -6.37359e-07)
(-6.17325e-05 0 -1.24257e-06)
(-5.51821e-05 0 -1.86425e-06)
(-4.78817e-05 0 -2.45935e-06)
(-3.99122e-05 0 -2.9916e-06)
(-3.1371e-05 0 -3.43552e-06)
(-2.23708e-05 0 -3.77527e-06)
(-1.30373e-05 0 -4.00154e-06)
(-3.50675e-06 0 -4.10832e-06)
(9.16334e-06 0 -1.66266e-05)
(2.35481e-05 0 -1.64155e-05)
(3.7768e-05 0 -1.60281e-05)
(5.17296e-05 0 -1.54804e-05)
(6.53485e-05 0 -1.47904e-05)
(7.8546e-05 0 -1.39733e-05)
(9.1239e-05 0 -1.30346e-05)
(0.000103324 0 -1.19652e-05)
(0.000114661 0 -1.07388e-05)
(0.000125061 0 -9.30997e-06)
(0.000134279 0 -7.61405e-06)
(0.000142018 0 -5.56544e-06)
(0.000147926 0 -3.06177e-06)
(0.000151588 0 -7.62054e-09)
(0.000152514 0 3.58778e-06)
(0.000150161 0 7.44066e-06)
(0.000144089 0 1.10229e-05)
(0.000134152 0 1.39091e-05)
(0.000120546 0 1.58782e-05)
(0.000104041 0 1.68613e-05)
(8.58152e-05 0 1.68613e-05)
(6.7067e-05 0 1.59998e-05)
(4.87685e-05 0 1.46851e-05)
(3.13976e-05 0 1.34015e-05)
(1.4919e-05 0 1.25176e-05)
(-1.05221e-06 0 1.2232e-05)
(-1.70578e-05 0 1.26001e-05)
(-3.36285e-05 0 1.35489e-05)
(-5.11141e-05 0 1.48575e-05)
(-6.94867e-05 0 1.6135e-05)
(-8.81951e-05 0 1.68937e-05)
(-0.000106215 0 1.67524e-05)
(-0.000122334 0 1.56249e-05)
(-0.000135403 0 1.35106e-05)
(-0.000144732 0 1.04953e-05)
(-0.000150189 0 6.82552e-06)
(-0.000151961 0 2.96073e-06)
(-0.000150523 0 -5.82914e-07)
(-0.000146417 0 -3.56706e-06)
(-0.000140123 0 -6.00867e-06)
(-0.000132049 0 -8.00769e-06)
(-0.000122543 0 -9.66491e-06)
(-0.000111895 0 -1.10629e-05)
(-0.000100344 0 -1.22636e-05)
(-8.80709e-05 0 -1.33092e-05)
(-7.5212e-05 0 -1.42236e-05)
(-6.1867e-05 0 -1.5013e-05)
(-4.81191e-05 0 -1.56701e-05)
(-3.40491e-05 0 -1.61789e-05)
(-1.97443e-05 0 -1.65218e-05)
(-5.30093e-06 0 -1.66843e-05)
(9.1799e-06 0 -1.6659e-05)
(2.3596e-05 0 -1.64471e-05)
(3.7847e-05 0 -1.60581e-05)
(5.18389e-05 0 -1.55078e-05)
(6.54867e-05 0 -1.48139e-05)
(7.871e-05 0 -1.39908e-05)
(9.14228e-05 0 -1.30425e-05)
(0.000103517 0 -1.19583e-05)
(0.000114847 0 -1.07096e-05)
(0.000125214 0 -9.24892e-06)
(0.000134367 0 -7.50887e-06)
(0.000141999 0 -5.4015e-06)
(0.000147749 0 -2.82334e-06)
(0.00015119 0 3.16168e-07)
(0.000151822 0 3.98369e-06)
(0.000149097 0 7.85268e-06)
(0.000142608 0 1.13828e-05)
(0.000132244 0 1.41729e-05)
(0.000118263 0 1.60254e-05)
(0.000101511 0 1.68879e-05)
(8.31916e-05 0 1.6766e-05)
(6.44895e-05 0 1.58227e-05)
(4.63234e-05 0 1.44905e-05)
(2.90997e-05 0 1.32471e-05)
(1.27254e-05 0 1.24394e-05)
(-3.21591e-06 0 1.22447e-05)
(-1.92734e-05 0 1.27012e-05)
(-3.59644e-05 0 1.37189e-05)
(-5.36002e-05 0 1.50539e-05)
(-7.20888e-05 0 1.62958e-05)
(-9.08085e-05 0 1.69584e-05)
(-0.000108695 0 1.66939e-05)
(-0.000124528 0 1.54457e-05)
(-0.0001372 0 1.32183e-05)
(-0.000146099 0 1.0116e-05)
(-0.000151147 0 6.40978e-06)
(-0.000152566 0 2.57942e-06)
(-0.000150853 0 -8.84716e-07)
(-0.000146543 0 -3.78486e-06)
(-0.000140105 0 -6.15602e-06)
(-0.000131936 0 -8.10038e-06)
(-0.000122374 0 -9.71699e-06)
(-0.000111701 0 -1.10859e-05)
(-0.000100147 0 -1.22665e-05)
(-8.78861e-05 0 -1.32989e-05)
(-7.50486e-05 0 -1.42047e-05)
(-6.17302e-05 0 -1.49888e-05)
(-4.80114e-05 0 -1.56423e-05)
(-3.39718e-05 0 -1.61487e-05)
(-1.96981e-05 0 -1.64901e-05)
(-5.28606e-06 0 -1.66519e-05)
(1.02714e-05 0 -3.16251e-05)
(2.63845e-05 0 -3.12889e-05)
(4.22816e-05 0 -3.06674e-05)
(5.78315e-05 0 -2.97788e-05)
(7.29032e-05 0 -2.86422e-05)
(8.7363e-05 0 -2.72694e-05)
(0.000101072 0 -2.56573e-05)
(0.000113883 0 -2.37816e-05)
(0.000125641 0 -2.15959e-05)
(0.000136184 0 -1.90346e-05)
(0.000145352 0 -1.60174e-05)
(0.000152992 0 -1.24535e-05)
(0.000158975 0 -8.24887e-06)
(0.000163204 0 -3.31772e-06)
(0.000165599 0 2.4153e-06)
(0.000165985 0 9.0328e-06)
(0.000163798 0 1.65418e-05)
(0.000158055 0 2.44784e-05)
(0.000147792 0 3.152e-05)
(0.000132513 0 3.6175e-05)
(0.000112903 0 3.81885e-05)
(9.05446e-05 0 3.80035e-05)
(6.71574e-05 0 3.63806e-05)
(4.38556e-05 0 3.43629e-05)
(2.10274e-05 0 3.28422e-05)
(-1.45864e-06 0 3.2332e-05)
(-2.3965e-05 0 3.29803e-05)
(-4.68386e-05 0 3.45926e-05)
(-7.01582e-05 0 3.66014e-05)
(-9.34448e-05 0 3.8073e-05)
(-0.000115485 0 3.79793e-05)
(-0.000134522 0 3.56022e-05)
(-0.000149057 0 3.05518e-05)
(-0.000158572 0 2.32597e-05)
(-0.000163683 0 1.53015e-05)
(-0.000165377 0 7.88494e-06)
(-0.000164606 0 1.3752e-06)
(-0.00016186 0 -4.26018e-06)
(-0.000157285 0 -9.10097e-06)
(-0.000150961 0 -1.32228e-05)
(-0.000142991 0 -1.67127e-05)
(-0.000133511 0 -1.96647e-05)
(-0.000122676 0 -2.21685e-05)
(-0.00011065 0 -2.43028e-05)
(-9.75967e-05 0 -2.61306e-05)
(-8.36722e-05 0 -2.76951e-05)
(-6.90243e-05 0 -2.90171e-05)
(-5.3793e-05 0 -3.00968e-05)
(-3.81134e-05 0 -3.09209e-05)
(-2.21182e-05 0 -3.14704e-05)
(-5.9404e-06 0 -3.17294e-05)
(1.02864e-05 0 -3.16891e-05)
(2.64283e-05 0 -3.13511e-05)
(4.2352e-05 0 -3.07262e-05)
(5.79245e-05 0 -2.98318e-05)
(7.30128e-05 0 -2.86863e-05)
(8.74808e-05 0 -2.73001e-05)
(0.000101187 0 -2.56679e-05)
(0.00011398 0 -2.3763e-05)
(0.000125702 0 -2.15364e-05)
(0.00013619 0 -1.89204e-05)
(0.00014528 0 -1.58331e-05)
(0.00015282 0 -1.21826e-05)
(0.000158683 0 -7.87561e-06)
(0.000162774 0 -2.82873e-06)
(0.000165012 0 3.03227e-06)
(0.000165192 0 9.78916e-06)
(0.000162685 0 1.74169e-05)
(0.000156483 0 2.53522e-05)
(0.000145647 0 3.2173e-05)
(0.000129801 0 3.6493e-05)
(0.000109785 0 3.82022e-05)
(8.72523e-05 0 3.77922e-05)
(6.38683e-05 0 3.60714e-05)
(4.06496e-05 0 3.40909e-05)
(1.78982e-05 0 3.26984e-05)
(-4.56425e-06 0 3.23556e-05)
(-2.71113e-05 0 3.31651e-05)
(-5.00699e-05 0 3.48864e-05)
(-7.34612e-05 0 3.68989e-05)
(-9.6712e-05 0 3.82334e-05)
(-0.000118515 0 3.78905e-05)
(-0.000137093 0 3.51956e-05)
(-0.00015104 0 2.98182e-05)
(-0.000160006 0 2.23657e-05)
(-0.000164694 0 1.44505e-05)
(-0.000166104 0 7.16502e-06)
(-0.000165145 0 7.92646e-07)
(-0.000162247 0 -4.71809e-06)
(-0.000157539 0 -9.4465e-06)
(-0.0001511 0 -1.347e-05)
(-0.000143036 0 -1.68778e-05)
(-0.000133483 0 -1.97639e-05)
(-0.000122598 0 -2.22169e-05)
(-0.000110541 0 -2.43136e-05)
(-9.74738e-05 0 -2.61148e-05)
(-8.3549e-05 0 -2.76611e-05)
(-6.89114e-05 0 -2.89709e-05)
(-5.36984e-05 0 -3.00426e-05)
(-3.80424e-05 0 -3.08614e-05)
(-2.20744e-05 0 -3.14078e-05)
(-5.92572e-06 0 -3.16652e-05)
(1.07491e-05 0 -4.83401e-05)
(2.75922e-05 0 -4.78205e-05)
(4.41579e-05 0 -4.68551e-05)
(6.02782e-05 0 -4.54626e-05)
(7.57858e-05 0 -4.36617e-05)
(9.05151e-05 0 -4.14644e-05)
(0.000104303 0 -3.8869e-05)
(0.000116991 0 -3.58566e-05)
(0.000128429 0 -3.23913e-05)
(0.000138478 0 -2.84238e-05)
(0.000147013 0 -2.38951e-05)
(0.000153927 0 -1.87395e-05)
(0.000159132 0 -1.28849e-05)
(0.000162558 0 -6.24548e-06)
(0.000164135 0 1.30363e-06)
(0.000163785 0 9.94521e-06)
(0.000161422 0 1.97872e-05)
(0.000156929 0 3.05788e-05)
(0.000149904 0 4.16659e-05)
(0.00013915 0 5.19016e-05)
(0.000123118 0 5.91238e-05)
(0.000101905 0 6.19383e-05)
(7.7266e-05 0 6.14967e-05)
(5.11806e-05 0 5.96365e-05)
(2.475e-05 0 5.79341e-05)
(-1.69014e-06 0 5.73259e-05)
(-2.81239e-05 0 5.80824e-05)
(-5.45152e-05 0 5.98481e-05)
(-8.04533e-05 0 6.15914e-05)
(-0.000104707 0 6.16712e-05)
(-0.000125242 0 5.82611e-05)
(-0.000140448 0 5.04564e-05)
(-0.000150529 0 3.99722e-05)
(-0.000157091 0 2.8846e-05)
(-0.00016121 0 1.81271e-05)
(-0.000163212 0 8.42129e-06)
(-0.000163206 0 -8.25683e-08)
(-0.000161277 0 -7.51991e-06)
(-0.000157501 0 -1.40663e-05)
(-0.000151947 0 -1.98376e-05)
(-0.00014469 0 -2.49151e-05)
(-0.000135822 0 -2.93691e-05)
(-0.000125453 0 -3.3264e-05)
(-0.000113713 0 -3.66575e-05)
(-0.000100747 0 -3.95971e-05)
(-8.67082e-05 0 -4.21162e-05)
(-7.1759e-05 0 -4.42307e-05)
(-5.60658e-05 0 -4.59402e-05)
(-3.97973e-05 0 -4.72314e-05)
(-2.3123e-05 0 -4.80857e-05)
(-6.21381e-06 0 -4.84864e-05)
(1.07584e-05 0 -4.84242e-05)
(2.76215e-05 0 -4.79006e-05)
(4.42037e-05 0 -4.69274e-05)
(6.03346e-05 0 -4.55223e-05)
(7.58448e-05 0 -4.37034e-05)
(9.05662e-05 0 -4.14809e-05)
(0.000104333 0 -3.88514e-05)
(0.000116985 0 -3.57939e-05)
(0.000128371 0 -3.22708e-05)
(0.000138349 0 -2.82317e-05)
(0.000146795 0 -2.36167e-05)
(0.000153603 0 -1.83599e-05)
(0.000158686 0 -1.23892e-05)
(0.000161973 0 -5.61723e-06)
(0.000163394 0 2.08661e-06)
(0.000162871 0 1.09073e-05)
(0.000160312 0 2.09224e-05)
(0.000155593 0 3.18241e-05)
(0.00014823 0 4.29109e-05)
(0.000136917 0 5.29232e-05)
(0.000120203 0 5.9605e-05)
(9.847e-05 0 6.1918e-05)
(7.35843e-05 0 6.12113e-05)
(4.74456e-05 0 5.93214e-05)
(2.10261e-05 0 5.77555e-05)
(-5.40702e-06 0 5.73557e-05)
(-3.18523e-05 0 5.83095e-05)
(-5.8247e-05 0 6.01762e-05)
(-8.40947e-05 0 6.18302e-05)
(-0.000108027 0 6.15765e-05)
(-0.00012798 0 5.76195e-05)
(-0.000142506 0 4.9342e-05)
(-0.000152093 0 3.8711e-05)
(-0.000158358 0 2.76199e-05)
(-0.000162262 0 1.70329e-05)
(-0.000164075 0 7.50728e-06)
(-0.0001639 0 -8.22814e-07)
(-0.000161819 0 -8.11209e-06)
(-0.000157909 0 -1.45308e-05)
(-0.000152237 0 -2.01901e-05)
(-0.000144878 0 -2.51705e-05)
(-0.000135925 0 -2.95422e-05)
(-0.00012549 0 -3.33693e-05)
(-0.000113702 0 -3.67085e-05)
(-0.000100704 0 -3.9606e-05)
(-8.66469e-05 0 -4.20934e-05)
(-7.16924e-05 0 -4.41847e-05)
(-5.60039e-05 0 -4.58775e-05)
(-3.97476e-05 0 -4.71573e-05)
(-2.30908e-05 0 -4.80045e-05)
(-6.20198e-06 0 -4.8402e-05)
(1.08471e-05 0 -6.55806e-05)
(2.78277e-05 0 -6.48546e-05)
(4.44856e-05 0 -6.35022e-05)
(6.06266e-05 0 -6.15438e-05)
(7.60614e-05 0 -5.90009e-05)
(9.06065e-05 0 -5.58893e-05)
(0.000104088 0 -5.22131e-05)
(0.000116344 0 -4.79616e-05)
(0.000127228 0 -4.31096e-05)
(0.000136609 0 -3.76201e-05)
(0.000144377 0 -3.14486e-05)
(0.000150434 0 -2.45457e-05)
(0.000154699 0 -1.68573e-05)
(0.000157104 0 -8.31922e-06)
(0.000157595 0 1.15588e-06)
(0.000156163 0 1.16783e-05)
(0.000152868 0 2.33139e-05)
(0.000147793 0 3.59897e-05)
(0.000140889 0 4.94821e-05)
(0.000131894 0 6.31446e-05)
(0.000119883 0 7.54418e-05)
(0.00010299 0 8.39783e-05)
(8.04665e-05 0 8.71903e-05)
(5.43089e-05 0 8.69017e-05)
(2.65334e-05 0 8.57153e-05)
(-1.78777e-06 0 8.52031e-05)
(-3.00646e-05 0 8.58092e-05)
(-5.76782e-05 0 8.69501e-05)
(-8.34453e-05 0 8.68903e-05)
(-0.000105251 0 8.29701e-05)
(-0.000121322 0 7.37347e-05)
(-0.000132781 0 6.10958e-05)
(-0.000141405 0 4.73531e-05)
(-0.000147989 0 3.39164e-05)
(-0.000152754 0 2.13389e-05)
(-0.000155721 0 9.82067e-06)
(-0.000156805 0 -5.85831e-07)
(-0.000155952 0 -9.95844e-06)
(-0.000153185 0 -1.84044e-05)
(-0.000148558 0 -2.60055e-05)
(-0.000142144 0 -3.28221e-05)
(-0.000134027 0 -3.89065e-05)
(-0.000124308 0 -4.43067e-05)
(-0.000113104 0 -4.90656e-05)
(-0.00010055 0 -5.32185e-05)
(-8.67973e-05 0 -5.67882e-05)
(-7.20144e-05 0 -5.97829e-05)
(-5.63797e-05 0 -6.21966e-05)
(-4.00807e-05 0 -6.40126e-05)
(-2.33107e-05 0 -6.521e-05)
(-6.26729e-06 0 -6.57704e-05)
(1.08497e-05 0 -6.56834e-05)
(2.78393e-05 0 -6.49509e-05)
(4.45022e-05 0 -6.35857e-05)
(6.06419e-05 0 -6.16075e-05)
(7.60664e-05 0 -5.90367e-05)
(9.05901e-05 0 -5.58877e-05)
(0.000104037 0 -5.2163e-05)
(0.000116244 0 -4.78502e-05)
(0.000127062 0 -4.29229e-05)
(0.000136362 0 -3.73434e-05)
(0.000144031 0 -3.10671e-05)
(0.000149973 0 -2.40449e-05)
(0.000154108 0 -1.62233e-05)
(0.000156366 0 -7.53771e-06)
(0.000156698 0 2.10089e-06)
(0.000155101 0 1.28016e-05)
(0.000151644 0 2.46154e-05)
(0.000146401 0 3.74497e-05)
(0.000139302 0 5.10519e-05)
(0.000130038 0 6.46746e-05)
(0.00011755 0 7.66611e-05)
(9.992e-05 0 8.45422e-05)
(7.6814e-05 0 8.7169e-05)
(5.03784e-05 0 8.66675e-05)
(2.25072e-05 0 8.55522e-05)
(-5.83346e-06 0 8.52314e-05)
(-3.40749e-05 0 8.60105e-05)
(-6.15583e-05 0 8.71627e-05)
(-8.69728e-05 0 8.67884e-05)
(-0.000108116 0 8.22086e-05)
(-0.000123498 0 7.23974e-05)
(-0.000134549 0 5.95321e-05)
(-0.000142933 0 4.58024e-05)
(-0.000149332 0 3.24942e-05)
(-0.000153932 0 2.00822e-05)
(-0.000156736 0 8.74448e-06)
(-0.000157655 0 -1.48684e-06)
(-0.000156646 0 -1.07005e-05)
(-0.000153736 0 -1.90032e-05)
(-0.000148982 0 -2.64749e-05)
(-0.000142457 0 -3.31762e-05)
(-0.000134246 0 -3.91598e-05)
(-0.000124449 0 -4.44738e-05)
(-0.000113184 0 -4.91613e-05)
(-0.000100583 0 -5.32563e-05)
(-8.67998e-05 0 -5.67804e-05)
(-7.19982e-05 0 -5.97403e-05)
(-5.63555e-05 0 -6.21281e-05)
(-4.00567e-05 0 -6.39259e-05)
(-2.3293e-05 0 -6.51119e-05)
(-6.25921e-06 0 -6.56669e-05)
(1.06471e-05 0 -8.25378e-05)
(2.73005e-05 0 -8.15732e-05)
(4.35999e-05 0 -7.97748e-05)
(5.93346e-05 0 -7.71682e-05)
(7.43013e-05 0 -7.37826e-05)
(8.83076e-05 0 -6.96442e-05)
(0.000101175 0 -6.47713e-05)
(0.000112741 0 -5.91705e-05)
(0.000122865 0 -5.28356e-05)
(0.000131425 0 -4.57494e-05)
(0.000138317 0 -3.78853e-05)
(0.000143458 0 -2.92095e-05)
(0.00014678 0 -1.96805e-05)
(0.000148229 0 -9.24781e-06)
(0.000147777 0 2.14948e-06)
(0.000145435 0 1.45689e-05)
(0.000141278 0 2.80109e-05)
(0.000135412 0 4.23624e-05)
(0.00012794 0 5.74159e-05)
(0.00011891 0 7.28711e-05)
(0.000108139 0 8.80736e-05)
(9.46726e-05 0 0.000101367)
(7.66016e-05 0 0.000110197)
(5.31431e-05 0 0.000113623)
(2.63608e-05 0 0.000114081)
(-1.75765e-06 0 0.000113971)
(-2.9777e-05 0 0.000114023)
(-5.62277e-05 0 0.000113281)
(-7.9018e-05 0 0.000109177)
(-9.6325e-05 0 9.95672e-05)
(-0.000109288 0 8.58318e-05)
(-0.00011975 0 7.04881e-05)
(-0.000128513 0 5.50191e-05)
(-0.000135712 0 4.00034e-05)
(-0.000141283 0 2.57215e-05)
(-0.000145121 0 1.23719e-05)
(-0.00014712 0 5.20904e-08)
(-0.000147216 0 -1.12494e-05)
(-0.000145404 0 -2.15911e-05)
(-0.000141719 0 -3.10307e-05)
(-0.000136216 0 -3.96154e-05)
(-0.000128968 0 -4.73839e-05)
(-0.000120064 0 -5.43676e-05)
(-0.000109611 0 -6.05908e-05)
(-9.77366e-05 0 -6.60684e-05)
(-8.45896e-05 0 -7.0804e-05)
(-7.03374e-05 0 -7.47891e-05)
(-5.51647e-05 0 -7.80039e-05)
(-3.92691e-05 0 -8.04217e-05)
(-2.28587e-05 0 -8.20147e-05)
(-6.14843e-06 0 -8.27596e-05)
(1.06425e-05 0 -8.26441e-05)
(2.72938e-05 0 -8.16701e-05)
(4.3587e-05 0 -7.98534e-05)
(5.93088e-05 0 -7.72191e-05)
(7.42537e-05 0 -7.37954e-05)
(8.8227e-05 0 -6.96075e-05)
(0.000101049 0 -6.46724e-05)
(0.000112555 0 -5.89956e-05)
(0.000122605 0 -5.257e-05)
(0.000131075 0 -4.53782e-05)
(0.000137862 0 -3.73938e-05)
(0.000142884 0 -2.85833e-05)
(0.000146071 0 -1.89063e-05)
(0.000147374 0 -8.31291e-06)
(0.000146764 0 3.25662e-06)
(0.000144263 0 1.58549e-05)
(0.000139949 0 2.9469e-05)
(0.000133932 0 4.39701e-05)
(0.000126311 0 5.91405e-05)
(0.000117119 0 7.46546e-05)
(0.000106114 0 8.97699e-05)
(9.21896e-05 0 0.00010266)
(7.34029e-05 0 0.000110779)
(4.93797e-05 0 0.000113682)
(2.23414e-05 0 0.000114017)
(-5.83775e-06 0 0.000113985)
(-3.37493e-05 0 0.000114085)
(-5.9874e-05 0 0.000113124)
(-8.20138e-05 0 0.000108396)
(-9.86559e-05 0 9.81294e-05)
(-0.000111234 0 8.4086e-05)
(-0.000121493 0 6.871e-05)
(-0.0001301 0 5.33204e-05)
(-0.00013715 0 3.84312e-05)
(-0.000142568 0 2.4306e-05)
(-0.000146248 0 1.11321e-05)
(-0.000148087 0 -1.00962e-06)
(-0.000148028 0 -1.2142e-05)
(-0.000146072 0 -2.23266e-05)
(-0.000142256 0 -3.16219e-05)
(-0.000136637 0 -4.00759e-05)
(-0.000129288 0 -4.7728e-05)
(-0.000120297 0 -5.46101e-05)
(-0.000109773 0 -6.07465e-05)
(-9.78428e-05 0 -6.61517e-05)
(-8.46531e-05 0 -7.08284e-05)
(-7.03707e-05 0 -7.47668e-05)
(-5.51784e-05 0 -7.79461e-05)
(-3.92717e-05 0 -8.03384e-05)
(-2.28562e-05 0 -8.19151e-05)
(-6.14438e-06 0 -8.26525e-05)
(1.02027e-05 0 -9.90021e-05)
(2.61484e-05 0 -9.77833e-05)
(4.17221e-05 0 -9.55108e-05)
(5.67039e-05 0 -9.22177e-05)
(7.08842e-05 0 -8.7944e-05)
(8.40677e-05 0 -8.27303e-05)
(9.60764e-05 0 -7.66121e-05)
(0.000106753 0 -6.96158e-05)
(0.000115962 0 -6.17564e-05)
(0.00012359 0 -5.30375e-05)
(0.000129546 0 -4.34522e-05)
(0.000133758 0 -3.29846e-05)
(0.000136173 0 -2.16115e-05)
(0.000136756 0 -9.30459e-06)
(0.000135501 0 3.9634e-06)
(0.000132437 0 1.82035e-05)
(0.000127641 0 3.33754e-05)
(0.000121219 0 4.93572e-05)
(0.000113285 0 6.59452e-05)
(0.000103953 0 8.28443e-05)
(9.3289e-05 0 9.96194e-05)
(8.11226e-05 0 0.000115488)
(6.63964e-05 0 0.000128725)
(4.73797e-05 0 0.00013711)
(2.3979e-05 0 0.000140649)
(-1.58286e-06 0 0.000141403)
(-2.69893e-05 0 0.000140302)
(-4.9896e-05 0 0.000136159)
(-6.82434e-05 0 0.000126992)
(-8.24955e-05 0 0.000113208)
(-9.43907e-05 0 9.70947e-05)
(-0.000104833 0 8.02204e-05)
(-0.000113931 0 6.32905e-05)
(-0.000121608 0 4.67182e-05)
(-0.000127749 0 3.07837e-05)
(-0.000132239 0 1.5681e-05)
(-0.000134975 0 1.52157e-06)
(-0.000135886 0 -1.16623e-05)
(-0.00013495 0 -2.38834e-05)
(-0.000132179 0 -3.51679e-05)
(-0.000127611 0 -4.55412e-05)
(-0.000121303 0 -5.50233e-05)
(-0.000113331 0 -6.36272e-05)
(-0.000103793 0 -7.13566e-05)
(-9.28088e-05 0 -7.82052e-05)
(-8.05194e-05 0 -8.41551e-05)
(-6.70897e-05 0 -8.9178e-05)
(-5.27039e-05 0 -9.32374e-05)
(-3.75637e-05 0 -9.62929e-05)
(-2.18837e-05 0 -9.83063e-05)
(-5.88858e-06 0 -9.92478e-05)
(1.01914e-05 0 -9.91018e-05)
(2.61245e-05 0 -9.78707e-05)
(4.16814e-05 0 -9.55746e-05)
(5.664e-05 0 -9.2246e-05)
(7.07886e-05 0 -8.79244e-05)
(8.39299e-05 0 -8.26495e-05)
(9.58847e-05 0 -7.64562e-05)
(0.000106494 0 -6.93699e-05)
(0.000115623 0 -6.14055e-05)
(0.000123157 0 -5.25665e-05)
(0.000129005 0 -4.28464e-05)
(0.000133097 0 -3.22305e-05)
(0.000135378 0 -2.06968e-05)
(0.000135819 0 -8.21935e-06)
(0.000134414 0 5.22611e-06)
(0.000131198 0 1.96443e-05)
(0.000126254 0 3.49844e-05)
(0.00011969 0 5.11119e-05)
(0.000111621 0 6.78122e-05)
(0.000102157 0 8.47735e-05)
(9.1353e-05 0 0.000101537)
(7.89662e-05 0 0.000117232)
(6.37857e-05 0 0.000129981)
(4.41334e-05 0 0.000137698)
(2.03102e-05 0 0.000140811)
(-5.35692e-06 0 0.000141383)
(-3.05776e-05 0 0.000140058)
(-5.29741e-05 0 0.0001354)
(-7.07053e-05 0 0.000125573)
(-8.4574e-05 0 0.000111392)
(-9.6285e-05 0 9.51619e-05)
(-0.000106592 0 7.83002e-05)
(-0.000115559 0 6.14478e-05)
(-0.000123098 0 4.49978e-05)
(-0.000129095 0 2.92161e-05)
(-0.000133435 0 1.42855e-05)
(-0.000136019 0 3.04767e-07)
(-0.000136782 0 -1.27033e-05)
(-0.000135705 0 -2.47567e-05)
(-0.000132804 0 -3.5884e-05)
(-0.000128117 0 -4.61127e-05)
(-0.000121704 0 -5.5464e-05)
(-0.000113642 0 -6.39517e-05)
(-0.000104027 0 -7.158e-05)
(-9.29784e-05 0 -7.83424e-05)
(-8.06379e-05 0 -8.42207e-05)
(-6.71685e-05 0 -8.91858e-05)
(-5.27531e-05 0 -9.32003e-05)
(-3.75913e-05 0 -9.6223e-05)
(-2.18957e-05 0 -9.82153e-05)
(-5.88848e-06 0 -9.9147e-05)
(9.56025e-06 0 -0.000114581)
(2.44905e-05 0 -0.000113099)
(3.9042e-05 0 -0.000110337)
(5.29923e-05 0 -0.000106338)
(6.61315e-05 0 -0.000101154)
(7.82665e-05 0 -9.48448e-05)
(8.92244e-05 0 -8.74654e-05)
(9.88549e-05 0 -7.90649e-05)
(0.000107032 0 -6.96817e-05)
(0.000113653 0 -5.93422e-05)
(0.000118641 0 -4.80612e-05)
(0.000121936 0 -3.58428e-05)
(0.000123503 0 -2.26843e-05)
(0.000123327 0 -8.58109e-06)
(0.000121418 0 6.46411e-06)
(0.00011782 0 2.24247e-05)
(0.000112611 0 3.92253e-05)
(0.000105895 0 5.67232e-05)
(9.77895e-05 0 7.47075e-05)
(8.84217e-05 0 9.28974e-05)
(7.79051e-05 0 0.000110924)
(6.63173e-05 0 0.000128249)
(5.34315e-05 0 0.000143874)
(3.81893e-05 0 0.000155994)
(1.96153e-05 0 0.000162989)
(-1.27442e-06 0 0.000164939)
(-2.19855e-05 0 0.000162275)
(-4.01078e-05 0 0.000154489)
(-5.49382e-05 0 0.000141713)
(-6.75821e-05 0 0.000125712)
(-7.89947e-05 0 0.000108191)
(-8.93228e-05 0 9.00585e-05)
(-9.84799e-05 0 7.18178e-05)
(-0.000106349 0 5.38241e-05)
(-0.000112804 0 3.63484e-05)
(-0.000117728 0 1.95939e-05)
(-0.000121019 0 3.69498e-06)
(-0.000122604 0 -1.12791e-05)
(-0.000122445 0 -2.53043e-05)
(-0.000120537 0 -3.83773e-05)
(-0.000116899 0 -5.05002e-05)
(-0.000111571 0 -6.16724e-05)
(-0.000104615 0 -7.18859e-05)
(-9.61177e-05 0 -8.11221e-05)
(-8.61862e-05 0 -8.93511e-05)
(-7.4954e-05 0 -9.65315e-05)
(-6.25784e-05 0 -0.000102613)
(-4.92395e-05 0 -0.000107537)
(-3.51369e-05 0 -0.000111249)
(-2.04862e-05 0 -0.000113697)
(-5.51477e-06 0 -0.000114841)
(9.54312e-06 0 -0.000114664)
(2.44513e-05 0 -0.000113167)
(3.8977e-05 0 -0.000110376)
(5.28954e-05 0 -0.000106334)
(6.59949e-05 0 -0.000101093)
(7.80808e-05 0 -9.47121e-05)
(8.89787e-05 0 -8.72457e-05)
(9.85378e-05 0 -7.87428e-05)
(0.000106632 0 -6.92417e-05)
(0.000113158 0 -5.87694e-05)
(0.000118038 0 -4.73413e-05)
(0.000121216 0 -3.49632e-05)
(0.000122655 0 -2.16343e-05)
(0.000122345 0 -7.35321e-06)
(0.000120297 0 7.87285e-06)
(0.000116559 0 2.40103e-05)
(0.000111214 0 4.09742e-05)
(0.000104367 0 5.86112e-05)
(9.61403e-05 0 7.67006e-05)
(8.66582e-05 0 9.49509e-05)
(7.60323e-05 0 0.00011298)
(6.43289e-05 0 0.000130208)
(5.12277e-05 0 0.000145547)
(3.55822e-05 0 0.000157107)
(1.65909e-05 0 0.000163461)
(-4.42575e-06 0 0.000164869)
(-2.49175e-05 0 0.000161639)
(-4.25912e-05 0 0.000153205)
(-5.70653e-05 0 0.000139936)
(-6.95345e-05 0 0.000123712)
(-8.08373e-05 0 0.000106127)
(-9.10552e-05 0 8.80144e-05)
(-0.000100096 0 6.9847e-05)
(-0.000107841 0 5.19685e-05)
(-0.000114164 0 3.46392e-05)
(-0.00011895 0 1.80525e-05)
(-0.0001221 0 2.33217e-06)
(-0.000123547 0 -1.24616e-05)
(-0.000123255 0 -2.6311e-05)
(-0.000121221 0 -3.92165e-05)
(-0.000117467 0 -5.11831e-05)
(-0.000112035 0 -6.22121e-05)
(-0.000104987 0 -7.22965e-05)
(-9.64089e-05 0 -8.14189e-05)
(-8.64085e-05 0 -8.95494e-05)
(-7.51188e-05 0 -9.66466e-05)
(-6.26963e-05 0 -0.000102659)
(-4.93196e-05 0 -0.000107531)
(-3.51867e-05 0 -0.000111203)
(-2.05112e-05 0 -0.000113625)
(-5.51826e-06 0 -0.000114757)
(8.75758e-06 0 -0.00012901)
(2.24235e-05 0 -0.000127264)
(3.5714e-05 0 -0.000124012)
(4.84097e-05 0 -0.000119306)
(6.03056e-05 0 -0.000113217)
(7.12155e-05 0 -0.000105822)
(8.09749e-05 0 -9.71988e-05)
(8.94439e-05 0 -8.74215e-05)
(9.65082e-05 0 -7.65531e-05)
(0.000102079 0 -6.46443e-05)
(0.000106092 0 -5.1733e-05)
(0.000108505 0 -3.78457e-05)
(0.000109299 0 -2.30014e-05)
(0.000108478 0 -7.21934e-06)
(0.00010607 0 9.47063e-06)
(0.000102129 0 2.70117e-05)
(9.67396e-05 0 4.53008e-05)
(9.00068e-05 0 6.41759e-05)
(8.20531e-05 0 8.34123e-05)
(7.3014e-05 0 0.000102722)
(6.30322e-05 0 0.000121749)
(5.22551e-05 0 0.000140034)
(4.07979e-05 0 0.00015684)
(2.8398e-05 0 0.000170811)
(1.44362e-05 0 0.00017999)
(-9.05847e-07 0 0.000182867)
(-1.61279e-05 0 0.000179014)
(-2.9852e-05 0 0.000169003)
(-4.20747e-05 0 0.000154472)
(-5.34173e-05 0 0.000137337)
(-6.40684e-05 0 0.000118853)
(-7.38958e-05 0 9.96984e-05)
(-8.27533e-05 0 8.03116e-05)
(-9.04984e-05 0 6.10397e-05)
(-9.6997e-05 0 4.21623e-05)
(-0.000102129 0 2.38967e-05)
(-0.00010579 0 6.39832e-06)
(-0.000107902 0 -1.0235e-05)
(-0.000108413 0 -2.59489e-05)
(-0.0001073 0 -4.07132e-05)
(-0.000104565 0 -5.45061e-05)
(-0.00010023 0 -6.73047e-05)
(-9.43419e-05 0 -7.90781e-05)
(-8.69719e-05 0 -8.97839e-05)
(-7.82152e-05 0 -9.93673e-05)
(-6.81934e-05 0 -0.000107761)
(-5.70537e-05 0 -0.000114891)
(-4.49677e-05 0 -0.000120678)
(-3.21287e-05 0 -0.000125045)
(-1.87478e-05 0 -0.000127928)
(-5.04894e-06 0 -0.000129277)
(8.73564e-06 0 -0.000129067)
(2.23718e-05 0 -0.000127304)
(3.5629e-05 0 -0.000124018)
(4.82862e-05 0 -0.000119263)
(6.01366e-05 0 -0.000113108)
(7.09925e-05 0 -0.000105632)
(8.06885e-05 0 -9.69115e-05)
(8.90843e-05 0 -8.70208e-05)
(9.60651e-05 0 -7.60235e-05)
(0.000101542 0 -6.39711e-05)
(0.000105452 0 -5.09027e-05)
(0.000107754 0 -3.68467e-05)
(0.000108431 0 -2.18248e-05)
(0.000107487 0 -5.86006e-06)
(0.000104953 0 1.10123e-05)
(0.000100889 0 2.87282e-05)
(9.53793e-05 0 4.71755e-05)
(8.85339e-05 0 6.61824e-05)
(8.04766e-05 0 8.5515e-05)
(7.13447e-05 0 0.000104876)
(6.12814e-05 0 0.0001239)
(5.04361e-05 0 0.000142106)
(3.89011e-05 0 0.000158697)
(2.6337e-05 0 0.000172217)
(1.21514e-05 0 0.000180694)
(-3.27813e-06 0 0.000182755)
(-1.83562e-05 0 0.000178103)
(-3.18577e-05 0 0.000167448)
(-4.39446e-05 0 0.000152538)
(-5.52183e-05 0 0.000135233)
(-6.57977e-05 0 0.000116694)
(-7.55405e-05 0 9.75515e-05)
(-8.43021e-05 0 7.82287e-05)
(-9.1941e-05 0 5.90632e-05)
(-9.83247e-05 0 4.03254e-05)
(-0.000103335 0 2.22232e-05)
(-0.000106871 0 4.90216e-06)
(-0.000108858 0 -1.15484e-05)
(-0.000109247 0 -2.70809e-05)
(-0.000108017 0 -4.167e-05)
(-0.000105172 0 -5.52973e-05)
(-0.000100736 0 -6.79424e-05)
(-9.47568e-05 0 -7.95759e-05)
(-8.73055e-05 0 -9.01569e-05)
(-7.84778e-05 0 -9.96308e-05)
(-6.83947e-05 0 -0.000107932)
(-5.7203e-05 0 -0.000114984)
(-4.50731e-05 0 -0.000120709)
(-3.21969e-05 0 -0.000125031)
(-1.87836e-05 0 -0.000127883)
(-5.0555e-06 0 -0.000129218)
(7.82558e-06 0 -0.000142062)
(2.00268e-05 0 -0.000140057)
(3.18647e-05 0 -0.000136325)
(4.31285e-05 0 -0.000130931)
(5.36226e-05 0 -0.000123961)
(6.31713e-05 0 -0.000115515)
(7.16223e-05 0 -0.000105695)
(7.88485e-05 0 -9.45993e-05)
(8.47497e-05 0 -8.23178e-05)
(8.92518e-05 0 -6.89265e-05)
(9.23061e-05 0 -5.44879e-05)
(9.3888e-05 0 -3.90514e-05)
(9.39958e-05 0 -2.2659e-05)
(9.26506e-05 0 -5.35289e-06)
(8.98965e-05 0 1.28124e-05)
(8.58017e-05 0 3.17545e-05)
(8.04587e-05 0 5.13468e-05)
(7.39804e-05 0 7.14081e-05)
(6.64977e-05 0 9.16973e-05)
(5.81596e-05 0 0.000111911)
(4.9135e-05 0 0.000131676)
(3.9619e-05 0 0.000150528)
(2.98445e-05 0 0.000167796)
(1.99621e-05 0 0.000182307)
(9.84613e-06 0 0.000192171)
(-5.79631e-07 0 0.000195375)
(-1.09738e-05 0 0.000191104)
(-2.10398e-05 0 0.000180405)
(-3.0894e-05 0 0.000165349)
(-4.0629e-05 0 0.00014774)
(-5.00671e-05 0 0.000128661)
(-5.89783e-05 0 0.000108737)
(-6.71716e-05 0 8.84177e-05)
(-7.4481e-05 0 6.80663e-05)
(-8.07596e-05 0 4.79778e-05)
(-8.58787e-05 0 2.83865e-05)
(-8.9728e-05 0 9.4675e-06)
(-9.22184e-05 0 -8.65697e-06)
(-9.32851e-05 0 -2.59068e-05)
(-9.28881e-05 0 -4.22268e-05)
(-9.10105e-05 0 -5.7572e-05)
(-8.76586e-05 0 -7.18962e-05)
(-8.28623e-05 0 -8.51446e-05)
(-7.66762e-05 0 -9.72498e-05)
(-6.91811e-05 0 -0.000108131)
(-6.04845e-05 0 -0.000117694)
(-5.07208e-05 0 -0.000125839)
(-4.00498e-05 0 -0.000132464)
(-2.8654e-05 0 -0.00013747)
(-1.67352e-05 0 -0.000140778)
(-4.50904e-06 0 -0.000142326)
(7.80008e-06 0 -0.000142086)
(1.99656e-05 0 -0.000140062)
(3.17649e-05 0 -0.000136292)
(4.29855e-05 0 -0.000130843)
(5.34303e-05 0 -0.000123801)
(6.29226e-05 0 -0.000115265)
(7.13092e-05 0 -0.000105339)
(7.84628e-05 0 -9.41205e-05)
(8.42831e-05 0 -8.17009e-05)
(8.86964e-05 0 -6.81575e-05)
(9.1655e-05 0 -5.35541e-05)
(9.31352e-05 0 -3.79425e-05)
(9.31372e-05 0 -2.13679e-05)
(9.16839e-05 0 -3.87684e-06)
(8.88218e-05 0 1.44704e-05)
(8.46224e-05 0 3.35837e-05)
(7.91807e-05 0 5.33279e-05)
(7.26122e-05 0 7.35122e-05)
(6.50505e-05 0 9.38864e-05)
(5.66474e-05 0 0.000114138)
(4.75748e-05 0 0.000133884)
(3.80332e-05 0 0.000152643)
(2.82574e-05 0 0.000169701)
(1.83666e-05 0 0.000183792)
(8.21014e-06 0 0.000192953)
(-2.23715e-06 0 0.000195249)
(-1.25973e-05 0 0.000190105)
(-2.26294e-05 0 0.000178779)
(-3.24817e-05 0 0.000163371)
(-4.22099e-05 0 0.00014559)
(-5.16157e-05 0 0.00012644)
(-6.0474e-05 0 0.000106513)
(-6.85982e-05 0 8.62452e-05)
(-7.58252e-05 0 6.59895e-05)
(-8.2011e-05 0 4.60324e-05)
(-8.70292e-05 0 2.65987e-05)
(-9.07723e-05 0 7.85423e-06)
(-9.3154e-05 0 -1.00873e-05)
(-9.41126e-05 0 -2.71527e-05)
(-9.36101e-05 0 -4.32924e-05)
(-9.16319e-05 0 -5.84653e-05)
(-8.81855e-05 0 -7.2628e-05)