/*--------------------------------*- C++ -*----------------------------------*\
| =========                 |                                                 |
| \\      /  F ield         | OpenFOAM: The Open Source CFD Toolbox           |
|  \\    /   O peration     | Version:  2.3.0                                 |
|   \\  /    A nd           | Web:      www.OpenFOAM.org                      |
|    \\/     M anipulation  |                                                 |
\*---------------------------------------------------------------------------*/
FoamFile
{
    version     2.0;
    format      ascii;
    class       volVectorField;
    location    "17000";
    object      U;
}
// * * * * * * * * * * * * * * * * * * * * * * * * * * * * * * * * * * * * * //

dimensions      [0 1 -1 0 0 0 0];

internalField   nonuniform List<vector> 
3060
(
(0.617507 0 -0.447563)
(1.58062 0 -0.431426)
(2.51968 0 -0.401512)
(3.42077 0 -0.358375)
(4.27085 0 -0.303036)
(5.05807 0 -0.237571)
(5.77223 0 -0.165619)
(6.40522 0 -0.092389)
(6.95106 0 -0.0237469)
(7.40511 0 0.0353896)
(7.76217 0 0.082394)
(8.01416 0 0.117158)
(8.14817 0 0.141274)
(8.1456 0 0.157136)
(7.98524 0 0.170016)
(7.64727 0 0.190403)
(7.12419 0 0.225991)
(6.42562 0 0.269631)
(5.5817 0 0.301306)
(4.65138 0 0.305944)
(3.70372 0 0.285482)
(2.79792 0 0.248265)
(1.97349 0 0.206346)
(1.2394 0 0.170603)
(0.577467 0 0.147782)
(-0.0466803 0 0.140775)
(-0.673865 0 0.150226)
(-1.34444 0 0.175245)
(-2.09104 0 0.212449)
(-2.92839 0 0.254418)
(-3.84282 0 0.289845)
(-4.7908 0 0.306833)
(-5.7108 0 0.297847)
(-6.53365 0 0.262968)
(-7.20404 0 0.219462)
(-7.69571 0 0.186172)
(-8.00135 0 0.167526)
(-8.1312 0 0.154332)
(-8.10564 0 0.136842)
(-7.94605 0 0.110515)
(-7.67017 0 0.073086)
(-7.29013 0 0.0232434)
(-6.81352 0 -0.0384077)
(-6.24549 0 -0.108679)
(-5.59105 0 -0.182283)
(-4.8568 0 -0.25333)
(-4.05151 0 -0.316859)
(-3.18594 0 -0.369563)
(-2.27241 0 -0.409626)
(-1.32431 0 -0.43616)
(-0.355869 0 -0.448641)
(0.618079 0 -0.446677)
(1.58247 0 -0.430362)
(2.52262 0 -0.400123)
(3.4245 0 -0.356536)
(4.27497 0 -0.300681)
(5.0621 0 -0.234726)
(5.7756 0 -0.162441)
(6.4073 0 -0.0891499)
(6.95114 0 -0.0207523)
(7.40228 0 0.0379125)
(7.75513 0 0.0843626)
(8.00107 0 0.118616)
(8.12649 0 0.142337)
(8.11219 0 0.15802)
(7.93686 0 0.171469)
(7.58128 0 0.193565)
(7.03999 0 0.230801)
(6.32474 0 0.274162)
(5.46915 0 0.303141)
(4.53474 0 0.30458)
(3.59039 0 0.281605)
(2.69365 0 0.24322)
(1.88073 0 0.201554)
(1.15705 0 0.1671)
(0.501842 0 0.146086)
(-0.12044 0 0.141048)
(-0.750889 0 0.152445)
(-1.42937 0 0.179174)
(-2.187 0 0.217437)
(-3.03557 0 0.259285)
(-3.95773 0 0.293156)
(-4.90721 0 0.30741)
(-5.821 0 0.295109)
(-6.63042 0 0.258092)
(-7.28346 0 0.214962)
(-7.75685 0 0.183531)
(-8.04536 0 0.166354)
(-8.16108 0 0.153462)
(-8.12463 0 0.135682)
(-7.95717 0 0.108914)
(-7.67575 0 0.0709456)
(-7.29185 0 0.0205488)
(-6.81255 0 -0.0415323)
(-6.24267 0 -0.111974)
(-5.58707 0 -0.185438)
(-4.85227 0 -0.256094)
(-4.04698 0 -0.319109)
(-3.18189 0 -0.3713)
(-2.26921 0 -0.410935)
(-1.32225 0 -0.437173)
(-0.355099 0 -0.449508)
(0.921767 0 -1.67851)
(2.36673 0 -1.65738)
(3.79457 0 -1.61854)
(5.19561 0 -1.56341)
(6.5613 0 -1.49368)
(7.88376 0 -1.41082)
(9.15481 0 -1.31548)
(10.3641 0 -1.20695)
(11.4974 0 -1.08281)
(12.5352 0 -0.93879)
(13.4529 0 -0.768512)
(14.221 0 -0.563245)
(14.8052 0 -0.312141)
(15.1651 0 -0.00497781)
(15.2523 0 0.356315)
(15.0131 0 0.738948)
(14.4068 0 1.08733)
(13.4182 0 1.36708)
(12.0607 0 1.56371)
(10.4092 0 1.66471)
(8.58064 0 1.66587)
(6.69741 0 1.57702)
(4.86096 0 1.43976)
(3.12149 0 1.30575)
(1.4755 0 1.21384)
(-0.11751 0 1.1846)
(-1.71465 0 1.22357)
(-3.37177 0 1.32319)
(-5.12512 0 1.46023)
(-6.97084 0 1.59315)
(-8.85022 0 1.67006)
(-10.6561 0 1.65284)
(-12.2648 0 1.53607)
(-13.5633 0 1.3247)
(-14.4863 0 1.03193)
(-15.027 0 0.673402)
(-15.2043 0 0.288828)
(-15.0626 0 -0.0665906)
(-14.6557 0 -0.365595)
(-14.031 0 -0.60954)
(-13.2279 0 -0.809199)
(-12.2802 0 -0.975184)
(-11.2168 0 -1.11584)
(-10.0616 0 -1.23718)
(-8.83342 0 -1.34318)
(-7.54573 0 -1.43594)
(-6.20852 0 -1.5159)
(-4.82995 0 -1.58222)
(-3.41811 0 -1.63338)
(-1.98194 0 -1.66773)
(-0.53136 0 -1.68397)
(0.9231 0 -1.68143)
(2.37083 0 -1.66021)
(3.80138 0 -1.62118)
(5.20509 0 -1.56577)
(6.5733 0 -1.49564)
(7.89801 0 -1.41219)
(9.17077 0 -1.31597)
(10.3808 0 -1.20611)
(11.5133 0 -1.08003)
(12.5481 0 -0.933212)
(13.4598 0 -0.759056)
(14.2184 0 -0.548561)
(14.7884 0 -0.290739)
(15.1288 0 0.0241512)
(15.1898 0 0.391717)
(14.9178 0 0.775041)
(14.2749 0 1.11832)
(13.2481 0 1.39038)
(11.8567 0 1.57731)
(10.1825 0 1.66753)
(8.34496 0 1.65734)
(6.4658 0 1.56066)
(4.64156 0 1.42163)
(2.91584 0 1.29136)
(1.27961 0 1.20657)
(-0.310598 0 1.18579)
(-1.91263 0 1.23301)
(-3.58101 0 1.33904)
(-5.34835 0 1.47852)
(-7.20471 0 1.6079)
(-9.08487 0 1.67568)
(-10.8781 0 1.6471)
(-12.4606 0 1.51965)
(-13.7232 0 1.29916)
(-14.6081 0 0.999192)
(-15.1129 0 0.636728)
(-15.2589 0 0.254625)
(-15.0928 0 -0.0937482)
(-14.6678 0 -0.38514)
(-14.0303 0 -0.622751)
(-13.2185 0 -0.817567)
(-12.2656 0 -0.979991)
(-11.1998 0 -1.1181)
(-10.0443 0 -1.23768)
(-8.81713 0 -1.34248)
(-7.53131 0 -1.43445)
(-6.1964 0 -1.51387)
(-4.82037 0 -1.57982)
(-3.4112 0 -1.63071)
(-1.97775 0 -1.66489)
(-0.529927 0 -1.68105)
(1.03337 0 -3.18339)
(2.65239 0 -3.14868)
(4.24961 0 -3.08448)
(5.8119 0 -2.99252)
(7.32618 0 -2.87469)
(8.77916 0 -2.73226)
(10.1569 0 -2.56509)
(11.4447 0 -2.37118)
(12.6264 0 -2.14649)
(13.6855 0 -1.88529)
(14.6051 0 -1.58051)
(15.3694 0 -1.22403)
(15.965 0 -0.807078)
(16.3825 0 -0.320963)
(16.6147 0 0.243244)
(16.6445 0 0.897676)
(16.4165 0 1.65142)
(15.8294 0 2.46339)
(14.7916 0 3.1854)
(13.2654 0 3.65112)
(11.3039 0 3.84854)
(9.05953 0 3.82421)
(6.70927 0 3.65099)
(4.37122 0 3.4363)
(2.08522 0 3.27488)
(-0.163938 0 3.22152)
(-2.41574 0 3.29174)
(-4.70787 0 3.46446)
(-7.04928 0 3.67844)
(-9.38915 0 3.8343)
(-11.5981 0 3.82737)
(-13.4957 0 3.58969)
(-14.942 0 3.07835)
(-15.8999 0 2.32734)
(-16.4178 0 1.51563)
(-16.5929 0 0.774922)
(-16.5221 0 0.133599)
(-16.2526 0 -0.419569)
(-15.7985 0 -0.895872)
(-15.1667 0 -1.30404)
(-14.3676 0 -1.65275)
(-13.4153 0 -1.9507)
(-12.326 0 -2.20585)
(-11.1168 0 -2.42508)
(-9.80442 0 -2.61388)
(-8.40489 0 -2.77596)
(-6.93304 0 -2.91299)
(-5.40283 0 -3.0248)
(-3.82768 0 -3.10999)
(-2.22082 0 -3.16672)
(-0.595582 0 -3.1934)
(1.03458 0 -3.18923)
(2.65619 0 -3.15433)
(4.25581 0 -3.08976)
(5.82015 0 -2.99721)
(7.33596 0 -2.8785)
(8.78973 0 -2.73477)
(10.1673 0 -2.56574)
(11.4534 0 -2.36917)
(12.632 0 -2.14084)
(13.686 0 -1.87486)
(14.5985 0 -1.56402)
(15.3537 0 -1.20011)
(15.9384 0 -0.774377)
(16.3433 0 -0.27822)
(16.5612 0 0.297356)
(16.5725 0 0.964856)
(16.3158 0 1.73095)
(15.6873 0 2.54411)
(14.5996 0 3.24474)
(13.0233 0 3.67932)
(11.0245 0 3.84942)
(8.76359 0 3.8044)
(6.4137 0 3.62181)
(4.08366 0 3.41052)
(1.805 0 3.26124)
(-0.441898 0 3.22377)
(-2.69761 0 3.3093)
(-4.99788 0 3.4923)
(-7.34624 0 3.70645)
(-9.68269 0 3.84929)
(-11.8693 0 3.81968)
(-13.7249 0 3.55345)
(-15.12 0 3.01102)
(-16.0295 0 2.24487)
(-16.5091 0 1.43876)
(-16.6588 0 0.711251)
(-16.5711 0 0.082568)
(-16.2879 0 -0.459621)
(-15.8216 0 -0.926212)
(-15.1792 0 -1.32595)
(-14.3715 0 -1.66761)
(-13.4126 0 -1.95985)
(-12.3187 0 -2.21054)
(-11.1067 0 -2.42641)
(-9.79312 0 -2.61277)
(-8.3936 0 -2.77314)
(-6.92273 0 -2.90899)
(-5.39418 0 -3.01999)
(-3.82117 0 -3.10464)
(-2.21675 0 -3.16103)
(-0.59413 0 -3.18755)
(1.08125 0 -4.86678)
(2.77335 0 -4.81373)
(4.43756 0 -4.7152)
(6.05701 0 -4.57304)
(7.61497 0 -4.3892)
(9.09489 0 -4.16497)
(10.4805 0 -3.9003)
(11.7558 0 -3.59349)
(12.9059 0 -3.2412)
(13.9166 0 -2.83882)
(14.7753 0 -2.38082)
(15.4708 0 -1.86093)
(15.9941 0 -1.27207)
(16.3375 0 -0.605623)
(16.4935 0 0.150698)
(16.4537 0 1.0141)
(16.2095 0 1.9944)
(15.7522 0 3.06805)
(15.0453 0 4.17476)
(13.9663 0 5.20915)
(12.3532 0 5.94847)
(10.2239 0 6.22802)
(7.7441 0 6.17)
(5.11822 0 5.96712)
(2.46231 0 5.78424)
(-0.191258 0 5.72006)
(-2.84457 0 5.80295)
(-5.49732 0 5.99446)
(-8.10784 0 6.18475)
(-10.5443 0 6.2017)
(-12.5988 0 5.85345)
(-14.1212 0 5.04886)
(-15.126 0 3.99024)
(-15.7839 0 2.88096)
(-16.2014 0 1.81602)
(-16.4068 0 0.850913)
(-16.4083 0 0.0028328)
(-16.2146 0 -0.740854)
(-15.8341 0 -1.39671)
(-15.2742 0 -1.97613)
(-14.5427 0 -2.48727)
(-13.6494 0 -2.93698)
(-12.6056 0 -3.33138)
(-11.4246 0 -3.67586)
(-10.1207 0 -3.97483)
(-8.70964 0 -4.23137)
(-7.20745 0 -4.4469)
(-5.63079 0 -4.62119)
(-3.99648 0 -4.75283)
(-2.32149 0 -4.83991)
(-0.622931 0 -4.88073)
(1.08195 0 -4.87435)
(2.77584 0 -4.82094)
(4.44155 0 -4.72166)
(6.06198 0 -4.57834)
(7.62021 0 -4.39283)
(9.09946 0 -4.16628)
(10.4832 0 -3.8985)
(11.7554 0 -3.58761)
(12.9008 0 -3.23014)
(13.9052 0 -2.82135)
(14.756 0 -2.35567)
(15.442 0 -1.82678)
(15.9542 0 -1.2276)
(16.2851 0 -0.549362)
(16.4269 0 0.220652)
(16.3711 0 1.09977)
(16.1094 0 2.09527)
(15.632 0 3.17892)
(14.8955 0 4.28662)
(13.7658 0 5.30312)
(12.0918 0 5.99265)
(9.91522 0 6.22522)
(7.41247 0 6.14259)
(4.78213 0 5.93704)
(2.12775 0 5.76719)
(-0.525015 0 5.72293)
(-3.17966 0 5.82465)
(-5.83328 0 6.02582)
(-8.43574 0 6.20781)
(-10.8422 0 6.19368)
(-12.8444 0 5.79401)
(-14.3056 0 4.947)
(-15.266 0 3.87729)
(-15.8979 0 2.77187)
(-16.2963 0 1.71874)
(-16.4845 0 0.76942)
(-16.4706 0 -0.0633891)
(-16.2631 0 -0.793947)
(-15.8704 0 -1.43844)
(-15.2997 0 -2.00791)
(-14.5592 0 -2.51042)
(-13.6583 0 -2.9528)
(-12.6086 0 -3.34112)
(-11.4232 0 -3.68071)
(-10.1165 0 -3.97587)
(-8.7039 0 -4.22951)
(-7.20127 0 -4.44289)
(-5.62506 0 -4.61563)
(-3.99186 0 -4.74621)
(-2.31845 0 -4.83262)
(-0.621723 0 -4.87312)
(1.09109 0 -6.5988)
(2.797 0 -6.52503)
(4.47049 0 -6.38765)
(6.09212 0 -6.18871)
(7.6429 0 -5.93041)
(9.10447 0 -5.61439)
(10.4594 0 -5.24118)
(11.6915 0 -4.80989)
(12.786 0 -4.31829)
(13.7298 0 -3.76308)
(14.5116 0 -3.14029)
(15.1215 0 -2.44546)
(15.5511 0 -1.67347)
(15.793 0 -0.817811)
(15.8418 0 0.130806)
(15.6963 0 1.18453)
(15.3625 0 2.35126)
(14.8487 0 3.62304)
(14.1516 0 4.97407)
(13.2456 0 6.34062)
(12.0398 0 7.57588)
(10.3476 0 8.4425)
(8.08257 0 8.76178)
(5.44602 0 8.71491)
(2.6474 0 8.57912)
(-0.203592 0 8.52281)
(-3.05001 0 8.59268)
(-5.83132 0 8.72526)
(-8.42416 0 8.7325)
(-10.6081 0 8.33144)
(-12.2094 0 7.38827)
(-13.3557 0 6.11709)
(-14.2216 0 4.74266)
(-14.8845 0 3.39807)
(-15.3649 0 2.13793)
(-15.6636 0 0.985289)
(-15.7719 0 -0.0547074)
(-15.6847 0 -0.991342)
(-15.4043 0 -1.83637)
(-14.9368 0 -2.59842)
(-14.2895 0 -3.28354)
(-13.4713 0 -3.89662)
(-12.4925 0 -4.44197)
(-11.365 0 -4.92342)
(-10.1023 0 -5.34408)
(-8.71967 0 -5.70595)
(-7.23388 0 -6.00968)
(-5.66282 0 -6.25452)
(-4.02524 0 -6.43873)
(-2.34048 0 -6.56017)
(-0.628329 0 -6.61697)
(1.09118 0 -6.6081)
(2.79791 0 -6.53373)
(4.47188 0 -6.39517)
(6.09341 0 -6.19441)
(7.6433 0 -5.93355)
(9.10298 0 -5.61412)
(10.4549 0 -5.23651)
(11.6826 0 -4.79969)
(12.7713 0 -4.30133)
(13.7078 0 -3.73808)
(14.4808 0 -3.10596)
(15.0804 0 -2.40055)
(15.4982 0 -1.61675)
(15.7269 0 -0.74798)
(15.7613 0 0.215271)
(15.6008 0 1.2851)
(15.2523 0 2.46803)
(14.7234 0 3.75394)
(14.009 0 5.11449)
(13.079 0 6.47793)
(11.8311 0 7.6866)
(10.0724 0 8.49448)
(7.75373 0 8.75855)
(5.09168 0 8.69159)
(2.28471 0 8.56309)
(-0.567909 0 8.52561)
(-3.41133 0 8.61255)
(-6.18107 0 8.7466)
(-8.74137 0 8.72399)
(-10.8644 0 8.26107)
(-12.4042 0 7.2673)
(-13.5144 0 5.97694)
(-14.3589 0 4.60385)
(-15.0053 0 3.27045)
(-15.4708 0 2.02518)
(-15.7547 0 0.888945)
(-15.8481 0 -0.135272)
(-15.7467 0 -1.05771)
(-15.4534 0 -1.89001)
(-14.9744 0 -2.6406)
(-14.3172 0 -3.31549)
(-13.4906 0 -3.91959)
(-12.5048 0 -4.45724)
(-11.3718 0 -4.93225)
(-10.105 0 -5.34767)
(-8.71964 0 -5.7054)
(-7.23221 0 -6.00594)
(-5.66045 0 -6.2484)
(-4.02291 0 -6.43093)
(-2.33873 0 -6.55131)
(-0.62745 0 -6.60761)
(1.0711 0 -8.30178)
(2.74434 0 -8.20406)
(4.38206 0 -8.02192)
(5.96311 0 -7.75797)
(7.46713 0 -7.41517)
(8.87483 0 -6.99624)
(10.1683 0 -6.50314)
(11.3314 0 -5.93668)
(12.3499 0 -5.2965)
(13.2114 0 -4.58117)
(13.9057 0 -3.78839)
(14.4239 0 -2.91509)
(14.7589 0 -1.95732)
(14.9051 0 -0.910003)
(14.8591 0 0.233155)
(14.6222 0 1.47824)
(14.2019 0 2.82564)
(13.6092 0 4.26413)
(12.8543 0 5.77314)
(11.942 0 7.32302)
(10.8558 0 8.84759)
(9.5034 0 10.1831)
(7.69375 0 11.0723)
(5.33356 0 11.4093)
(2.63312 0 11.4401)
(-0.201037 0 11.4228)
(-3.02423 0 11.4371)
(-5.68753 0 11.3753)
(-7.97119 0 10.961)
(-9.6964 0 9.98541)
(-10.9944 0 8.60222)
(-12.0474 0 7.06294)
(-12.931 0 5.51258)
(-13.6564 0 4.0088)
(-14.2175 0 2.57902)
(-14.6036 0 1.24284)
(-14.804 0 0.00968126)
(-14.8119 0 -1.12209)
(-14.6274 0 -2.15867)
(-14.254 0 -3.10604)
(-13.698 0 -3.96889)
(-12.9667 0 -4.75088)
(-12.0694 0 -5.45482)
(-11.0169 0 -6.08279)
(-9.82208 0 -6.63597)
(-8.49986 0 -7.1145)
(-7.067 0 -7.51733)
(-5.54196 0 -7.84236)
(-3.94453 0 -8.08683)
(-2.29555 0 -8.24788)
(-0.616534 0 -8.32316)
(1.07055 0 -8.31141)
(2.74362 0 -8.21283)
(4.3808 0 -8.02903)
(5.96072 0 -7.76255)
(7.46281 0 -7.41629)
(8.86759 0 -6.99288)
(10.157 0 -6.49415)
(11.3148 0 -5.92084)
(12.3267 0 -5.27251)
(13.1802 0 -4.54772)
(13.8651 0 -3.74419)
(14.3725 0 -2.85888)
(14.6954 0 -1.88791)
(14.8283 0 -0.826256)
(14.7682 0 0.332309)
(14.5168 0 1.59343)
(14.0823 0 2.9563)
(13.4759 0 4.40824)
(12.7076 0 5.92785)
(11.7807 0 7.48313)
(10.6739 0 9.00012)
(9.28115 0 10.3)
(7.40713 0 11.1251)
(4.99444 0 11.4131)
(2.27076 0 11.4329)
(-0.568847 0 11.4243)
(-3.38231 0 11.4444)
(-6.01575 0 11.3622)
(-8.23901 0 10.8897)
(-9.90513 0 9.85546)
(-11.1693 0 8.44532)
(-12.2043 0 6.90329)
(-13.0738 0 5.36017)
(-13.7858 0 3.86783)
(-14.333 0 2.45213)
(-14.7049 0 1.13173)
(-14.8907 0 -0.08547)
(-14.8846 0 -1.20212)
(-14.687 0 -2.22469)
(-14.3019 0 -3.1592)
(-13.7353 0 -4.01039)
(-12.995 0 -4.78197)
(-12.0899 0 -5.4768)
(-11.0311 0 -6.09696)
(-9.83132 0 -6.64361)
(-8.50531 0 -7.1168)
(-7.06976 0 -7.51539)
(-5.54298 0 -7.83718)
(-3.94458 0 -8.07932)
(-2.29515 0 -8.23888)
(-0.616014 0 -8.31346)
(1.0267 0 -9.95625)
(2.62934 0 -9.833)
(4.19464 0 -9.60327)
(5.70053 0 -9.27041)
(7.12602 0 -8.8385)
(8.4515 0 -8.31168)
(9.65917 0 -7.69366)
(10.7332 0 -6.98722)
(11.6601 0 -6.1941)
(12.4283 0 -5.31491)
(13.0286 0 -4.34923)
(13.4535 0 -3.29572)
(13.6974 0 -2.15218)
(13.7567 0 -0.915784)
(13.6302 0 0.416399)
(13.3208 0 1.8457)
(12.8362 0 3.36824)
(12.1869 0 4.97168)
(11.3847 0 6.63538)
(10.4409 0 8.33003)
(9.36256 0 10.0122)
(8.13382 0 11.6035)
(6.65393 0 12.9312)
(4.74709 0 13.7696)
(2.39199 0 14.1181)
(-0.181375 0 14.1891)
(-2.73741 0 14.0818)
(-5.03605 0 13.6664)
(-6.86804 0 12.7412)
(-8.2968 0 11.3536)
(-9.49632 0 9.7362)
(-10.5506 0 8.04408)
(-11.4692 0 6.34715)
(-12.2438 0 4.68626)
(-12.8628 0 3.08917)
(-13.3147 0 1.57546)
(-13.589 0 0.156193)
(-13.679 0 -1.16566)
(-13.5823 0 -2.3917)
(-13.3008 0 -3.52471)
(-12.8385 0 -4.56725)
(-12.2014 0 -5.52118)
(-11.3975 0 -6.38754)
(-10.4366 0 -7.16645)
(-9.33076 0 -7.85698)
(-8.09419 0 -8.45716)
(-6.74339 0 -8.96397)
(-5.29683 0 -9.37362)
(-3.77468 0 -9.68197)
(-2.19847 0 -9.88514)
(-0.590705 0 -9.98012)
(1.02555 0 -9.96529)
(2.62707 0 -9.84092)
(4.19088 0 -9.60905)
(5.69473 0 -9.27299)
(7.11739 0 -8.83674)
(8.43913 0 -8.3044)
(9.64199 0 -7.67959)
(10.7101 0 -6.96505)
(11.6297 0 -6.16249)
(12.3895 0 -5.27252)
(12.9802 0 -4.29477)
(13.3943 0 -3.228)
(13.6262 0 -2.07011)
(13.6726 0 -0.818439)
(13.5325 0 0.529657)
(13.2094 0 1.97495)
(12.7113 0 3.5126)
(12.0491 0 5.12912)
(11.2346 0 6.80289)
(10.2788 0 8.50319)
(9.18788 0 10.1843)
(7.93977 0 11.7603)
(6.42019 0 13.0443)
(4.45567 0 13.8223)
(2.06169 0 14.132)
(-0.521097 0 14.1875)
(-3.06035 0 14.0605)
(-5.31179 0 13.598)
(-7.08854 0 12.6132)
(-8.48401 0 11.1903)
(-9.66718 0 9.56263)
(-10.7093 0 7.87169)
(-11.6159 0 6.18176)
(-12.378 0 4.53183)
(-12.9839 0 2.94845)
(-13.4222 0 1.4502)
(-13.6827 0 0.0469743)
(-13.7591 0 -1.25913)
(-13.6498 0 -2.47016)
(-13.3565 0 -3.58912)
(-12.8836 0 -4.61871)
(-12.2371 0 -5.56092)
(-11.4251 0 -6.41686)
(-10.4573 0 -7.18667)
(-9.34571 0 -7.86943)
(-8.10457 0 -8.46314)
(-6.75024 0 -8.96471)
(-5.30104 0 -9.37028)
(-3.77697 0 -9.67566)
(-2.19938 0 -9.87691)
(-0.590539 0 -9.97098)
(0.96252 0 -11.5225)
(2.46382 0 -11.3728)
(3.9271 0 -11.094)
(5.33002 0 -10.6902)
(6.65154 0 -10.1671)
(7.87229 0 -9.53034)
(8.97492 0 -8.78581)
(9.94435 0 -7.93851)
(10.7679 0 -6.99247)
(11.4353 0 -5.95055)
(11.9384 0 -4.81441)
(12.2713 0 -3.58467)
(12.4301 0 -2.26114)
(12.413 0 -0.843371)
(12.2209 0 0.668462)
(11.8579 0 2.27182)
(11.3318 0 3.95924)
(10.6529 0 5.71639)
(9.83312 0 7.52193)
(8.88513 0 9.34749)
(7.8207 0 11.1556)
(6.64797 0 12.8917)
(5.34629 0 14.4556)
(3.81479 0 15.6654)
(1.9509 0 16.3606)
(-0.14627 0 16.5524)
(-2.22329 0 16.2828)
(-4.03643 0 15.5008)
(-5.52325 0 14.2188)
(-6.79906 0 12.6141)
(-7.95276 0 10.8571)
(-8.99679 0 9.03832)
(-9.922 0 7.20828)
(-10.7163 0 5.40295)
(-11.3671 0 3.64958)
(-11.8626 0 1.9686)
(-12.1929 0 0.373362)
(-12.3506 0 -1.12939)
(-12.3322 0 -2.53745)
(-12.1374 0 -3.85061)
(-11.7685 0 -5.06909)
(-11.2297 0 -6.19274)
(-10.5276 0 -7.22056)
(-9.67075 0 -8.1505)
(-8.67015 0 -8.97936)
(-7.53916 0 -9.70281)
(-6.29359 0 -10.3156)
(-4.95147 0 -10.812)
(-3.53281 0 -11.186)
(-2.05923 0 -11.4327)
(-0.553518 0 -11.548)
(0.960846 0 -11.53)
(2.46019 0 -11.379)
(3.92116 0 -11.0975)
(5.32126 0 -10.6899)
(6.63924 0 -10.1616)
(7.85561 0 -9.51843)
(8.9529 0 -8.76606)
(9.91595 0 -7.90953)
(10.732 0 -6.9529)
(11.3909 0 -5.89904)
(11.8844 0 -4.74971)
(12.2067 0 -3.50564)
(12.354 0 -2.16685)
(12.3248 0 -0.733114)
(12.1201 0 0.794962)
(11.7444 0 2.41422)
(11.2059 0 4.11633)
(10.5151 0 5.88597)
(9.68425 0 7.70097)
(8.72584 0 9.5319)
(7.6515 0 11.3401)
(6.46834 0 13.0675)
(5.14804 0 14.6056)
(3.58115 0 15.7649)
(1.67947 0 16.4029)
(-0.429168 0 16.5461)
(-2.48623 0 16.2257)
(-4.25895 0 15.3858)
(-5.71483 0 14.0594)
(-6.97541 0 12.4346)
(-8.11916 0 10.6718)
(-9.15318 0 8.85467)
(-10.0678 0 7.03119)
(-10.8507 0 5.23618)
(-11.4895 0 3.49598)
(-11.9725 0 1.83009)
(-12.29 0 0.250895)
(-12.4351 0 -1.23567)
(-12.4046 0 -2.62797)
(-12.1985 0 -3.92611)
(-11.8192 0 -5.13057)
(-11.2711 0 -6.24136)
(-10.5606 0 -7.25759)
(-9.69659 0 -8.17728)
(-8.68983 0 -8.99726)
(-7.55371 0 -9.7132)
(-6.30395 0 -10.3198)
(-4.95845 0 -10.8113)
(-3.53709 0 -11.1818)
(-2.06131 0 -11.4261)
(-0.553677 0 -11.5404)
(0.882333 0 -12.9737)
(2.25748 0 -12.7976)
(3.59491 0 -12.4695)
(4.87261 0 -11.9948)
(6.07001 0 -11.3807)
(7.16838 0 -10.635)
(8.15123 0 -9.76568)
(9.00451 0 -8.78015)
(9.71669 0 -7.68495)
(10.2788 0 -6.48533)
(10.6842 0 -5.18523)
(10.9285 0 -3.78744)
(11.0097 0 -2.29394)
(10.9279 0 -0.706638)
(10.6857 0 0.971505)
(10.2883 0 2.73486)
(9.74416 0 4.5731)
(9.06383 0 6.4699)
(8.25957 0 8.40254)
(7.34509 0 10.3418)
(6.33489 0 12.2514)
(5.24412 0 14.084)
(4.08501 0 15.7643)
(2.83467 0 17.1555)
(1.433 0 18.0636)
(-0.104504 0 18.3442)
(-1.62871 0 17.9572)
(-3.00452 0 16.958)
(-4.23617 0 15.5053)
(-5.38303 0 13.7891)
(-6.46018 0 11.9352)
(-7.4537 0 10.0126)
(-8.34859 0 8.06611)
(-9.13039 0 6.13096)
(-9.78558 0 4.23537)
(-10.3021 0 2.40124)
(-10.6696 0 0.644095)
(-10.8804 0 -1.02637)
(-10.9294 0 -2.60487)
(-10.8146 0 -4.08843)
(-10.5363 0 -5.47493)
(-10.0972 0 -6.76201)
(-9.50202 0 -7.94644)
(-8.75803 0 -9.02383)
(-7.87489 0 -9.98852)
(-6.86482 0 -10.8337)
(-5.74263 0 -11.5516)
(-4.52554 0 -12.1344)
(-3.23294 0 -12.5742)
(-1.88598 0 -12.8644)
(-0.507166 0 -13.0002)
(0.880236 0 -12.979)
(2.25273 0 -12.8012)
(3.58721 0 -12.4701)
(4.86147 0 -11.9911)
(6.0548 0 -11.3711)
(7.14836 0 -10.618)
(8.12556 0 -9.73988)
(8.97228 0 -8.74415)
(9.67699 0 -7.63735)
(10.2307 0 -6.42482)
(10.6268 0 -5.1106)
(10.8612 0 -3.69765)
(10.9318 0 -2.1882)
(10.8388 0 -0.584481)
(10.5852 0 1.11007)
(10.1766 0 2.88916)
(9.62156 0 4.74164)
(8.93096 0 6.65029)
(8.11725 0 8.59156)
(7.1943 0 10.5354)
(6.17667 0 12.4445)
(5.07972 0 14.2697)
(3.91381 0 15.9303)
(2.64951 0 17.2806)
(1.22821 0 18.126)
(-0.317067 0 18.3342)
(-1.82843 0 17.8763)
(-3.18489 0 16.8193)
(-4.40501 0 15.3322)
(-5.54575 0 13.6003)
(-6.61638 0 11.7412)
(-7.60218 0 9.8196)
(-8.48831 0 7.87878)
(-9.26041 0 5.95318)
(-9.90512 0 4.07015)
(-10.4106 0 2.25072)
(-10.7668 0 0.50952)
(-10.9661 0 -1.14452)
(-11.0041 0 -2.70671)
(-10.8787 0 -4.17454)
(-10.5906 0 -5.54616)
(-10.1423 0 -6.81943)
(-9.53898 0 -7.99129)
(-8.78771 0 -9.05743)
(-7.8982 0 -10.0123)
(-6.88265 0 -10.849)
(-5.75581 0 -11.5599)
(-4.5348 0 -12.1371)
(-3.23887 0 -12.5728)
(-1.88904 0 -12.8603)
(-0.507607 0 -12.9948)
(0.789228 0 -14.2876)
(2.01823 0 -14.0855)
(3.21072 0 -13.7092)
(4.3455 0 -13.1654)
(5.40294 0 -12.4629)
(6.36537 0 -11.6116)
(7.21748 0 -10.622)
(7.94649 0 -9.504)
(8.54228 0 -8.26676)
(8.99733 0 -6.91804)
(9.30666 0 -5.4642)
(9.46763 0 -3.9103)
(9.47992 0 -2.26059)
(9.34547 0 -0.519328)
(9.06852 0 1.30806)
(8.65585 0 3.21329)
(8.11665 0 5.18366)
(7.46226 0 7.20084)
(6.70588 0 9.24039)
(5.86264 0 11.2714)
(4.94975 0 13.2558)
(3.98714 0 15.1455)
(2.9986 0 16.8714)
(2.00018 0 18.3144)
(0.980756 0 19.2879)
(-0.0679536 0 19.5989)
(-1.11329 0 19.1719)
(-2.12764 0 18.107)
(-3.12342 0 16.6041)
(-4.10794 0 14.841)
(-5.06228 0 12.9268)
(-5.96303 0 10.9261)
(-6.79075 0 8.88473)
(-7.52853 0 6.8398)
(-8.16152 0 4.82123)
(-8.67679 0 2.85264)
(-9.06329 0 0.951611)
(-9.3122 0 -0.869676)
(-9.41717 0 -2.60327)
(-9.37435 0 -4.24372)
(-9.18228 0 -5.78655)
(-8.84175 0 -7.22708)
(-8.35593 0 -8.55974)
(-7.73043 0 -9.77767)
(-6.97342 0 -10.8726)
(-6.09577 0 -11.8351)
(-5.11098 0 -12.6549)
(-4.0351 0 -13.3217)
(-2.88649 0 -13.8257)
(-1.68537 0 -14.1585)
(-0.453433 0 -14.3143)
(0.786822 0 -14.29)
(2.01265 0 -14.086)
(3.20169 0 -13.7064)
(4.33262 0 -13.1576)
(5.38566 0 -12.4486)
(6.34305 0 -11.5892)
(7.1894 0 -10.59)
(7.91191 0 -9.461)
(8.50045 0 -8.21134)
(8.94754 0 -6.84892)
(9.24825 0 -5.38025)
(9.40007 0 -3.8106)
(9.40279 0 -2.14451)
(9.25855 0 -0.386593)
(8.97182 0 1.45717)
(8.54962 0 3.37784)
(8.00144 0 5.36188)
(7.33883 0 7.39014)
(6.57524 0 9.43731)
(5.72606 0 11.4716)
(4.80879 0 13.4541)
(3.84386 0 15.335)
(2.85525 0 17.0414)
(1.85635 0 18.4463)
(0.833608 0 19.3568)
(-0.216945 0 19.5876)
(-1.25936 0 19.0835)
(-2.27102 0 17.9624)
(-3.26683 0 16.4272)
(-4.25074 0 14.648)
(-5.20214 0 12.7272)
(-6.09806 0 10.726)
(-6.91946 0 8.6892)
(-7.64971 0 6.65287)
(-8.27422 0 4.64611)
(-8.7803 0 2.69171)
(-9.15714 0 0.806399)
(-9.39618 0 -0.998416)
(-9.49135 0 -2.71542)
(-9.439 0 -4.33965)
(-9.23785 0 -5.86697)
(-8.88882 0 -7.29296)
(-8.39516 0 -8.61226)
(-7.76255 0 -9.81811)
(-6.99918 0 -10.9024)
(-6.11591 0 -11.8556)
(-5.12621 0 -12.6677)
(-4.04606 0 -13.3283)
(-2.89368 0 -13.8277)
(-1.68919 0 -14.1575)
(-0.454103 0 -14.3118)
(0.685692 0 -15.4461)
(1.75243 0 -15.2191)
(2.78468 0 -14.7968)
(3.76255 0 -14.1871)
(4.66774 0 -13.4007)
(5.484 0 -12.4496)
(6.19749 0 -11.3468)
(6.79696 0 -10.105)
(7.27388 0 -8.73582)
(7.62232 0 -7.24973)
(7.83898 0 -5.65555)
(7.92294 0 -3.96073)
(7.87565 0 -2.1718)
(7.70076 0 -0.295274)
(7.40421 0 1.66109)
(6.99414 0 3.68669)
(6.48094 0 5.76662)
(5.87698 0 7.88056)
(5.19662 0 10.002)
(4.45644 0 12.0977)
(3.67576 0 14.1265)
(2.87745 0 16.0367)
(2.08911 0 17.7574)
(1.33822 0 19.1779)
(0.63409 0 20.1303)
(-0.0408661 0 20.4343)
(-0.71815 0 20.0163)
(-1.42822 0 18.9735)
(-2.18508 0 17.4911)
(-2.97545 0 15.729)
(-3.77086 0 13.79)
(-4.54436 0 11.7409)
(-5.27367 0 9.63147)
(-5.93991 0 7.50161)
(-6.52683 0 5.38357)
(-7.02037 0 3.30298)
(-7.40844 0 1.27948)
(-7.68099 0 -0.672538)
(-7.83021 0 -2.54274)
(-7.85061 0 -4.32335)
(-7.73892 0 -6.00756)
(-7.4942 0 -7.58837)
(-7.11788 0 -9.05779)
(-6.6139 0 -10.4064)
(-5.98881 0 -11.6232)
(-5.25189 0 -12.6962)
(-4.41511 0 -13.6124)
(-3.49305 0 -14.3589)
(-2.50264 0 -14.924)
(-1.46275 0 -15.2976)
(-0.393752 0 -15.4725)
(0.683096 0 -15.4451)
(1.74631 0 -15.2162)
(2.77482 0 -14.7901)
(3.7486 0 -14.1751)
(4.64924 0 -13.3815)
(5.46043 0 -12.4218)
(6.16827 0 -11.3088)
(6.76151 0 -10.0552)
(7.23162 0 -8.67301)
(7.57274 0 -7.17264)
(7.78163 0 -5.56316)
(7.85752 0 -3.85222)
(7.80198 0 -2.04671)
(7.61888 0 -0.153541)
(7.31433 0 1.81896)
(6.89676 0 3.8595)
(6.37677 0 5.95236)
(5.76699 0 8.07637)
(5.08205 0 10.2042)
(4.33883 0 12.3016)
(3.55707 0 14.3264)
(2.76017 0 16.2253)
(1.97628 0 17.9242)
(1.23186 0 19.3061)
(0.53302 0 20.1973)
(-0.140365 0 20.4234)
(-0.820332 0 19.9304)
(-1.53632 0 18.8327)
(-2.29937 0 17.3169)
(-3.09335 0 15.5363)
(-3.88942 0 13.5882)
(-4.66125 0 11.5367)
(-5.38707 0 9.4303)
(-6.04834 0 7.30784)
(-6.62913 0 5.20068)
(-7.11563 0 3.1336)
(-7.496 0 1.12538)
(-7.76043 0 -0.810352)
(-7.90136 0 -2.66392)
(-7.91348 0 -4.42806)
(-7.79374 0 -6.09637)
(-7.54131 0 -7.66214)
(-7.15774 0 -9.11758)
(-6.64704 0 -10.4534)
(-6.01581 0 -11.6589)
(-5.27335 0 -12.722)
(-4.43161 0 -13.6298)
(-3.5051 0 -14.3697)
(-2.51066 0 -14.9297)
(-1.46708 0 -15.3)
(-0.394593 0 -15.4733)
(0.573707 0 -16.4347)
(1.46517 0 -16.1845)
(2.32494 0 -15.7193)
(3.13485 0 -15.0485)
(3.87833 0 -14.1844)
(4.54087 0 -13.1414)
(5.11038 0 -11.935)
(5.57733 0 -10.5804)
(5.93488 0 -9.09213)
(6.17881 0 -7.48316)
(6.30746 0 -5.76483)
(6.32162 0 -3.94698)
(6.22437 0 -2.03844)
(6.02099 0 -0.0479101)
(5.71892 0 2.01466)
(5.32767 0 4.13654)
(4.85872 0 6.30079)
(4.32544 0 8.48511)
(3.74314 0 10.6609)
(3.1293 0 12.7922)
(2.50402 0 14.8349)
(1.89051 0 16.7332)
(1.31526 0 18.4142)
(0.804013 0 19.7738)
(0.366629 0 20.6683)
(-0.0210126 0 20.9505)
(-0.412981 0 20.5611)
(-0.86045 0 19.5785)
(-1.38185 0 18.1545)
(-1.96352 0 16.4276)
(-2.57887 0 14.4958)
(-3.20181 0 12.4288)
(-3.80961 0 10.2802)
(-4.38256 0 8.09292)
(-4.90351 0 5.90167)
(-5.35745 0 3.73423)
(-5.73127 0 1.61221)
(-6.01376 0 -0.447921)
(-6.19575 0 -2.43367)
(-6.27018 0 -4.33503)
(-6.23217 0 -6.14297)
(-6.07908 0 -7.84813)
(-5.81067 0 -9.44006)
(-5.42918 0 -10.9068)
(-4.93946 0 -12.2347)
(-4.34906 0 -13.4088)
(-3.66821 0 -14.4138)
(-2.9097 0 -15.2342)
(-2.08871 0 -15.856)
(-1.22235 0 -16.2675)
(-0.329266 0 -16.4602)
(0.571043 0 -16.4301)
(1.45882 0 -16.1778)
(2.31473 0 -15.7087)
(3.1205 0 -15.0321)
(3.85947 0 -14.1604)
(4.51711 0 -13.1083)
(5.08126 0 -11.8911)
(5.54244 0 -10.5244)
(5.89381 0 -9.02258)
(6.13125 0 -7.39895)
(6.25319 0 -5.66505)
(6.26054 0 -3.83097)
(6.15655 0 -1.90588)
(5.94669 0 0.101034)
(5.6386 0 2.17927)
(5.24201 0 4.31538)
(4.76865 0 6.49162)
(4.23213 0 8.68481)
(3.648 0 10.8654)
(3.03407 0 12.9966)
(2.41081 0 15.0329)
(1.80186 0 16.9172)
(1.23404 0 18.5736)
(0.73229 0 19.8937)
(0.303225 0 20.73)
(-0.081695 0 20.9405)
(-0.47825 0 20.4818)
(-0.934796 0 19.446)
(-1.46534 0 17.9871)
(-2.05365 0 16.2388)
(-2.67282 0 14.2952)
(-3.29717 0 12.2236)
(-3.90436 0 10.0762)
(-4.47506 0 7.89489)
(-4.9924 0 5.71338)
(-5.44163 0 3.55856)
(-5.80987 0 1.45118)
(-6.08616 0 -0.593079)
(-6.26154 0 -2.56238)
(-6.32914 0 -4.44729)
(-6.28428 0 -6.23916)
(-6.12447 0 -7.92898)
(-5.84959 0 -9.50655)
(-5.46198 0 -10.9601)
(-4.96655 0 -12.2761)
(-4.37087 0 -13.4399)
(-3.68517 0 -14.436)
(-2.92223 0 -15.2493)
(-2.09715 0 -15.8657)
(-1.22697 0 -16.2736)
(-0.330218 0 -16.4646)
(0.454861 0 -17.2416)
(1.16052 0 -16.9704)
(1.83801 0 -16.4665)
(2.47127 0 -15.7405)
(3.04584 0 -14.8067)
(3.54925 0 -13.6817)
(3.97138 0 -12.3833)
(4.30458 0 -10.9295)
(4.5438 0 -9.33731)
(4.68653 0 -7.62233)
(4.73273 0 -5.79838)
(4.68472 0 -3.87765)
(4.54708 0 -1.87119)
(4.32652 0 0.210162)
(4.03173 0 2.35441)
(3.67333 0 4.54689)
(3.26367 0 6.76884)
(2.81677 0 8.99613)
(2.34831 0 11.1982)
(1.87574 0 13.3369)
(1.41845 0 15.3656)
(0.997662 0 17.2263)
(0.635501 0 18.8459)
(0.350746 0 20.1287)
(0.146519 0 20.9554)
(-0.00546133 0 21.2125)
(-0.162006 0 20.8561)
(-0.377123 0 19.9446)
(-0.673767 0 18.596)
(-1.04529 0 16.9267)
(-1.47181 0 15.0285)
(-1.93116 0 12.9717)
(-2.40233 0 10.8122)
(-2.86622 0 8.59551)
(-3.30563 0 6.35845)
(-3.7051 0 4.13073)
(-4.05086 0 1.93579)
(-4.33079 0 -0.208063)
(-4.53458 0 -2.28633)
(-4.65384 0 -4.28695)
(-4.68226 0 -6.19867)
(-4.6157 0 -8.00988)
(-4.45234 0 -9.7077)
(-4.19274 0 -11.2776)
(-3.84004 0 -12.7034)
(-3.39995 0 -13.9675)
(-2.88075 0 -15.0517)
(-2.29326 0 -15.9385)
(-1.65054 0 -16.6114)
(-0.967591 0 -17.057)
(-0.260886 0 -17.2659)
(0.452245 0 -17.2333)
(1.15423 0 -16.9599)
(1.8279 0 -16.4519)
(2.45715 0 -15.7198)
(3.02743 0 -14.7782)
(3.52627 0 -13.6436)
(3.94353 0 -12.3341)
(4.27158 0 -10.8678)
(4.50544 0 -9.26183)
(4.64267 0 -7.53203)
(4.68334 0 -5.69246)
(4.62994 0 -3.7556)
(4.4872 0 -1.73287)
(4.26199 0 0.364399)
(3.96324 0 2.52363)
(3.60176 0 4.72943)
(3.19011 0 6.96224)
(2.74253 0 9.19702)
(2.27492 0 11.4023)
(1.80499 0 13.5389)
(1.35238 0 15.5589)
(0.938519 0 17.403)
(0.585526 0 18.9959)
(0.311189 0 20.2389)
(0.115649 0 21.011)
(-0.0335301 0 21.2035)
(-0.194813 0 20.7843)
(-0.419494 0 19.8221)
(-0.726416 0 18.4375)
(-1.10654 0 16.7444)
(-1.53936 0 14.8319)
(-2.0028 0 12.7683)
(-2.47609 0 10.6082)
(-2.94039 0 8.39587)
(-3.37872 0 6.16724)
(-3.77586 0 3.95106)
(-4.11825 0 1.7699)
(-4.39398 0 -0.358702)
(-4.59294 0 -2.42095)
(-4.70696 0 -4.40533)
(-4.72989 0 -6.30106)
(-4.65776 0 -8.09684)
(-4.48887 0 -9.78009)
(-4.22392 0 -11.3365)
(-3.86609 0 -12.7501)
(-3.42116 0 -14.0034)
(-2.89743 0 -15.0785)
(-2.30569 0 -15.9578)
(-1.65899 0 -16.625)
(-0.97226 0 -17.0669)
(-0.261893 0 -17.274)
(0.330445 0 -17.8572)
(0.841789 0 -17.5677)
(1.32915 0 -17.0301)
(1.77898 0 -16.2563)
(2.17925 0 -15.2624)
(2.51981 0 -14.067)
(2.79269 0 -12.6903)
(2.99227 0 -11.1528)
(3.11532 0 -9.47409)
(3.16099 0 -7.67209)
(3.13076 0 -5.76303)
(3.02833 0 -3.76135)
(2.85954 0 -1.68024)
(2.6322 0 0.467448)
(2.35599 0 2.66785)
(2.04224 0 4.9046)
(1.70377 0 7.15736)
(1.3547 0 9.40051)
(1.0104 0 11.602)
(0.687344 0 13.7222)
(0.402911 0 15.7132)
(0.174762 0 17.5168)
(0.0191776 0 19.0622)
(-0.0532394 0 20.2637)
(-0.0469542 0 21.024)
(0.00772928 0 21.2575)
(0.0582087 0 20.9325)
(0.0540565 0 20.0913)
(-0.0307705 0 18.8238)
(-0.19763 0 17.2262)
(-0.434561 0 15.3819)
(-0.724861 0 13.3595)
(-1.05082 0 11.2153)
(-1.39514 0 8.99624)
(-1.74148 0 6.74056)
(-2.07463 0 4.47946)
(-2.38064 0 2.2379)
(-2.64688 0 0.0357941)
(-2.86227 0 -2.11063)
(-3.01742 0 -4.18736)
(-3.10487 0 -6.18111)
(-3.11919 0 -8.07806)
(-3.05711 0 -9.86303)
(-2.91767 0 -11.5191)
(-2.70226 0 -13.0275)
(-2.41469 0 -14.3682)
(-2.0612 0 -15.5205)
(-1.65035 0 -16.4645)
(-1.19284 0 -17.1817)
(-0.701207 0 -17.6572)
(-0.189349 0 -17.8801)
(0.327984 0 -17.8453)
(0.835821 0 -17.5535)
(1.31958 0 -17.0116)
(1.76568 0 -16.2316)
(2.16204 0 -15.2296)