/*--------------------------------*- C++ -*----------------------------------*\
| =========                 |                                                 |
| \\      /  F ield         | OpenFOAM: The Open Source CFD Toolbox           |
|  \\    /   O peration     | Version:  2.3.0                                 |
|   \\  /    A nd           | Web:      www.OpenFOAM.org                      |
|    \\/     M anipulation  |                                                 |
\*---------------------------------------------------------------------------*/
FoamFile
{
    version     2.0;
    format      ascii;
    class       volVectorField;
    location    "17000";
    object      U;
}
// * * * * * * * * * * * * * * * * * * * * * * * * * * * * * * * * * * * * * //

dimensions      [0 1 -1 0 0 0 0];

internalField   nonuniform List<vector> 
765
(
(46.1654 0 0.55921)
(46.2904 0 -0.0237979)
(47.6901 0 -0.799751)
(50.5433 0 -1.66161)
(54.6199 0 -2.32101)
(58.9187 0 -2.28042)
(61.3791 0 -0.934934)
(58.9208 0 2.04151)
(48.0092 0 6.49838)
(25.9311 0 11.2962)
(-5.48735 0 13.3072)
(-34.8157 0 9.80418)
(-52.9602 0 4.88053)
(-60.6682 0 0.849148)
(-61.0711 0 -1.55405)
(-57.6785 0 -2.42241)
(-53.2466 0 -2.16106)
(-49.4982 0 -1.382)
(-47.1263 0 -0.521767)
(-46.1843 0 0.19698)
(-46.4184 0 0.716954)
(-47.4925 0 1.07185)
(-49.1275 0 1.35373)
(-51.1767 0 1.64811)
(-53.5982 0 2.03532)
(-56.44 0 2.60644)
(-59.842 0 3.47373)
(-64.0286 0 4.72566)
(-69.1582 0 6.25053)
(-75.0449 0 7.29094)
(-79.7421 0 5.63277)
(-78.1389 0 -0.620436)
(-67.882 0 -9.48315)
(-50.9472 0 -18.3793)
(-29.2097 0 -24.596)
(-7.0338 0 -25.7111)
(15.1975 0 -25.5422)
(37.3431 0 -22.9754)
(57.961 0 -15.1508)
(72.592 0 -6.12904)
(79.7934 0 2.31556)
(78.2535 0 6.74845)
(72.7249 0 7.02458)
(67.0809 0 5.64173)
(62.3384 0 4.19082)
(58.4886 0 3.09638)
(55.3244 0 2.35939)
(52.6514 0 1.87211)
(50.3669 0 1.53148)
(48.4545 0 1.25425)
(46.9891 0 0.959856)
(81.2317 0 0.0923223)
(82.9251 0 -1.62577)
(85.7179 0 -3.67673)
(89.5345 0 -5.60018)
(93.8159 0 -6.47898)
(97.2171 0 -4.8937)
(97.3344 0 0.788627)
(90.4842 0 11.8265)
(72.1957 0 27.9445)
(38.7077 0 45.141)
(-8.20312 0 52.1413)
(-51.9843 0 39.8402)
(-80.0523 0 22.125)
(-94.0235 0 7.48329)
(-98.0264 0 -1.70105)
(-96.4135 0 -5.85742)
(-92.4836 0 -6.41561)
(-88.2384 0 -5.03526)
(-84.7221 0 -2.98123)
(-82.2972 0 -1.00241)
(-80.9333 0 0.564829)
(-80.4082 0 1.65055)
(-80.419 0 2.36516)
(-80.6417 0 2.85215)
(-80.7677 0 3.2294)
(-80.4799 0 3.58217)
(-79.4211 0 3.96006)
(-77.1662 0 4.28866)
(-73.1706 0 4.14208)
(-66.9836 0 2.23633)
(-57.8292 0 -4.14293)
(-45.6255 0 -15.0398)
(-32.3362 0 -22.2275)
(-21.0939 0 -24.2862)
(-12.0225 0 -25.9885)
(-3.0182 0 -26.8624)
(6.17631 0 -26.6758)
(15.1662 0 -25.4443)
(24.6986 0 -23.7446)
(37.1215 0 -20.7394)
(50.4494 0 -10.5741)
(61.6161 0 -1.05967)
(69.6158 0 3.257)
(74.9308 0 4.26862)
(78.2076 0 4.16326)
(79.9532 0 3.80565)
(80.6699 0 3.44783)
(80.753 0 3.10029)
(80.5411 0 2.70005)
(80.3417 0 2.15425)
(80.4652 0 1.33322)
(85.5403 0 -1.93351)
(87.9574 0 -4.42362)
(90.8129 0 -7.18126)
(93.8653 0 -9.39535)
(96.5153 0 -9.57482)
(97.6186 0 -5.47017)
(95.2679 0 5.63564)
(86.6387 0 26.1112)
(68.0961 0 55.8377)
(36.281 0 87.751)
(-7.66874 0 100.545)
(-48.7275 0 77.9181)
(-75.7708 0 45.0691)
(-90.5712 0 18.0863)
(-96.6766 0 0.889235)
(-97.5798 0 -7.56126)
(-95.7844 0 -9.91446)
(-92.8963 0 -8.81982)
(-89.8563 0 -6.28363)
(-87.1245 0 -3.5482)
(-84.8552 0 -1.23835)
(-83.0203 0 0.414004)
(-81.4584 0 1.39263)
(-79.8974 0 1.77732)
(-77.979 0 1.64054)
(-75.2646 0 1.01484)
(-71.2374 0 -0.0947921)
(-65.3507 0 -1.71972)
(-57.2408 0 -4.02026)
(-47.2607 0 -7.53554)
(-36.048 0 -13.5326)
(-28.5325 0 -22.4005)
(-22.5531 0 -29.4579)
(-16.1922 0 -33.2097)
(-9.31188 0 -35.1023)
(-2.31454 0 -35.8893)
(4.73678 0 -35.7316)
(11.7166 0 -34.5983)
(18.4429 0 -32.1904)
(24.6254 0 -27.421)
(30.5611 0 -18.9354)
(40.2473 0 -11.0088)
(51.2323 0 -6.08561)
(60.5901 0 -3.09405)
(67.843 0 -1.0563)
(72.9546 0 0.383593)
(76.4089 0 1.32114)
(78.7514 0 1.77334)
(80.47 0 1.73084)
(81.9724 0 1.15015)
(83.585 0 -0.0508903)
(76.595 0 -4.18529)
(78.5753 0 -6.83017)
(80.4283 0 -9.54557)
(81.8519 0 -11.2911)
(82.3307 0 -10.2363)
(81.0383 0 -3.63911)
(76.7316 0 11.8816)
(67.7139 0 39.388)
(51.8342 0 79.048)
(27.094 0 121.72)
(-5.63512 0 138.649)
(-36.4635 0 108.592)
(-58.0711 0 64.6714)
(-71.418 0 28.6581)
(-78.6319 0 5.37354)
(-81.7706 0 -6.74643)
(-82.3602 0 -11.1032)
(-81.49 0 -10.9426)
(-79.8731 0 -8.70329)
(-77.9453 0 -5.92463)
(-75.9533 0 -3.43541)
(-74.0024 0 -1.61203)
(-72.0829 0 -0.598083)
(-70.0621 0 -0.437224)
(-67.6795 0 -1.17132)
(-64.5519 0 -2.86129)
(-60.1928 0 -5.54423)
(-54.0928 0 -9.13421)
(-45.9728 0 -13.3452)
(-36.4588 0 -17.7657)
(-26.2478 0 -22.4217)
(-20.3889 0 -28.3214)
(-16.2108 0 -34.373)
(-11.8597 0 -38.3307)
(-6.96951 0 -40.8132)
(-1.7543 0 -41.9601)
(3.56026 0 -41.7134)
(8.67368 0 -40.0883)
(13.3619 0 -37.1346)
(17.5522 0 -32.4978)
(21.8699 0 -26.166)
(29.9865 0 -20.7243)
(40.1297 0 -16.1821)
(49.2485 0 -11.7455)
(56.605 0 -7.69053)
(61.9856 0 -4.40188)
(65.8091 0 -2.08047)
(68.5917 0 -0.747168)
(70.7855 0 -0.343426)
(72.7289 0 -0.810513)
(74.6364 0 -2.11162)
(60.9571 0 -5.79521)
(61.8102 0 -8.17543)
(62.1488 0 -10.3808)
(61.7037 0 -11.242)
(60.117 0 -8.75595)
(56.9122 0 0.0581237)
(51.4849 0 18.8582)
(43.191 0 50.9323)
(31.343 0 96.4434)
(15.6145 0 144.941)
(-3.08963 0 163.912)
(-21.1438 0 130.123)
(-35.6469 0 80.0382)
(-46.2878 0 38.5399)
(-53.5812 0 11.1376)
(-58.2226 0 -3.87945)
(-60.8405 0 -10.1697)
(-62.0038 0 -11.2412)
(-62.1512 0 -9.74835)
(-61.611 0 -7.38673)
(-60.6284 0 -5.10683)
(-59.3719 0 -3.39276)
(-57.931 0 -2.49544)
(-56.298 0 -2.58335)
(-54.3457 0 -3.83002)
(-51.8118 0 -6.42474)
(-48.3116 0 -10.4861)
(-43.4039 0 -15.8481)
(-36.7691 0 -21.7929)
(-28.8928 0 -26.9202)
(-20.2562 0 -29.8826)
(-14.3009 0 -32.9752)
(-11.0496 0 -38.2217)
(-8.01384 0 -42.3268)
(-4.70772 0 -45.096)
(-1.19498 0 -46.3987)
(2.39449 0 -46.1128)
(5.83918 0 -44.2707)
(9.02382 0 -41.004)
(12.0923 0 -36.3924)
(15.6809 0 -31.8471)
(23.4364 0 -29.1958)
(31.8032 0 -25.2989)
(39.3727 0 -19.5995)
(45.356 0 -13.7075)
(49.6903 0 -8.7646)
(52.7783 0 -5.24344)
(55.0529 0 -3.1647)
(56.8586 0 -2.36186)
(58.4081 0 -2.64573)
(59.7837 0 -3.85007)
(40.2521 0 -6.24462)
(39.8034 0 -8.06366)
(38.6521 0 -9.49537)
(36.6296 0 -9.33714)
(33.5716 0 -5.55243)
(29.338 0 4.86075)
(23.8852 0 25.5183)
(17.3944 0 59.5662)
(10.4061 0 106.823)
(4.14066 0 156.203)
(-0.57129 0 175.195)
(-5.77333 0 141.309)
(-12.5672 0 89.975)
(-19.5694 0 46.5753)
(-25.8082 0 17.1982)
(-30.9028 0 0.384894)
(-34.754 0 -7.42)
(-37.4568 0 -9.70248)
(-39.1721 0 -9.14775)
(-40.0706 0 -7.48637)
(-40.3217 0 -5.70635)
(-40.0831 0 -4.34006)
(-39.4879 0 -3.70414)
(-38.6183 0 -4.0607)
(-37.4727 0 -5.70427)
(-35.9335 0 -8.95799)
(-33.7554 0 -14.0465)
(-30.6016 0 -20.7983)
(-26.1456 0 -28.2348)
(-20.5656 0 -34.3641)
(-14.182 0 -36.8567)
(-8.72302 0 -37.4449)
(-6.51725 0 -40.9685)
(-4.65573 0 -44.7821)
(-2.74793 0 -47.697)
(-0.707262 0 -49.1373)
(1.38624 0 -48.8154)
(3.38628 0 -46.8023)
(5.21859 0 -43.5064)
(7.26726 0 -39.5182)
(10.2781 0 -37.2495)
(16.6423 0 -36.6277)
(22.6006 0 -32.4926)
(27.8418 0 -25.517)
(31.7884 0 -18.1163)
(34.548 0 -11.9028)
(36.4643 0 -7.49689)
(37.8452 0 -4.87008)
(38.8901 0 -3.73341)
(39.6723 0 -3.76598)
(40.1605 0 -4.69072)
(15.9032 0 -5.46927)
(14.3663 0 -6.61285)
(12.1273 0 -7.2521)
(9.13477 0 -6.21476)
(5.39858 0 -1.51993)
(1.06591 0 9.69484)
(-3.44727 0 30.7835)
(-7.31232 0 64.4574)
(-8.96344 0 109.896)
(-6.10681 0 156.003)
(1.62115 0 173.441)
(8.04866 0 142.364)
(9.00264 0 93.9652)
(6.28169 0 51.8005)
(1.99706 0 22.4379)
(-2.56746 0 5.01245)
(-6.75298 0 -3.67149)
(-10.2581 0 -6.87309)
(-13.0032 0 -7.17662)
(-15.0054 0 -6.2722)
(-16.3317 0 -5.1239)
(-17.0832 0 -4.25288)
(-17.3857 0 -3.98497)
(-17.366 0 -4.62414)
(-17.1117 0 -6.54548)
(-16.6285 0 -10.1844)
(-15.8169 0 -15.8802)
(-14.4861 0 -23.5184)
(-12.413 0 -32.0115)
(-9.63453 0 -39.0318)
(-6.19467 0 -41.6923)
(-3.15957 0 -40.4787)
(-2.31307 0 -42.5515)
(-1.6757 0 -46.0339)
(-1.03872 0 -49.0011)
(-0.279943 0 -50.5309)
(0.518569 0 -50.1842)
(1.23882 0 -48.0653)
(1.8162 0 -44.8572)
(2.60717 0 -41.7104)
(4.22813 0 -41.0532)
(7.62283 0 -41.429)
(10.616 0 -36.8007)
(13.1222 0 -28.8726)
(14.8916 0 -20.4798)
(16.0204 0 -13.4941)
(16.7151 0 -8.57694)
(17.1297 0 -5.61816)
(17.3234 0 -4.21343)
(17.2577 0 -3.94073)
(16.8274 0 -4.45692)
(-9.70806 0 -3.79278)
(-11.8983 0 -4.29968)
(-14.7053 0 -4.27529)
(-18.088 0 -2.61414)
(-21.8839 0 2.52196)
(-25.6741 0 13.713)
(-28.6339 0 33.8994)
(-29.3213 0 65.1105)
(-25.4657 0 105.811)
(-14.4545 0 145.695)
(3.32112 0 160.601)
(19.3852 0 134.186)
(27.6278 0 91.8505)
(29.5749 0 53.5923)
(27.8439 0 26.0512)
(24.4431 0 9.14374)
(20.5639 0 0.271681)
(16.8631 0 -3.45979)
(13.6519 0 -4.41261)
(11.0405 0 -4.16889)
(9.04259 0 -3.63653)
(7.61002 0 -3.29139)
(6.64009 0 -3.42534)
(5.99098 0 -4.33851)
(5.52257 0 -6.44503)
(5.13813 0 -10.2531)
(4.7923 0 -16.1818)
(4.47723 0 -24.1675)
(4.18378 0 -33.0905)
(3.78421 0 -40.5033)
(3.65119 0 -43.3106)
(2.73654 0 -41.1574)
(1.87101 0 -42.5905)
(1.1348 0 -46.0284)
(0.554662 0 -49.0963)
(0.1165 0 -50.7055)
(-0.281298 0 -50.3365)
(-0.772208 0 -48.1095)
(-1.42699 0 -44.8465)
(-2.1533 0 -42.048)
(-3.32653 0 -42.1373)
(-3.82583 0 -42.8881)
(-4.18567 0 -38.041)
(-4.53527 0 -29.7599)
(-4.8062 0 -20.997)
(-5.0966 0 -13.7239)
(-5.4174 0 -8.60829)
(-5.79328 0 -5.48221)
(-6.28638 0 -3.86526)
(-7.00944 0 -3.27428)
(-8.10651 0 -3.34237)
(-33.8064 0 -1.68454)
(-36.2046 0 -1.61673)
(-39.163 0 -1.05581)
(-42.5573 0 0.975076)
(-46.0483 0 6.08045)
(-48.9334 0 16.4468)
(-49.9828 0 34.4289)
(-47.2674 0 61.3232)
(-38.2411 0 95.189)
(-20.6071 0 127.256)
(4.47114 0 139.169)
(27.7627 0 118.272)
(42.2597 0 83.8623)
(48.8196 0 51.6022)
(49.9628 0 27.5685)
(48.0906 0 12.2983)
(44.8774 0 3.92297)
(41.3479 0 0.0488526)
(38.0628 0 -1.35033)
(35.2725 0 -1.6664)
(33.0543 0 -1.70174)
(31.3853 0 -1.86057)
(30.1631 0 -2.37491)
(29.2171 0 -3.5116)
(28.3551 0 -5.69321)
(27.4013 0 -9.45319)
(26.169 0 -15.2169)
(24.4331 0 -22.9026)
(21.8992 0 -31.3722)
(18.254 0 -38.289)
(14.273 0 -40.807)
(8.70644 0 -38.8318)
(6.13888 0 -40.7515)
(4.00861 0 -44.7052)
(2.19604 0 -48.0047)
(0.520952 0 -49.6952)
(-1.11971 0 -49.3074)
(-2.85514 0 -46.9558)
(-4.74666 0 -43.3654)
(-7.03248 0 -39.7753)
(-11.4196 0 -39.6444)
(-16.2942 0 -40.4989)
(-20.1117 0 -36.0519)
(-23.2681 0 -28.2813)
(-25.3973 0 -19.9142)
(-26.8647 0 -12.8826)
(-27.9263 0 -7.87963)
(-28.7926 0 -4.75119)
(-29.6366 0 -3.00378)
(-30.6348 0 -2.13041)
(-31.9749 0 -1.76818)
(-53.6713 0 0.439519)
(-55.9429 0 1.06291)
(-58.7426 0 2.08156)
(-61.8578 0 4.27113)
(-64.7839 0 8.89556)
(-66.5676 0 17.6499)
(-65.6479 0 32.2461)
(-59.8341 0 53.4086)
(-46.648 0 79.2452)
(-24.4262 0 102.998)
(5.06898 0 111.824)
(32.9226 0 96.5607)
(52.0348 0 70.8344)
(62.4974 0 45.9248)
(66.3815 0 26.7881)
(66.1671 0 14.2252)
(63.8466 0 7.01365)
(60.7626 0 3.35617)
(57.7003 0 1.66853)
(55.0501 0 0.845011)
(52.9561 0 0.251552)
(51.4159 0 -0.406162)
(50.3113 0 -1.26776)
(49.413 0 -2.53861)
(48.448 0 -4.62993)
(47.1516 0 -8.06109)
(45.2044 0 -13.1908)
(42.2129 0 -19.8575)
(37.6852 0 -26.9168)
(31.2442 0 -32.3703)
(23.7313 0 -34.1582)
(14.2262 0 -33.6707)
(10.5379 0 -37.3928)
(7.20783 0 -42.1205)
(4.05598 0 -45.6522)
(0.971561 0 -47.3827)
(-2.11938 0 -46.9839)
(-5.25357 0 -44.541)
(-8.42937 0 -40.4449)
(-12.02 0 -35.0628)
(-17.7025 0 -33.6271)
(-26.9946 0 -34.0864)
(-34.0551 0 -30.7516)
(-39.7943 0 -24.471)
(-43.6509 0 -17.3566)
(-46.1784 0 -11.1798)
(-47.8149 0 -6.67611)
(-48.9365 0 -3.77513)
(-49.829 0 -2.03273)
(-50.7512 0 -0.945774)
(-51.967 0 -0.174248)
(-66.486 0 2.31214)
(-68.3856 0 3.47551)
(-70.7197 0 4.88497)
(-73.2316 0 7.05446)
(-75.3345 0 10.8436)
(-75.9479 0 17.3925)
(-73.3808 0 27.8103)
(-65.4261 0 42.4747)
(-49.8676 0 59.9475)
(-25.6664 0 75.6798)
(5.10839 0 81.5775)
(34.5001 0 71.5634)
(55.8966 0 54.414)
(68.7751 0 37.4052)
(74.6903 0 24.0018)
(75.9745 0 14.9046)
(74.7007 0 9.37601)
(72.3572 0 6.22831)
(69.846 0 4.38626)
(67.6273 0 3.09861)
(65.8815 0 1.95436)
(64.6293 0 0.806197)
(63.7572 0 -0.350299)
(62.9888 0 -1.61623)
(61.9788 0 -3.39275)
(60.386 0 -6.17997)
(57.7847 0 -10.2641)
(53.6925 0 -15.4716)
(47.5776 0 -20.7245)
(39.2313 0 -24.3466)
(29.021 0 -24.9895)
(19.9831 0 -25.9683)
(15.4666 0 -32.936)
(11.0197 0 -38.2771)
(6.30028 0 -41.8237)
(1.51172 0 -43.4965)
(-3.33799 0 -43.1045)
(-8.11156 0 -40.7056)
(-12.7798 0 -36.4053)
(-17.1743 0 -30.1842)
(-21.9064 0 -25.3445)
(-32.9861 0 -24.983)
(-42.4995 0 -23.2542)
(-50.151 0 -18.9475)
(-55.4688 0 -13.5487)
(-58.9714 0 -8.69648)
(-61.1446 0 -5.08539)
(-62.4812 0 -2.69903)
(-63.3621 0 -1.1606)
(-64.12 0 0.0282235)
(-65.0859 0 1.17407)
(-69.3562 0 3.60288)
(-70.6356 0 5.13224)
(-72.0942 0 6.71277)
(-73.5276 0 8.60671)
(-74.4319 0 11.2689)
(-73.8463 0 15.3035)
(-70.2605 0 21.2986)
(-61.7377 0 29.4548)
(-46.4336 0 39.001)
(-23.6973 0 47.5291)
(4.52401 0 50.8001)
(31.6718 0 45.3708)
(52.1236 0 36.0558)
(65.1229 0 26.7013)
(71.8282 0 19.1677)
(74.2343 0 13.8334)
(74.1849 0 10.3051)
(73.0167 0 7.95103)
(71.5285 0 6.20009)
(70.1092 0 4.65528)
(68.8974 0 3.11575)
(67.9144 0 1.5727)
(67.0878 0 0.1975)
(66.2128 0 -0.919916)
(65.0026 0 -2.16197)
(63.0793 0 -4.04094)
(59.9322 0 -6.72923)
(55.0722 0 -9.98459)
(48.2611 0 -12.5202)
(40.4319 0 -12.9767)
(31.4552 0 -14.6489)
(26.2605 0 -20.5163)
(21.3581 0 -27.8024)
(15.3855 0 -32.9485)
(8.89269 0 -36.1877)
(2.13595 0 -37.6958)
(-4.71341 0 -37.3395)
(-11.3796 0 -35.1665)
(-17.7477 0 -31.2279)
(-23.1816 0 -25.2947)
(-27.9302 0 -18.0983)
(-34.9875 0 -13.2222)
(-43.4011 0 -12.9496)
(-51.0344 0 -11.8433)
(-57.0933 0 -8.83771)
(-61.3054 0 -5.72904)
(-63.9459 0 -3.32185)
(-65.5691 0 -1.69473)
(-66.6236 0 -0.561626)
(-67.4502 0 0.610905)
(-68.3058 0 2.05525)
(-61.4518 0 5.46103)
(-61.6978 0 7.20544)
(-61.648 0 9.00086)
(-61.241 0 10.8929)
(-60.233 0 12.9625)
(-58.0825 0 15.3123)
(-53.8753 0 18.035)
(-46.3852 0 21.1424)
(-34.3999 0 24.432)
(-17.4638 0 27.282)
(3.18393 0 28.4245)
(23.1499 0 26.5943)
(38.6215 0 23.4701)
(49.1163 0 20.1692)
(55.4244 0 17.1612)
(58.8485 0 14.5578)
(60.5458 0 12.3052)
(61.3137 0 10.3)
(61.5879 0 8.44344)
(61.5403 0 6.66406)
(61.1977 0 4.92996)
(60.5685 0 3.27683)
(59.6887 0 1.86875)
(58.7115 0 0.817048)
(57.7261 0 -0.0870021)
(56.4279 0 -1.03365)
(54.4065 0 -2.08478)
(51.2675 0 -3.37512)
(46.5586 0 -5.13984)
(41.6029 0 -7.4521)
(37.5564 0 -10.7693)
(33.2545 0 -16.0032)
(27.2534 0 -21.7653)
(19.7195 0 -26.0244)
(11.4499 0 -28.7704)
(2.7502 0 -30.0529)
(-6.06539 0 -29.7504)
(-14.6344 0 -27.906)
(-22.6801 0 -24.6176)
(-29.7175 0 -19.7604)
(-35.1031 0 -13.8184)
(-39.1851 0 -9.37207)
(-43.2035 0 -6.58127)
(-48.518 0 -4.48842)
(-52.6051 0 -2.91394)
(-55.3299 0 -1.73165)
(-57.0503 0 -0.72324)
(-58.1988 0 0.200056)
(-59.1484 0 1.1212)
(-60.1133 0 2.27273)
(-60.9136 0 3.77589)
(-54.373 0 3.11029)
(-52.2796 0 3.92072)
(-49.542 0 4.71434)
(-46.1544 0 5.51243)
(-42.0825 0 6.32048)
(-37.2586 0 7.12165)
(-31.5804 0 7.8724)
(-24.921 0 8.50385)
(-17.1631 0 8.9391)
(-8.3016 0 9.14015)
(1.40869 0 9.16322)
(10.9753 0 9.10085)
(19.5223 0 8.83454)
(26.9417 0 8.33394)
(33.2858 0 7.65639)
(38.6887 0 6.88209)
(43.2724 0 6.074)
(47.129 0 5.2673)
(50.3151 0 4.47123)
(52.8552 0 3.67426)
(54.7474 0 2.85282)
(55.9737 0 2.00697)
(56.5136 0 1.2347)
(56.4857 0 0.613072)
(56.0455 0 0.0420654)
(55.2012 0 -0.547587)
(53.8971 0 -1.15965)
(52.0918 0 -1.82439)
(49.6932 0 -2.69654)
(46.7152 0 -4.10438)
(43.1257 0 -6.52511)
(38.3585 0 -9.9126)
(31.5658 0 -13.5554)
(23.0364 0 -16.4007)
(13.4493 0 -18.2908)
(3.2389 0 -19.1768)
(-7.12703 0 -18.9668)
(-17.1535 0 -17.6918)
(-26.3996 0 -15.4422)
(-34.3666 0 -12.2504)
(-40.381 0 -8.54426)
(-44.5749 0 -5.51637)
(-47.8974 0 -3.52659)
(-50.7079 0 -2.36339)
(-52.8864 0 -1.5988)
(-54.5238 0 -0.963048)
(-55.6701 0 -0.358738)
(-56.3778 0 0.223267)
(-56.6923 0 0.798585)
(-56.5615 0 1.45988)
(-55.8094 0 2.26897)
(-52.6315 0 2.93079)
(-50.3548 0 3.11614)
(-47.4297 0 3.28674)
(-43.8326 0 3.44696)
(-39.529 0 3.59878)
(-34.481 0 3.74079)
(-28.6605 0 3.86788)
(-22.072 0 3.97186)
(-14.7826 0 4.0444)
(-6.95316 0 4.08222)
(1.16748 0 4.0934)
(9.23793 0 4.07589)
(16.931 0 4.02971)
(24.025 0 3.94747)
(30.3865 0 3.83541)
(35.9717 0 3.7026)
(40.7893 0 3.55676)
(44.8729 0 3.40192)
(48.2608 0 3.23843)
(50.9845 0 3.06333)
(53.0637 0 2.87205)
(54.5113 0 2.66375)
(55.3708 0 2.44572)
(55.7483 0 2.21165)
(55.7201 0 1.93351)
(55.3063 0 1.60688)
(54.529 0 1.21765)
(53.4238 0 0.699469)
(51.9532 0 -0.114251)
(49.9246 0 -1.43635)
(46.8548 0 -3.44624)
(42.0132 0 -6.05143)
(34.8689 0 -8.72415)
(25.6807 0 -10.883)
(15.0823 0 -12.3726)
(3.64376 0 -13.0805)
(-8.00154 0 -12.9134)
(-19.1926 0 -11.9)
(-29.3267 0 -10.1487)
(-37.8202 0 -7.76919)
(-44.0834 0 -5.03161)
(-48.1694 0 -2.64149)
(-50.8009 0 -0.905948)
(-52.609 0 0.210887)
(-53.9488 0 0.8905)
(-54.9571 0 1.35067)
(-55.6251 0 1.71428)
(-55.9199 0 2.02504)
(-55.8241 0 2.28758)
(-55.3067 0 2.51278)
(-54.2729 0 2.72799)
)
;

boundaryField
{
    top
    {
        type            directionMixed;
        refValue        uniform (0 0 0);
        refGradient     uniform (0 0 0);
        valueFraction   uniform (0 0 0 0 0 1);
        value           nonuniform List<vector> 
51
(
(-52.6315 0 0)
(-50.3548 0 0)
(-47.4297 0 0)
(-43.8326 0 0)
(-39.529 0 0)
(-34.481 0 0)
(-28.6605 0 0)
(-22.072 0 0)
(-14.7826 0 0)
(-6.95316 0 0)
(1.16748 0 0)
(9.23793 0 0)
(16.931 0 0)
(24.025 0 0)
(30.3865 0 0)
(35.9717 0 0)
(40.7893 0 0)
(44.8729 0 0)
(48.2608 0 0)
(50.9845 0 0)
(53.0637 0 0)
(54.5113 0 0)
(55.3708 0 0)
(55.7483 0 0)
(55.7201 0 0)
(55.3063 0 0)
(54.529 0 0)
(53.4238 0 0)
(51.9532 0 0)
(49.9246 0 0)
(46.8548 0 0)
(42.0132 0 0)
(34.8689 0 0)
(25.6807 0 0)
(15.0823 0 0)
(3.64376 0 0)
(-8.00154 0 0)
(-19.1926 0 0)
(-29.3267 0 0)
(-37.8202 0 0)
(-44.0834 0 0)
(-48.1694 0 0)
(-50.8009 0 0)
(-52.609 0 0)
(-53.9488 0 0)
(-54.9571 0 0)
(-55.6251 0 0)
(-55.9199 0 0)
(-55.8241 0 0)
(-55.3067 0 0)
(-54.2729 0 0)
)
;
    }
    bottom
    {
        type            fixedValue;
        value           uniform (0 0 0);
    }
    frontAndBack
    {
        type            empty;
    }
    left_cyc
    {
        type            cyclic;
    }
    right_cyc
    {
        type            cyclic;
    }
}


// ************************************************************************* //
