/*--------------------------------*- C++ -*----------------------------------*\
| =========                 |                                                 |
| \\      /  F ield         | OpenFOAM: The Open Source CFD Toolbox           |
|  \\    /   O peration     | Version:  2.3.0                                 |
|   \\  /    A nd           | Web:      www.OpenFOAM.org                      |
|    \\/     M anipulation  |                                                 |
\*---------------------------------------------------------------------------*/
FoamFile
{
    version     2.0;
    format      ascii;
    class       volScalarField;
    location    "25000";
    object      T;
}
// * * * * * * * * * * * * * * * * * * * * * * * * * * * * * * * * * * * * * //

dimensions      [0 0 0 1 0 0 0];

internalField   nonuniform List<scalar> 
191
(
37.8053
37.0882
36.1943
35.0997
33.7845
32.1635
30.6883
29.5908
28.826
28.4963
28.5908
29.0838
29.9904
28.9208
27.8072
26.4395
24.7003
22.6114
20.6582
19.0592
17.7381
16.7208
16.1803
16.3362
17.0899
18.2451
23.7834
22.757
21.6125
20.3405
18.877
17.2454
15.561
13.979
12.7096
12.0202
12.2159
13.1756
14.6049
22.8663
22.1941
21.3634
20.2811
18.8481
17.0605
15.0648
13.0928
11.4841
10.617
10.8567
12.0704
13.8753
23.988
23.4749
22.7186
21.5926
19.9782
17.8659
15.4492
13.0263
11.0398
9.98112
10.2668
11.7567
25.5391
25.0645
24.2804
23.0471
21.2363
18.809
15.9763
13.1116
10.755
9.50789
9.83875
11.599
26.9151
26.4264
25.5833
24.2412
22.2655
19.5879
16.4031
13.1498
10.4586
9.03338
9.40854
11.4186
27.9222
27.379
26.4604
25.0257
22.9331
20.0916
16.6434
13.0807
10.1074
8.51337
8.93447
11.1679
28.8892
28.4793
27.8297
26.8185
25.3179
23.1728
20.2298
16.5928
12.8295
9.66051
7.92159
8.38695
10.7938
29.0683
28.5128
27.7137
26.5772
24.9996
22.8149
19.8165
16.1018
12.2902
9.04882
7.22263
7.71935
10.2132
28.4361
27.7107
26.7483
25.4846
23.8415
21.6326
18.6486
15.0507
11.3843
8.22476
6.39287
6.89928
9.36475
26.3907
25.5194
24.4446
23.116
21.4669
19.3144
16.5271
13.309
10.0167
7.12671
5.4027
5.88631
8.1748
22.1267
21.2209
20.1924
18.9792
17.4973
15.6432
13.3596
10.7533
8.06915
5.67686
4.21438
4.63013
6.54973
15.2233
14.5
13.7222
12.8464
11.8046
10.5234
8.97975
7.23688
5.43678
3.80976
2.79208
3.08455
4.40647
5.67702
5.33869
5.01878
4.68898
4.32106
3.88779
3.37219
2.77631
2.13083
1.51584
1.11325
1.23069
1.74457
)
;

boundaryField
{
    top
    {
        type            fixedValue;
        value           uniform 0;
    }
    bottom
    {
        type            fixedValue;
        value           uniform 43.8;
    }
    frontAndBack
    {
        type            empty;
    }
    left_cyc
    {
        type            cyclic;
    }
    right_cyc
    {
        type            cyclic;
    }
    procBoundary2to1
    {
        type            processor;
        value           nonuniform List<scalar> 
16
(
38.3771
29.8609
24.7147
23.449
24.3615
25.8275
27.1849
28.2286
28.2286
29.1644
29.4671
28.9932
27.1135
22.9474
15.9383
6.03816
)
;
    }
    procBoundary2to3
    {
        type            processor;
        value           nonuniform List<scalar> 
16
(
31.2195
19.6675
16.2544
15.9001
13.9814
13.9814
14.2342
14.4203
14.4698
14.294
13.7664
12.7917
11.281
9.10443
6.13197
2.38323
)
;
    }
}


// ************************************************************************* //
