/*--------------------------------*- C++ -*----------------------------------*\
| =========                 |                                                 |
| \\      /  F ield         | OpenFOAM: The Open Source CFD Toolbox           |
|  \\    /   O peration     | Version:  2.3.0                                 |
|   \\  /    A nd           | Web:      www.OpenFOAM.org                      |
|    \\/     M anipulation  |                                                 |
\*---------------------------------------------------------------------------*/
FoamFile
{
    version     2.0;
    format      ascii;
    class       volVectorField;
    location    "25000";
    object      U;
}
// * * * * * * * * * * * * * * * * * * * * * * * * * * * * * * * * * * * * * //

dimensions      [0 1 -1 0 0 0 0];

internalField   nonuniform List<vector> 
191
(
(-59.8876 0 3.48662)
(-64.085 0 4.74343)
(-69.2263 0 6.26931)
(-75.1167 0 7.29394)
(-79.7754 0 5.5858)
(-78.0625 0 -0.722619)
(-67.7133 0 -9.58959)
(-50.7048 0 -18.476)
(-28.9484 0 -24.63)
(-6.77006 0 -25.7167)
(15.4628 0 -25.5364)
(37.6083 0 -22.9033)
(58.17 0 -15.0401)
(-79.4025 0 3.96449)
(-77.1298 0 4.29096)
(-73.1096 0 4.13344)
(-66.8914 0 2.19318)
(-57.6995 0 -4.25323)
(-45.467 0 -15.1796)
(-32.186 0 -22.2625)
(-20.9827 0 -24.3048)
(-11.9177 0 -26.0043)
(-2.91179 0 -26.8666)
(6.2788 0 -26.6675)
(15.2685 0 -25.4238)
(24.8253 0 -23.7246)
(-71.1799 0 -0.111672)
(-65.2676 0 -1.74342)
(-57.1311 0 -4.05417)
(-47.1308 0 -7.58929)
(-35.921 0 -13.6216)
(-28.4678 0 -22.5079)
(-22.4846 0 -29.5158)
(-16.1164 0 -33.2384)
(-9.23219 0 -35.1166)
(-2.234 0 -35.8927)
(4.81643 0 -35.7242)
(11.7957 0 -34.5781)
(18.5162 0 -32.1497)
(-60.1339 0 -5.58283)
(-54.0109 0 -9.18254)
(-45.8682 0 -13.3986)
(-36.3423 0 -17.8196)
(-26.1412 0 -22.4838)
(-20.3416 0 -28.3953)
(-16.166 0 -34.4279)
(-11.8085 0 -38.3665)
(-6.91243 0 -40.8342)
(-1.69426 0 -41.9652)
(3.61945 0 -41.7021)
(8.72943 0 -40.0609)
(13.411 0 -37.09)
(-48.2669 0 -10.5434)
(-43.3411 0 -15.9182)
(-36.6871 0 -21.8633)
(-28.8031 0 -26.9713)
(-20.1616 0 -29.911)
(-14.2638 0 -33.0229)
(-11.0163 0 -38.2759)
(-7.97944 0 -42.3669)
(-4.66986 0 -45.12)
(-1.15516 0 -46.4046)
(2.43345 0 -46.0998)
(5.87588 0 -44.2401)
(-33.7306 0 -14.1169)
(-30.5652 0 -20.8844)
(-26.0957 0 -28.3196)
(-20.51 0 -34.4197)
(-14.1165 0 -36.8652)
(-8.69283 0 -37.4674)
(-6.49445 0 -41.0165)
(-4.63652 0 -44.8225)
(-2.7266 0 -47.723)
(-0.684884 0 -49.1437)
(1.40776 0 -48.8007)
(3.4063 0 -46.7696)
(-15.8105 0 -15.9573)
(-14.4745 0 -23.6135)
(-12.3946 0 -32.1054)
(-9.61236 0 -39.0932)
(-6.16324 0 -41.696)
(-3.14192 0 -40.4897)
(-2.30424 0 -42.5899)
(-1.67082 0 -46.0727)
(-1.03212 0 -49.0283)
(-0.27256 0 -50.5374)
(0.525222 0 -50.1682)
(1.24384 0 -48.0313)
(4.78464 0 -16.2604)
(4.46834 0 -24.2651)
(4.17279 0 -33.1873)
(3.77043 0 -40.568)
(3.6393 0 -43.3152)
(2.71581 0 -41.1603)
(1.86029 0 -42.6237)
(1.12538 0 -46.0672)
(0.547047 0 -49.1245)
(0.110063 0 -50.7121)
(-0.288248 0 -50.3191)
(-0.781033 0 -48.0736)
(27.3884 0 -9.50532)
(26.1513 0 -15.2918)
(24.4078 0 -22.9945)
(21.8618 0 -31.4612)
(18.2051 0 -38.3464)
(14.214 0 -40.8083)
(8.64105 0 -38.84)
(6.10656 0 -40.8009)
(3.98405 0 -44.7493)
(2.17321 0 -48.0346)
(0.499886 0 -49.7021)
(-1.14066 0 -49.2893)
(-2.87751 0 -46.9179)
(47.1345 0 -8.10798)
(45.1783 0 -13.2568)
(42.1737 0 -19.936)
(37.6269 0 -26.9888)
(31.17 0 -32.4131)
(23.6364 0 -34.1592)
(14.1591 0 -33.6908)
(10.4907 0 -37.4642)
(7.16685 0 -42.1724)
(4.01594 0 -45.6838)
(0.932911 0 -47.3903)
(-2.15711 0 -46.9659)
(-5.29217 0 -44.5015)
(60.3637 0 -6.21808)
(57.7488 0 -10.3171)
(53.6386 0 -15.5337)
(47.4994 0 -20.7775)
(39.1328 0 -24.3746)
(28.8979 0 -24.9968)
(19.9313 0 -26.0145)
(15.412 0 -33.0121)
(10.9612 0 -38.3318)
(6.24093 0 -41.8557)
(1.45197 0 -43.5048)
(-3.39648 0 -43.0879)
(-8.16926 0 -40.6667)
(63.0503 0 -4.06665)
(59.8861 0 -6.76397)
(55.0057 0 -10.0221)
(48.173 0 -12.537)
(40.3381 0 -12.973)
(31.3605 0 -14.7036)
(26.2025 0 -20.5944)
(21.296 0 -27.8724)
(15.3088 0 -32.998)
(8.81219 0 -36.217)
(2.05277 0 -37.7037)
(-4.79586 0 -37.3249)
(-11.4591 0 -35.1309)
(56.406 0 -1.0445)
(54.3736 0 -2.09735)
(51.2203 0 -3.39197)
(46.491 0 -5.16345)
(41.5539 0 -7.48324)
(37.5048 0 -10.8183)
(33.1902 0 -16.0737)
(27.171 0 -21.8239)
(19.624 0 -26.0652)
(11.3474 0 -28.7948)
(2.64386 0 -30.0594)
(-6.17121 0 -29.7377)
(-14.7358 0 -27.8755)
(55.1847 0 -0.554149)
(53.8751 0 -1.16657)
(52.0641 0 -1.83257)
(49.6578 0 -2.70896)
(46.6743 0 -4.12551)
(43.0753 0 -6.5588)
(38.2878 0 -9.95558)
(31.4719 0 -13.5935)
(22.9269 0 -16.4284)
(13.3298 0 -18.3076)
(3.11431 0 -19.1811)
(-7.25075 0 -18.9578)
(-17.2705 0 -17.6704)
(55.2948 0 1.60301)
(54.5137 0 1.21279)
(53.4051 0 0.692397)
(51.9294 0 -0.126218)
(49.8921 0 -1.45519)
(46.8067 0 -3.473)
(41.9402 0 -6.08339)
(34.7692 0 -8.75247)
(25.561 0 -10.9043)
(14.9493 0 -12.3855)
(3.50413 0 -13.0835)
(-8.13989 0 -12.906)
(-19.3219 0 -11.8829)
)
;

boundaryField
{
    top
    {
        type            directionMixed;
        refValue        uniform (0 0 0);
        refGradient     uniform (0 0 0);
        valueFraction   uniform (0 0 0 0 0 1);
        value           nonuniform List<vector> 
13
(
(55.2948 0 0)
(54.5137 0 0)
(53.4051 0 0)
(51.9294 0 0)
(49.8921 0 0)
(46.8067 0 0)
(41.9402 0 0)
(34.7692 0 0)
(25.561 0 0)
(14.9493 0 0)
(3.50413 0 0)
(-8.13989 0 0)
(-19.3219 0 0)
)
;
    }
    bottom
    {
        type            fixedValue;
        value           uniform (0 0 0);
    }
    frontAndBack
    {
        type            empty;
    }
    left_cyc
    {
        type            cyclic;
    }
    right_cyc
    {
        type            cyclic;
    }
    procBoundary2to1
    {
        type            processor;
        value           nonuniform List<vector> 
16
(
(-56.4777 0 2.61497)
(-80.4732 0 3.58636)
(-75.2264 0 1.00392)
(-64.5107 0 -2.88812)
(-51.7805 0 -6.46479)
(-35.9166 0 -9.00697)
(-16.6252 0 -10.2376)
(5.13132 0 -10.3072)
(5.13132 0 -10.3072)
(28.3445 0 -5.72523)
(48.436 0 -4.65958)
(61.9648 0 -3.41737)
(64.9842 0 -2.17884)
(57.7099 0 -0.0969083)
(56.0337 0 0.0358178)
(55.7126 0 1.9302)
)
;
    }
    procBoundary2to3
    {
        type            processor;
        value           nonuniform List<vector> 
16
(
(72.7243 0 -6.0197)
(37.2801 0 -20.6698)
(24.6943 0 -27.3429)
(17.5978 0 -32.4266)
(9.05655 0 -40.9566)
(9.05655 0 -40.9566)
(5.23661 0 -43.4626)
(1.82015 0 -44.8172)
(-1.43797 0 -44.8057)
(-4.77211 0 -43.3216)
(-8.46863 0 -40.392)
(-12.8339 0 -36.3438)
(-17.8229 0 -31.1681)
(-22.7741 0 -24.5686)
(-26.5049 0 -15.4089)
(-29.4398 0 -10.1234)
)
;
    }
}


// ************************************************************************* //
