/*--------------------------------*- C++ -*----------------------------------*\
| =========                 |                                                 |
| \\      /  F ield         | OpenFOAM: The Open Source CFD Toolbox           |
|  \\    /   O peration     | Version:  2.3.0                                 |
|   \\  /    A nd           | Web:      www.OpenFOAM.org                      |
|    \\/     M anipulation  |                                                 |
\*---------------------------------------------------------------------------*/
FoamFile
{
    version     2.0;
    format      ascii;
    class       volScalarField;
    location    "5000";
    object      p;
}
// * * * * * * * * * * * * * * * * * * * * * * * * * * * * * * * * * * * * * //

dimensions      [0 2 -2 0 0 0 0];

internalField   nonuniform List<scalar> 
191
(
-1359.53
-1425.87
-1478.41
-1517.21
-1546.62
-1569.88
-1589.01
-1605.33
-1619.63
-1632.38
-1643.89
-1654.34
-1311.47
-1343.27
-1369.88
-1391.39
-1409.42
-1424.97
-1438.52
-1450.61
-1461.61
-1471.74
-1481.18
-1490.09
-1253.23
-1272.55
-1291.28
-1301.73
-1308.11
-1314.82
-1321.52
-1328.16
-1334.73
-1341.21
-1347.65
-1354.13
-1139.03
-1169
-1194.01
-1204.43
-1208.16
-1211.66
-1214.96
-1218.25
-1221.66
-1225.28
-1229.15
-1233.33
-1022.5
-1032.5
-1070.03
-1088.57
-1095.76
-1099.86
-1103.22
-1105.76
-1107.83
-1109.7
-1111.59
-1113.66
-1115.96
-932.066
-939.033
-966.286
-977.636
-982.479
-986.123
-988.972
-990.964
-992.341
-993.344
-994.189
-995.024
-995.918
-847.689
-849.273
-858.756
-862.93
-865.587
-867.722
-869.41
-870.521
-871.145
-871.412
-871.453
-871.36
-871.176
-766.919
-759.736
-747.729
-744.866
-745.186
-745.209
-745.319
-745.254
-744.945
-744.393
-743.629
-742.694
-741.613
-685.469
-670.052
-636.143
-625.343
-622.902
-620.291
-618.334
-616.661
-615.061
-613.423
-611.696
-609.881
-607.986
-600.509
-583.577
-528.792
-507.159
-500.771
-494.981
-490.4
-486.582
-483.199
-480.072
-477.085
-474.212
-471.424
-506.577
-487.742
-421.241
-395.381
-383.11
-373.01
-364.746
-357.93
-352.065
-346.868
-342.135
-337.811
-333.826
-402.119
-378.378
-312.399
-279.065
-264.248
-255.529
-245.501
-235.79
-226.925
-218.983
-211.775
-205.273
-199.413
-308.198
-270.002
-201.916
-152.185
-141.588
-137.196
-131.563
-123.362
-113.165
-102.487
-91.9766
-82.5916
-74.3827
-198.885
-164.115
-109.744
-58.6082
-29.0431
-14.4599
-11.0764
-11.6846
-10.7502
-6.9611
-0.648897
7.34909
16.3222
-345.337
-270.361
-178.293
-88.2875
-14.0542
35.9559
66.1308
83.3724
92.674
96.2149
94.9704
91.1516
87.6413
)
;

boundaryField
{
    top
    {
        type            calculated;
        value           nonuniform List<scalar> 
13
(
-9.81
-9.81
-9.81
-9.81
-9.81
-9.81
-9.81
-9.81
-9.81
-9.81
-9.81
-9.81
-9.81
)
;
    }
    bottom
    {
        type            calculated;
        value           nonuniform List<scalar> 
12
(
-1429.69
-1499.72
-1555.85
-1597.58
-1629.42
-1654.63
-1675.33
-1692.9
-1708.2
-1721.77
-1733.95
-1744.94
)
;
    }
    frontAndBack
    {
        type            empty;
    }
    left_cyc
    {
        type            cyclic;
    }
    right_cyc
    {
        type            cyclic;
    }
    procBoundary3to0throughright_cyc
    {
        type            processorCyclic;
        value           nonuniform List<scalar> 
15
(
-1663.91
-1498.66
-1360.79
-1237.88
-1118.51
-996.869
-870.901
-740.396
-606.002
-468.652
-329.995
-193.916
-66.5851
25.6996
83.6877
)
;
    }
    procBoundary3to2
    {
        type            processor;
        value           nonuniform List<scalar> 
16
(
-1283.9
-1282.44
-1217.14
-1129.89
-1129.89
-1022.54
-932.702
-846.623
-763.878
-680.818
-594.054
-502.309
-409.534
-331.412
-221.614
-399.422
)
;
    }
}


// ************************************************************************* //
