/*--------------------------------*- C++ -*----------------------------------*\
| =========                 |                                                 |
| \\      /  F ield         | OpenFOAM: The Open Source CFD Toolbox           |
|  \\    /   O peration     | Version:  2.3.0                                 |
|   \\  /    A nd           | Web:      www.OpenFOAM.org                      |
|    \\/     M anipulation  |                                                 |
\*---------------------------------------------------------------------------*/
FoamFile
{
    version     2.0;
    format      ascii;
    class       volScalarField;
    location    "5000";
    object      p_rgh;
}
// * * * * * * * * * * * * * * * * * * * * * * * * * * * * * * * * * * * * * //

dimensions      [0 2 -2 0 0 0 0];

internalField   nonuniform List<scalar> 
191
(
-1429.69
-1499.72
-1555.85
-1597.58
-1629.42
-1654.63
-1675.33
-1692.9
-1708.2
-1721.77
-1733.95
-1744.94
-1443.29
-1486.8
-1527.55
-1562.8
-1592.08
-1616.55
-1637.44
-1655.8
-1672.25
-1687.14
-1700.7
-1713.04
-1434.43
-1473.67
-1511.08
-1537.73
-1558.05
-1577.31
-1595.37
-1612.4
-1628.37
-1643.27
-1657.07
-1669.62
-1386
-1448.68
-1502
-1534.36
-1554.37
-1570.31
-1583.74
-1595.93
-1607.71
-1619.34
-1630.75
-1641.95
-1296.77
-1358.69
-1446.72
-1508.12
-1546.97
-1572.61
-1590.2
-1602.31
-1611.4
-1619.19
-1626.75
-1634.66
-1643.14
-1269.85
-1351.16
-1450.15
-1521.46
-1569.8
-1602.35
-1623.13
-1635.71
-1643.45
-1648.87
-1653.68
-1658.91
-1665.02
-1248.15
-1348.81
-1452.97
-1534.99
-1593.85
-1633.37
-1657.98
-1672
-1679.59
-1684.05
-1687.64
-1691.61
-1696.45
-1226.47
-1343.85
-1449.59
-1541.68
-1610.68
-1657.11
-1686.41
-1703.26
-1712.37
-1717.66
-1721.7
-1725.75
-1730.09
-1195.81
-1329.12
-1435.59
-1535.98
-1613.58
-1666.51
-1701.58
-1723.42
-1736.59
-1744.94
-1750.97
-1755.92
-1760.12
-1146.14
-1297.02
-1402.53
-1507.8
-1592.97
-1653.16
-1695.83
-1724.98
-1744.43
-1757.74
-1767.42
-1774.95
-1780.99
-1064.27
-1223.39
-1329.12
-1443.54
-1533.92
-1600.5
-1651.06
-1688.74
-1716.35
-1736.93
-1752.99
-1766.2
-1777.27
-938.612
-1089.8
-1193.02
-1303.97
-1399.33
-1475.49
-1533.8
-1579.1
-1614.85
-1644.1
-1669.02
-1691.16
-1712.27
-776.745
-893.509
-974.361
-1053.7
-1147.35
-1226.2
-1288.67
-1338.33
-1379.27
-1415.07
-1447.39
-1480.92
-1514.8
-537.351
-614.945
-668.38
-711.903
-760.47
-809.305
-859.319
-907.521
-950.909
-991.502
-1032.25
-1071.92
-1110.44
-482.079
-450.304
-397.791
-341.818
-296.118
-270.37
-262.072
-266.253
-279.849
-300.441
-326.68
-356.278
-386.299
)
;

boundaryField
{
    top
    {
        type            fixedValue;
        value           uniform 0;
    }
    bottom
    {
        type            fixedFluxPressure;
        gradient        uniform 0;
        value           nonuniform List<scalar> 
12
(
-1429.69
-1499.72
-1555.85
-1597.58
-1629.42
-1654.63
-1675.33
-1692.9
-1708.2
-1721.77
-1733.95
-1744.94
)
;
    }
    frontAndBack
    {
        type            empty;
    }
    left_cyc
    {
        type            cyclic;
    }
    right_cyc
    {
        type            cyclic;
    }
    procBoundary3to0throughright_cyc
    {
        type            processorCyclic;
        value           nonuniform List<scalar> 
15
(
-1754.91
-1724.09
-1681.01
-1653
-1652.21
-1672.05
-1702.03
-1734.34
-1763.44
-1785.82
-1787.02
-1731.88
-1547.1
-1147.26
-416.887
)
;
    }
    procBoundary3to2
    {
        type            processor;
        value           nonuniform List<scalar> 
16
(
-1351.36
-1404.6
-1379.15
-1343.66
-1343.66
-1252.59
-1207.12
-1162.42
-1116.47
-1062.73
-993.68
-903.452
-789.666
-659.418
-456.826
-494.294
)
;
    }
}


// ************************************************************************* //
