/*--------------------------------*- C++ -*----------------------------------*\
| =========                 |                                                 |
| \\      /  F ield         | OpenFOAM: The Open Source CFD Toolbox           |
|  \\    /   O peration     | Version:  2.3.0                                 |
|   \\  /    A nd           | Web:      www.OpenFOAM.org                      |
|    \\/     M anipulation  |                                                 |
\*---------------------------------------------------------------------------*/
FoamFile
{
    version     2.0;
    format      ascii;
    class       surfaceScalarField;
    location    "5000";
    object      phi;
}
// * * * * * * * * * * * * * * * * * * * * * * * * * * * * * * * * * * * * * //

dimensions      [0 3 -1 0 0 0 0];

internalField   nonuniform List<scalar> 
354
(
0.498097
-0.0861525
0.525455
-0.0273576
0.505685
0.0197703
0.469839
0.0358457
0.435364
0.0344748
0.406413
0.0289508
0.38259
0.0238231
0.362611
0.0199795
0.345528
0.0170829
0.330957
0.0145712
0.319078
0.0118786
0.00835844
0.268896
-0.17301
0.35541
-0.113871
0.424804
-0.049624
0.473842
-0.0131921
0.50594
0.00237634
0.524967
0.00992457
0.534569
0.0142209
0.537896
0.0166525
0.537593
0.017386
0.535959
0.0162047
0.535142
0.0126956
0.00619039
0.166148
-0.213742
0.218687
-0.16641
0.288368
-0.119305
0.359767
-0.0845914
0.419231
-0.0570873
0.463442
-0.0342865
0.494073
-0.0164108
0.514593
-0.00386695
0.528634
0.00334521
0.53937
0.00546825
0.549413
0.00265259
-0.00517488
0.116548
-0.242942
0.156701
-0.206564
0.216643
-0.179248
0.283591
-0.151539
0.342398
-0.115894
0.387871
-0.0797593
0.420707
-0.0492472
0.444015
-0.0271744
0.46122
-0.0138603
0.475176
-0.00848737
0.487916
-0.0100876
-0.0178521
0.0574795
-0.291146
0.0800537
-0.265517
0.11467
-0.24118
0.16697
-0.231548
0.222823
-0.207391
0.271264
-0.164336
0.308458
-0.116953
0.335253
-0.0760427
0.354401
-0.0463219
0.368703
-0.0281629
0.38024
-0.0200237
0.390171
-0.0200193
-0.0264811
0.0318162
-0.303742
0.0473882
-0.281089
0.074196
-0.267987
0.114339
-0.271691
0.154359
-0.247411
0.187768
-0.197745
0.212609
-0.141794
0.230015
-0.0934495
0.242181
-0.0584877
0.251014
-0.0369953
0.257629
-0.0266393
0.262318
-0.0247077
-0.028881
0.00844982
-0.307934
0.0144772
-0.287116
0.0272067
-0.280717
0.0478726
-0.292357
0.0678647
-0.267403
0.0840336
-0.213914
0.0954833
-0.153243
0.102941
-0.100907
0.107622
-0.0631684
0.110395
-0.0397683
0.111483
-0.027728
0.11051
-0.0237343
-0.0251041
-0.0144968
-0.303132
-0.021474
-0.280139
-0.0280544
-0.274136
-0.03241
-0.288001
-0.0353842
-0.264429
-0.0372218
-0.212077
-0.0385891
-0.151876
-0.0399943
-0.099502
-0.0416743
-0.0614884
-0.0439062
-0.0375364
-0.0472255
-0.0244087
-0.0524621
-0.0184977
-0.0170217
-0.0379957
-0.289296
-0.057889
-0.260245
-0.0857857
-0.24624
-0.11764
-0.256147
-0.14452
-0.237548
-0.164076
-0.19252
-0.177233
-0.138719
-0.186051
-0.0906844
-0.192365
-0.055174
-0.197623
-0.0322789
-0.203071
-0.0189601
-0.209991
-0.0115781
-0.00743236
-0.0628304
-0.267187
-0.0903854
-0.23269
-0.135743
-0.200882
-0.192153
-0.199738
-0.240542
-0.189159
-0.276047
-0.157016
-0.299941
-0.114826
-0.315272
-0.0753528
-0.325035
-0.0454112
-0.331702
-0.0256116
-0.337259
-0.0134032
-0.343596
-0.00524091
0.00136532
-0.0915364
-0.236564
-0.123671
-0.200556
-0.170489
-0.154064
-0.236861
-0.133365
-0.29951
-0.126509
-0.346909
-0.109618
-0.37981
-0.0819241
-0.401085
-0.0540775
-0.414088
-0.0324082
-0.421986
-0.0177142
-0.427337
-0.00805215
-0.43255
-2.73609e-05
0.00855624
-0.125709
-0.195406
-0.162931
-0.163335
-0.197717
-0.119278
-0.246965
-0.0841181
-0.303412
-0.0700616
-0.353227
-0.0598033
-0.391308
-0.0438424
-0.417058
-0.0283281
-0.433153
-0.016313
-0.443157
-0.00771036
-0.449864
-0.0013453
-0.455473
0.0055824
0.0147811
-0.160767
-0.142954
-0.206042
-0.11806
-0.239864
-0.0854557
-0.267139
-0.0568432
-0.298734
-0.0384662
-0.331862
-0.0266751
-0.357523
-0.0181819
-0.374458
-0.0113922
-0.385466
-0.00530545
-0.393505
0.000328219
-0.400635
0.00578517
-0.407182
0.0121291
0.0200257
-0.186912
-0.0827336
-0.237836
-0.0671356
-0.275773
-0.0475187
-0.303207
-0.02941
-0.325263
-0.0164093
-0.34323
-0.00870889
-0.357257
-0.00415463
-0.367719
-0.000930077
-0.374974
0.00194918
-0.379377
0.00473162
-0.381034
0.00744253
-0.379306
0.010401
0.0140345
-0.207276
-0.261321
-0.300548
-0.32636
-0.343053
-0.354682
-0.36337
-0.369788
-0.373886
-0.375493
-0.37449
-0.370509
)
;

boundaryField
{
    top
    {
        type            calculated;
        value           nonuniform List<scalar> 
13
(
-0.0170073
-0.01309
-0.00829186
-0.00359853
0.000284223
0.00291943
0.0045339
0.00548782
0.00604726
0.00633892
0.00643926
0.00642034
0.00636257
)
;
    }
    bottom
    {
        type            calculated;
        value           uniform 0;
    }
    frontAndBack
    {
        type            empty;
        value           nonuniform 0();
    }
    left_cyc
    {
        type            cyclic;
        value           nonuniform 0();
    }
    right_cyc
    {
        type            cyclic;
        value           nonuniform 0();
    }
    procBoundary3to0throughright_cyc
    {
        type            processorCyclic;
        value           nonuniform List<scalar> 
15
(
0.31072
0.53731
0.560778
0.500593
0.3988
0.264718
0.106733
-0.0605445
-0.21958
-0.352394
-0.439741
-0.461698
-0.412426
-0.373315
-0.362838
)
;
    }
    procBoundary3to2
    {
        type            processor;
        value           nonuniform List<scalar> 
16
(
-0.411945
-0.182038
-0.125416
-0.0873472
0.270269
-0.0366019
-0.0192202
-0.00425853
0.00969484
0.0241598
0.0407219
0.060913
0.0845519
0.108315
0.126691
0.14155
)
;
    }
}


// ************************************************************************* //
