/*--------------------------------*- C++ -*----------------------------------*\
| =========                 |                                                 |
| \\      /  F ield         | OpenFOAM: The Open Source CFD Toolbox           |
|  \\    /   O peration     | Version:  2.3.0                                 |
|   \\  /    A nd           | Web:      www.OpenFOAM.org                      |
|    \\/     M anipulation  |                                                 |
\*---------------------------------------------------------------------------*/
FoamFile
{
    version     2.0;
    format      ascii;
    class       volVectorField;
    location    "22000";
    object      U;
}
// * * * * * * * * * * * * * * * * * * * * * * * * * * * * * * * * * * * * * //

dimensions      [0 1 -1 0 0 0 0];

internalField   nonuniform List<vector> 
191
(
(72.6746 0 -6.06093)
(79.8114 0 2.36738)
(78.2175 0 6.76413)
(72.678 0 7.01701)
(67.0402 0 5.62972)
(62.3054 0 4.18077)
(58.4622 0 3.08938)
(55.3025 0 2.3548)
(52.6329 0 1.86904)
(50.3512 0 1.52922)
(48.4417 0 1.25224)
(46.9799 0 0.957477)
(37.2202 0 -20.6963)
(50.5428 0 -10.4871)
(61.686 0 -1.00608)
(69.6629 0 3.27238)
(74.9618 0 4.2693)
(78.2253 0 4.16012)
(79.9617 0 3.80231)
(80.6724 0 3.44494)
(80.752 0 3.09747)
(80.539 0 2.69669)
(80.3405 0 2.14957)
(80.4673 0 1.32621)
(24.6682 0 -27.3725)
(30.6069 0 -18.8648)
(40.3325 0 -10.9616)
(51.3083 0 -6.05938)
(60.6533 0 -3.07733)
(67.8891 0 -1.04442)
(72.9862 0 0.39194)
(76.4299 0 1.32616)
(78.7658 0 1.77497)
(80.4811 0 1.72891)
(81.9828 0 1.14421)
(83.5969 0 -0.0614362)
(17.5805 0 -32.4536)
(21.9035 0 -26.1224)
(30.0655 0 -20.6917)
(40.2025 0 -16.1507)
(49.3122 0 -11.7146)
(56.653 0 -7.66333)
(62.0196 0 -4.38095)
(65.833 0 -2.06671)
(68.6093 0 -0.740368)
(70.7998 0 -0.34309)
(72.742 0 -0.816258)
(74.6495 0 -2.12312)
(9.04415 0 -40.9746)
(12.1145 0 -36.3505)
(15.7174 0 -31.8261)
(23.504 0 -29.1804)
(31.864 0 -25.2639)
(39.4251 0 -19.5555)
(45.3946 0 -13.6663)
(49.7174 0 -8.73246)
(52.7974 0 -5.22213)
(55.067 0 -3.15347)
(56.87 0 -2.35924)
(58.4179 0 -2.65038)
(59.7921 0 -3.86073)
(5.22977 0 -43.4792)
(7.28236 0 -39.4888)
(10.3224 0 -37.2509)
(16.6967 0 -36.6175)
(22.6466 0 -32.45)
(27.8781 0 -25.4609)
(31.8134 0 -18.0636)
(34.5647 0 -11.8621)
(36.4755 0 -7.47001)
(37.8531 0 -4.85551)
(38.8958 0 -3.72864)
(39.6761 0 -3.76873)
(40.1619 0 -4.69901)
(1.81864 0 -44.8324)
(2.61101 0 -41.6976)
(4.25504 0 -41.0744)
(7.65383 0 -41.4162)
(10.6396 0 -36.7492)
(13.1389 0 -28.8067)
(14.9015 0 -20.4191)
(16.0257 0 -13.448)
(16.7177 0 -8.5468)
(17.1306 0 -5.60144)
(17.3228 0 -4.20669)
(17.255 0 -3.94102)
(16.8218 0 -4.46192)
(-1.43383 0 -44.8212)
(-2.15945 0 -42.0408)
(-3.33446 0 -42.1673)
(-3.82625 0 -42.8728)
(-4.19064 0 -37.9851)
(-4.53977 0 -29.6897)
(-4.811 0 -20.9331)
(-5.10147 0 -13.6759)
(-5.42224 0 -8.57699)
(-5.79834 0 -5.46437)
(-6.29233 0 -3.85688)
(-7.01726 0 -3.27203)
(-8.11725 0 -3.34392)
(-4.7625 0 -43.3382)
(-7.04701 0 -39.7669)
(-11.472 0 -39.6718)
(-16.3298 0 -40.4846)
(-20.1468 0 -35.9992)
(-23.2934 0 -28.2148)
(-25.4153 0 -19.8531)
(-26.8778 0 -12.8364)
(-27.9364 0 -7.84929)
(-28.8013 0 -4.73339)
(-29.6452 0 -2.99433)
(-30.6448 0 -2.12592)
(-31.9877 0 -1.76653)
(-8.45382 0 -40.4119)
(-12.0475 0 -35.0248)
(-17.7913 0 -33.6362)
(-27.0612 0 -34.079)
(-34.1147 0 -30.712)
(-39.837 0 -24.4175)
(-43.6797 0 -17.3051)
(-46.1977 0 -11.1398)
(-47.8281 0 -6.64927)
(-48.9464 0 -3.75879)
(-49.8377 0 -2.023)
(-50.7608 0 -0.939394)
(-51.9791 0 -0.169517)
(-12.8136 0 -36.367)
(-17.2102 0 -30.1268)
(-21.9639 0 -25.3411)
(-33.0697 0 -24.984)
(-42.5686 0 -23.229)
(-50.2034 0 -18.9095)
(-55.5044 0 -13.5099)
(-58.9947 0 -8.66575)
(-61.1595 0 -5.06432)
(-62.4912 0 -2.68574)
(-63.3698 0 -1.1516)
(-64.1278 0 0.0360887)
(-65.0959 0 1.1818)
(-17.7946 0 -31.1907)
(-23.2186 0 -25.2381)
(-27.9639 0 -18.0514)
(-35.0621 0 -13.2026)
(-43.461 0 -12.9474)
(-51.0889 0 -11.827)
(-57.1323 0 -8.81455)
(-61.3313 0 -5.70957)
(-63.9622 0 -3.30806)
(-65.5798 0 -1.68573)
(-66.6315 0 -0.554212)
(-67.4574 0 0.619835)
(-68.3137 0 2.06546)
(-22.7387 0 -24.5871)
(-29.7646 0 -19.7178)
(-35.1365 0 -13.7775)
(-39.2169 0 -9.34717)
(-43.238 0 -6.5651)
(-48.5548 0 -4.476)
(-52.6299 0 -2.90502)
(-55.3466 0 -1.72457)
(-57.0615 0 -0.7169)
(-58.2073 0 0.206005)
(-59.1566 0 1.12777)
(-60.1209 0 2.28158)
(-60.9195 0 3.78655)
(-26.4652 0 -15.4215)
(-34.4195 0 -12.2229)
(-40.418 0 -8.51774)
(-44.6024 0 -5.49757)
(-47.9202 0 -3.51621)
(-50.727 0 -2.35725)
(-52.9012 0 -1.59435)
(-54.5352 0 -0.959015)
(-55.6783 0 -0.35483)
(-56.3832 0 0.227034)
(-56.6951 0 0.80254)
(-56.5608 0 1.46477)
(-55.8041 0 2.27449)
(-29.3972 0 -10.133)
(-37.8757 0 -7.74927)
(-44.1212 0 -5.01168)
(-48.1932 0 -2.62627)
(-50.8168 0 -0.896219)
(-52.6211 0 0.216782)
(-53.9584 0 0.894063)
(-54.9647 0 1.35324)
(-55.6303 0 1.7164)
(-55.9227 0 2.02684)
(-55.8242 0 2.28907)
(-55.3037 0 2.51412)
(-54.2662 0 2.72926)
)
;

boundaryField
{
    top
    {
        type            directionMixed;
        refValue        uniform (0 0 0);
        refGradient     uniform (0 0 0);
        valueFraction   uniform (0 0 0 0 0 1);
        value           nonuniform List<vector> 
13
(
(-29.3972 0 0)
(-37.8757 0 0)
(-44.1212 0 0)
(-48.1932 0 0)
(-50.8168 0 0)
(-52.6211 0 0)
(-53.9584 0 0)
(-54.9647 0 0)
(-55.6303 0 0)
(-55.9227 0 0)
(-55.8242 0 0)
(-55.3037 0 0)
(-54.2662 0 0)
)
;
    }
    bottom
    {
        type            fixedValue;
        value           uniform (0 0 0);
    }
    frontAndBack
    {
        type            empty;
    }
    left_cyc
    {
        type            cyclic;
    }
    right_cyc
    {
        type            cyclic;
    }
    procBoundary3to0throughright_cyc
    {
        type            processorCyclic;
        value           nonuniform List<vector> 
15
(
(46.1617 0 0.555782)
(81.2392 0 0.0819977)
(85.555 0 -1.94874)
(76.6083 0 -4.2017)
(60.9637 0 -5.81024)
(40.2502 0 -6.25634)
(15.8937 0 -5.47675)
(-9.72252 0 -3.79613)
(-33.8227 0 -1.68413)
(-53.6869 0 0.443563)
(-66.4991 0 2.31976)
(-69.3656 0 3.61313)
(-61.4557 0 5.47226)
(-54.3633 0 3.11567)
(-52.6206 0 2.93194)
)
;
    }
    procBoundary3to2
    {
        type            processor;
        value           nonuniform List<vector> 
16
(
(58.0913 0 -15.0819)
(24.7774 0 -23.7322)
(18.4885 0 -32.1652)
(13.3924 0 -37.1069)
(13.3924 0 -37.1069)
(5.86199 0 -44.2517)
(3.39872 0 -46.782)
(1.24194 0 -48.0442)
(-0.777699 0 -48.0872)
(-2.86906 0 -46.9322)
(-5.27761 0 -44.5164)
(-8.1475 0 -40.6814)
(-11.4291 0 -35.1444)
(-14.6975 0 -27.887)
(-17.2264 0 -17.6785)
(-19.2732 0 -11.8894)
)
;
    }
}


// ************************************************************************* //
