/*--------------------------------*- C++ -*----------------------------------*\
| =========                 |                                                 |
| \\      /  F ield         | OpenFOAM: The Open Source CFD Toolbox           |
|  \\    /   O peration     | Version:  2.3.0                                 |
|   \\  /    A nd           | Web:      www.OpenFOAM.org                      |
|    \\/     M anipulation  |                                                 |
\*---------------------------------------------------------------------------*/
FoamFile
{
    version     2.0;
    format      ascii;
    class       volVectorField;
    location    "18000";
    object      U;
}
// * * * * * * * * * * * * * * * * * * * * * * * * * * * * * * * * * * * * * //

dimensions      [0 1 -1 0 0 0 0];

internalField   nonuniform List<vector> 
192
(
(46.1646 0 0.558532)
(46.2912 0 -0.02474)
(47.6928 0 -0.800908)
(50.5479 0 -1.66272)
(54.6257 0 -2.32153)
(58.9235 0 -2.27958)
(61.3796 0 -0.932081)
(58.9121 0 2.04671)
(47.9869 0 6.50511)
(25.8927 0 11.3019)
(-5.53151 0 13.3057)
(-34.8488 0 9.79783)
(-52.9777 0 4.87424)
(81.2331 0 0.0902818)
(82.928 0 -1.62841)
(85.7222 0 -3.67956)
(89.5401 0 -5.60229)
(93.8213 0 -6.47874)
(97.2198 0 -4.88892)
(97.3303 0 0.79986)
(90.4676 0 11.8452)
(72.1608 0 27.9687)
(38.6506 0 45.1609)
(-8.26892 0 52.1359)
(-52.0338 0 39.8174)
(-80.0804 0 22.1022)
(85.5432 0 -1.93652)
(87.9609 0 -4.42729)
(90.8169 0 -7.18484)
(93.8692 0 -9.3973)
(96.518 0 -9.57257)
(97.6181 0 -5.46023)
(95.261 0 5.65685)
(86.6207 0 26.1458)
(68.0623 0 55.8823)
(36.2276 0 87.7876)
(-7.73014 0 100.535)
(-48.7738 0 77.8758)
(-75.7986 0 45.0272)
(76.5976 0 -4.18853)
(78.5779 0 -6.83393)
(80.4305 0 -9.54885)
(81.8532 0 -11.2919)
(82.3302 0 -10.2316)
(81.0348 0 -3.62465)
(76.7229 0 11.9105)
(67.6974 0 39.4342)
(51.807 0 79.1076)
(27.054 0 121.769)
(-5.68036 0 138.636)
(-36.4989 0 108.535)
(-58.0943 0 64.6155)
(60.9585 0 -5.79818)
(61.8109 0 -8.17867)
(62.1487 0 -10.3831)
(61.7023 0 -11.2414)
(60.1137 0 -8.74888)
(56.9064 0 0.0761821)
(51.4757 0 18.8923)
(43.1775 0 50.9856)
(31.3245 0 96.5112)
(15.5912 0 144.995)
(-3.11468 0 163.897)
(-21.1654 0 130.059)
(-35.6634 0 79.9743)
(40.2517 0 -6.24693)
(39.8022 0 -8.06599)
(38.6498 0 -9.4965)
(36.626 0 -9.33491)
(33.5665 0 -5.54341)
(29.3313 0 4.88111)
(23.877 0 25.5549)
(17.3852 0 59.622)
(10.3971 0 106.892)
(4.13405 0 156.257)
(-0.576317 0 175.18)
(-5.78056 0 141.244)
(-12.5761 0 89.9091)
(15.9013 0 -5.47075)
(14.3635 0 -6.61418)
(12.1235 0 -7.25209)
(9.12999 0 -6.2113)
(5.39285 0 -1.50971)
(1.0596 0 9.71604)
(-3.45332 0 30.8202)
(-7.31648 0 64.5116)
(-8.9629 0 109.962)
(-6.09825 0 156.053)
(1.63365 0 173.427)
(8.05492 0 142.304)
(9.00193 0 93.9024)
(-9.71091 0 -3.79344)
(-11.9019 0 -4.30011)
(-14.7098 0 -4.2744)
(-18.0932 0 -2.60994)
(-21.8894 0 2.53251)
(-25.6792 0 13.7337)
(-28.637 0 33.9339)
(-29.3198 0 65.1598)
(-25.456 0 105.868)
(-14.4334 0 145.737)
(3.34734 0 160.589)
(19.4031 0 134.135)
(27.6351 0 91.7949)
(-33.8096 0 -1.68446)
(-36.2086 0 -1.6164)
(-39.1677 0 -1.05427)
(-42.5623 0 0.97957)
(-46.0531 0 6.09049)
(-48.9366 0 16.4655)
(-49.9824 0 34.4591)
(-47.2602 0 61.3647)
(-38.2235 0 95.2352)
(-20.5767 0 127.288)
(4.50679 0 139.159)
(27.7893 0 118.232)
(42.2742 0 83.8167)
(-53.6744 0 0.440321)
(-55.9467 0 1.06392)
(-58.747 0 2.08356)
(-61.8623 0 4.27549)
(-64.7876 0 8.90429)
(-66.5688 0 17.6654)
(-65.6441 0 32.2701)
(-59.822 0 53.4405)
(-46.6244 0 79.2794)
(-24.39 0 103.02)
(5.10973 0 111.817)
(32.9548 0 96.531)
(52.0546 0 70.8001)
(-66.4886 0 2.31365)
(-68.3888 0 3.47715)
(-70.7234 0 4.88725)
(-73.2351 0 7.0583)
(-75.3368 0 10.8503)
(-75.9471 0 17.4038)
(-73.3743 0 27.8271)
(-65.4107 0 42.4964)
(-49.841 0 59.9699)
(-25.6285 0 75.6941)
(5.14977 0 81.5721)
(34.5339 0 71.544)
(55.9189 0 54.3912)
(-69.358 0 3.60491)
(-70.6378 0 5.13425)
(-72.0964 0 6.71501)
(-73.5295 0 8.60966)
(-74.4324 0 11.2733)
(-73.8439 0 15.3102)
(-70.2527 0 21.3081)
(-61.722 0 29.4666)
(-46.4081 0 39.0129)
(-23.6628 0 47.5365)
(4.56096 0 50.797)
(31.7025 0 45.3603)
(52.1446 0 36.0435)
(-61.4526 0 5.46325)
(-61.6982 0 7.20771)
(-61.6479 0 9.00321)
(-61.2403 0 10.8954)
(-60.2312 0 12.9653)
(-58.0786 0 15.3155)
(-53.8678 0 18.0387)
(-46.3724 0 21.1465)
(-34.3808 0 24.4358)
(-17.4389 0 27.2843)
(3.21019 0 28.4233)
(23.1719 0 26.5908)
(-54.3711 0 3.11136)
(-52.2769 0 3.92175)
(-49.5384 0 4.71536)
(-46.15 0 5.51346)
(-42.0772 0 6.32151)
(-37.2523 0 7.12263)
(-31.5728 0 7.87327)
(-24.9121 0 8.5045)
(-17.1528 0 8.93945)
(-8.29004 0 9.14024)
(1.42049 0 9.16319)
(10.9862 0 9.10062)
(-52.6293 0 2.93102)
(-50.3519 0 3.11634)
(-47.4259 0 3.28692)
(-43.8279 0 3.44713)
(-39.5234 0 3.59893)
(-34.4744 0 3.74092)
(-28.6529 0 3.86798)
(-22.0635 0 3.97193)
(-14.7734 0 4.04442)
(-6.94344 0 4.08221)
(1.17728 0 4.09335)
(9.24739 0 4.07582)
)
;

boundaryField
{
    top
    {
        type            directionMixed;
        refValue        uniform (0 0 0);
        refGradient     uniform (0 0 0);
        valueFraction   uniform (0 0 0 0 0 1);
        value           nonuniform List<vector> 
12
(
(-52.6293 0 0)
(-50.3519 0 0)
(-47.4259 0 0)
(-43.8279 0 0)
(-39.5234 0 0)
(-34.4744 0 0)
(-28.6529 0 0)
(-22.0635 0 0)
(-14.7734 0 0)
(-6.94344 0 0)
(1.17728 0 0)
(9.24739 0 0)
)
;
    }
    bottom
    {
        type            fixedValue;
        value           uniform (0 0 0);
    }
    frontAndBack
    {
        type            empty;
    }
    left_cyc
    {
        type            cyclic;
    }
    right_cyc
    {
        type            cyclic;
    }
    procBoundary0to1
    {
        type            processor;
        value           nonuniform List<vector> 
16
(
(-60.6735 0 0.844724)
(-94.0352 0 7.46709)
(-90.5849 0 18.0565)
(-71.4316 0 28.6183)
(-46.2996 0 38.4937)
(-19.578 0 46.5265)
(6.27732 0 51.7527)
(29.5753 0 53.5485)
(48.8248 0 51.5649)
(62.5068 0 45.8959)
(68.7869 0 37.3855)
(65.1348 0 26.6905)
(38.6372 0 23.466)
(38.6372 0 23.466)
(19.5318 0 8.83402)
(16.9398 0 4.0296)
)
;
    }
    procBoundary0to3throughleft_cyc
    {
        type            processorCyclic;
        value           nonuniform List<vector> 
15
(
(46.9872 0 0.959384)
(80.4656 0 1.33184)
(83.5873 0 -0.0529733)
(74.639 0 -2.11389)
(59.7854 0 -3.85217)
(40.1608 0 -4.69235)
(16.8263 0 -4.4579)
(-8.10863 0 -3.34267)
(-31.9775 0 -1.76785)
(-51.9694 0 -0.173309)
(-65.0879 0 1.1756)
(-68.3073 0 2.05727)
(-60.9148 0 3.778)
(-55.8084 0 2.27006)
(-54.2716 0 2.72824)
)
;
    }
}


// ************************************************************************* //
