/*--------------------------------*- C++ -*----------------------------------*\
| =========                 |                                                 |
| \\      /  F ield         | OpenFOAM: The Open Source CFD Toolbox           |
|  \\    /   O peration     | Version:  2.3.0                                 |
|   \\  /    A nd           | Web:      www.OpenFOAM.org                      |
|    \\/     M anipulation  |                                                 |
\*---------------------------------------------------------------------------*/
FoamFile
{
    version     2.0;
    format      ascii;
    class       volScalarField;
    location    "20000";
    object      NUEff;
}
// * * * * * * * * * * * * * * * * * * * * * * * * * * * * * * * * * * * * * //

dimensions      [0 2 -1 0 0 0 0];

internalField   nonuniform List<scalar> 
3060
(
0.174905
0.174716
0.174371
0.173882
0.173262
0.172526
0.171685
0.170752
0.169734
0.168641
0.167478
0.166253
0.164979
0.163692
0.162423
0.161173
0.159944
0.158748
0.157601
0.156527
0.155549
0.154693
0.153985
0.153455
0.15313
0.153033
0.153175
0.153542
0.154109
0.154848
0.15573
0.156729
0.15782
0.158979
0.160184
0.161419
0.162675
0.163951
0.165244
0.166512
0.167726
0.168876
0.169954
0.170954
0.171867
0.172684
0.173392
0.173979
0.174431
0.174736
0.174881
0.174858
0.174668
0.174321
0.173831
0.173209
0.17247
0.171626
0.170688
0.169666
0.168568
0.167399
0.166169
0.16489
0.163601
0.162331
0.16108
0.159851
0.158657
0.157514
0.156446
0.155476
0.15463
0.153935
0.153421
0.153113
0.153036
0.153197
0.153581
0.154163
0.154914
0.155806
0.156813
0.157909
0.159071
0.160277
0.161512
0.162767
0.164042
0.165332
0.166595
0.167804
0.168948
0.170021
0.171017
0.171926
0.172739
0.173445
0.17403
0.17448
0.174784
0.174929
0.625986
0.618294
0.603958
0.583016
0.555659
0.522504
0.484836
0.444636
0.404257
0.365868
0.330985
0.300339
0.27404
0.251826
0.233638
0.218811
0.206558
0.19639
0.18797
0.181045
0.175418
0.170941
0.167517
0.165094
0.163659
0.163237
0.163857
0.165483
0.168098
0.171721
0.176414
0.182284
0.189489
0.198236
0.208794
0.221525
0.236965
0.256016
0.279071
0.306293
0.33788
0.373601
0.412551
0.453038
0.492795
0.529502
0.561317
0.587113
0.606389
0.619005
0.624911
0.62396
0.616207
0.601762
0.580674
0.553156
0.519858
0.482104
0.441907
0.401634
0.363435
0.328793
0.298407
0.272364
0.25039
0.23245
0.21781
0.205711
0.195676
0.187373
0.180552
0.175017
0.170626
0.167284
0.16494
0.163586
0.163249
0.163953
0.165659
0.168355
0.17206
0.17684
0.182807
0.190119
0.198988
0.209685
0.222578
0.238216
0.257524
0.280823
0.308306
0.340151
0.376104
0.415225
0.45579
0.495524
0.532124
0.563784
0.589419
0.608557
0.621073
0.62693
0.9397
0.938943
0.937513
0.935364
0.932406
0.928492
0.923396
0.916763
0.90804
0.896333
0.880137
0.856788
0.821346
0.764536
0.671937
0.542547
0.414751
0.325196
0.269944
0.235521
0.213184
0.198238
0.18818
0.181669
0.17802
0.17697
0.178516
0.182684
0.189812
0.200686
0.216826
0.241061
0.27872
0.339591
0.437362
0.56981
0.693624
0.778327
0.829897
0.862348
0.883945
0.899055
0.910045
0.918267
0.924532
0.929343
0.933023
0.93578
0.937748
0.939004
0.939586
0.939492
0.938727
0.937281
0.935107
0.932113
0.928147
0.922976
0.916235
0.907351
0.895398
0.878807
0.854796
0.818181
0.759266
0.663511
0.532181
0.406387
0.319845
0.266616
0.233376
0.211751
0.197265
0.18753
0.18127
0.177838
0.177
0.178756
0.183148
0.190542
0.201769
0.218424
0.243477
0.282513
0.345716
0.446608
0.580112
0.701226
0.782935
0.832684
0.864128
0.885151
0.899915
0.910686
0.918764
0.92493
0.929673
0.933306
0.93603
0.937975
0.939217
0.939793
0.971485
0.971178
0.970602
0.969746
0.968589
0.967093
0.9652
0.962827
0.959849
0.956081
0.951244
0.944894
0.936307
0.924228
0.906307
0.878033
0.829003
0.735633
0.570556
0.399793
0.300634
0.249658
0.221821
0.206145
0.198057
0.19581
0.199127
0.208478
0.226018
0.25717
0.314958
0.427665
0.607324
0.759131
0.841158
0.88483
0.910521
0.927025
0.938276
0.946339
0.952338
0.956929
0.960514
0.963351
0.965612
0.96741
0.968825
0.969908
0.970692
0.971199
0.971435
0.971397
0.971087
0.970505
0.969641
0.968472
0.966958
0.965042
0.962636
0.959614
0.955784
0.950855
0.944371
0.935577
0.923157
0.904644
0.875234
0.823804
0.725386
0.55545
0.389212
0.29519
0.246746
0.220175
0.205234
0.197665
0.195873
0.199651
0.20956
0.227941
0.260605
0.32151
0.440056
0.621899
0.767709
0.845527
0.887261
0.912019
0.927993
0.938944
0.946821
0.9527
0.957208
0.960736
0.963533
0.965763
0.96754
0.968939
0.97001
0.970787
0.971289
0.971523
0.98238
0.982186
0.981824
0.98129
0.980572
0.979653
0.978505
0.977087
0.97534
0.973182
0.970488
0.967075
0.96266
0.956793
0.948726
0.937117
0.919368
0.889905
0.835207
0.721856
0.52402
0.360632
0.2814
0.244161
0.22703
0.222501
0.229216
0.249353
0.292292
0.384347
0.564916
0.750847
0.849009
0.897046
0.923541
0.939789
0.950556
0.958115
0.963648
0.967836
0.971086
0.973659
0.975724
0.977395
0.978751
0.979845
0.980716
0.981389
0.981879
0.982198
0.982347
0.982323
0.982127
0.981762
0.981223
0.980498
0.979569
0.978407
0.976971
0.975201
0.97301
0.970271
0.966794
0.962287
0.956282
0.947996
0.93602
0.917603
0.886783
0.828971
0.708694
0.507376
0.351623
0.27722
0.242159
0.226229
0.222626
0.230299
0.251812
0.29743
0.395451
0.582219
0.761721
0.854111
0.899692
0.925081
0.940767
0.951217
0.958583
0.963993
0.968097
0.97129
0.973822
0.975857
0.977506
0.978845
0.979927
0.980789
0.981454
0.981941
0.982256
0.982403
0.98764
0.987493
0.987218
0.986813
0.986272
0.985584
0.984732
0.983689
0.98242
0.980872
0.978971
0.976607
0.973616
0.96975
0.964611
0.957511
0.947272
0.931642
0.905836
0.858358
0.759631
0.571091
0.392786
0.306371
0.270734
0.261858
0.275097
0.317765
0.41921
0.612543
0.785053
0.870244
0.912039
0.935289
0.949614
0.959112
0.965758
0.970608
0.974277
0.977127
0.979388
0.98121
0.982695
0.983913
0.984912
0.985727
0.98638
0.986887
0.987259
0.987501
0.987614
0.987596
0.987447
0.98717
0.986762
0.986216
0.98552
0.984658
0.983603
0.982317
0.980747
0.978816
0.976411
0.973363
0.969413
0.964149
0.956851
0.946283
0.93006
0.903068
0.852891
0.747792
0.553567
0.382662
0.302033
0.269144
0.262102
0.277286
0.323268
0.431713
0.629852
0.794666
0.874724
0.914389
0.936669
0.950493
0.959706
0.966176
0.970917
0.974512
0.97731
0.979534
0.981328
0.982793
0.983996
0.984983
0.985789
0.986435
0.986937
0.987306
0.987546
0.987658
0.990596
0.990471
0.990238
0.989896
0.98944
0.988864
0.988155
0.987295
0.986258
0.985007
0.983487
0.981621
0.979294
0.976333
0.972472
0.967255
0.959965
0.949321
0.932844
0.905234
0.853829
0.748246
0.564278
0.408596
0.338849
0.322033
0.34723
0.430966
0.602414
0.77491
0.866671
0.911872
0.936688
0.951752
0.961607
0.968419
0.973329
0.976985
0.979804
0.982028
0.983818
0.985278
0.986482
0.987479
0.988305
0.988983
0.989531
0.989958
0.990273
0.990478
0.990575
0.990559
0.990433
0.990198
0.989852
0.989393
0.988811
0.988094
0.987224
0.986174
0.984905
0.983363
0.981466
0.979097
0.976075
0.972124
0.966772
0.95927
0.948267
0.931138
0.902213
0.847837
0.735819
0.548305
0.400018
0.335805
0.322491
0.351472
0.441709
0.618842
0.785218
0.871583
0.914428
0.93817
0.952686
0.962232
0.968857
0.973647
0.977224
0.979988
0.982174
0.983935
0.985374
0.986562
0.987548
0.988364
0.989035
0.989577
0.990001
0.990313
0.990516
0.990611
0.9924
0.992286
0.992073
0.991761
0.991348
0.990828
0.990192
0.989427
0.988512
0.987419
0.986104
0.984507
0.982537
0.980058
0.976863
0.972612
0.966791
0.958523
0.946214
0.926741
0.893405
0.830985
0.711856
0.549155
0.441786
0.413478
0.455663
0.578827
0.740118
0.846427
0.901439
0.9313
0.949032
0.960386
0.968088
0.973553
0.977568
0.9806
0.982966
0.984854
0.986389
0.987655
0.988709
0.989591
0.990327
0.990936
0.991431
0.991819
0.992106
0.992294
0.992382
0.992368
0.992252
0.992037
0.991723
0.991306
0.990781
0.990138
0.989364
0.988439
0.987331
0.985997
0.984375
0.98237
0.979842
0.976575
0.97222
0.966239
0.957714
0.944967
0.92468
0.889694
0.823748
0.699021
0.537095
0.436691
0.414256
0.462624
0.592238
0.751495
0.852431
0.90457
0.933082
0.950133
0.96111
0.968588
0.973912
0.977833
0.980802
0.983123
0.984979
0.986491
0.987739
0.98878
0.989651
0.990379
0.990982
0.991472
0.991857
0.992141
0.992327
0.992414
0.993561
0.993451
0.993245
0.992945
0.992549
0.992053
0.99145
0.99073
0.989877
0.988867
0.987665
0.986217
0.984449
0.982246
0.97943
0.975731
0.97074
0.963789
0.953718
0.938399
0.913664
0.871034
0.795098
0.677841
0.569718
0.534645
0.58584
0.702158
0.813072
0.881235
0.919469
0.941919
0.955993
0.96534
0.971844
0.976544
0.980048
0.982725
0.984833
0.986531
0.987925
0.989086
0.990062
0.990886
0.991579
0.992157
0.99263
0.993003
0.993279
0.99346
0.993545
0.993531
0.99342
0.993213
0.99291
0.99251
0.99201
0.991401
0.990673
0.98981
0.988787
0.987568
0.986098
0.9843
0.982054
0.979178
0.975391
0.97027
0.963115
0.952712
0.936814
0.911005
0.8663
0.786824
0.667375
0.563613
0.53565
0.593672
0.712587
0.820272
0.885262
0.921761
0.943311
0.956891
0.965948
0.972273
0.976857
0.980282
0.982905
0.984973
0.986643
0.988017
0.989162
0.990126
0.990941
0.991627
0.992199
0.992668
0.993037
0.993311
0.993491
0.993575
0.99434
0.994229
0.994022
0.993721
0.993325
0.992832
0.992236
0.991529
0.990698
0.989724
0.988575
0.987206
0.985549
0.983503
0.980911
0.977541
0.973054
0.966901
0.958175
0.945295
0.925405
0.893304
0.84068
0.762542
0.682749
0.653098
0.695634
0.778999
0.85278
0.900768
0.929978
0.948214
0.960127
0.968264
0.97404
0.978279
0.981477
0.983947
0.985908
0.987503
0.988824
0.989936
0.99088
0.991683
0.992365
0.992938
0.993409
0.993782
0.994059
0.994241
0.994326
0.994312
0.9942
0.993992
0.993689
0.993289
0.992791
0.992189
0.991475
0.990635
0.989649
0.988485
0.987095
0.985411
0.983326
0.98068
0.977234
0.972634
0.96631
0.957314
0.943987
0.923326
0.889877
0.835153
0.755349
0.677753
0.653982
0.70174
0.785974
0.857678
0.903752
0.931802
0.949376
0.960901
0.968801
0.974425
0.978563
0.981691
0.984113
0.986039
0.987608
0.98891
0.990008
0.99094
0.991735
0.99241
0.992977
0.993444
0.993813
0.994088
0.994269
0.994353
0.994883
0.994769
0.994555
0.994245
0.993837
0.99333
0.992721
0.992004
0.991167
0.990195
0.989059
0.987719
0.986114
0.98415
0.981683
0.978513
0.97434
0.9687
0.960846
0.949547
0.932736
0.907042
0.867949
0.814093
0.760325
0.739834
0.769106
0.825204
0.87667
0.912874
0.936537
0.952078
0.962589
0.969942
0.975253
0.979204
0.98222
0.984576
0.986463
0.988011
0.989307
0.990409
0.991352
0.992163
0.992856
0.993442
0.993925
0.99431
0.994596
0.994784
0.994872
0.994858
0.994742
0.994527
0.994214
0.993803
0.993291
0.992677
0.991953
0.991107
0.990123
0.988973
0.987614
0.985983
0.983983
0.981466
0.978226
0.973953
0.968163
0.96008
0.948419
0.931021
0.904394
0.864014
0.809263
0.756906
0.740453
0.773239
0.829932
0.880237
0.915227
0.938063
0.95309
0.963282
0.970431
0.97561
0.979469
0.982422
0.984733
0.986587
0.988111
0.98939
0.990477
0.99141
0.992212
0.992899
0.993479
0.993959
0.99434
0.994624
0.99481
0.994898
0.995283
0.995162
0.994937
0.99461
0.994181
0.993649
0.993013
0.992267
0.991403
0.990406
0.989252
0.987905
0.986307
0.984371
0.981965
0.978909
0.974934
0.969634
0.962382
0.952191
0.937527
0.916163
0.88572
0.846828
0.810168
0.796504
0.816072
0.854636
0.892328
0.920913
0.940796
0.954452
0.96398
0.970796
0.975801
0.979574
0.982489
0.984793
0.986656
0.9882
0.989507
0.990628
0.991597
0.992435
0.993157
0.99377
0.994278
0.994682
0.994983
0.995181
0.995273
0.995258
0.995137
0.994911
0.994581
0.994149
0.993612
0.99297
0.992217
0.991344
0.990336
0.989168
0.987803
0.98618
0.98421
0.981758
0.978636
0.974569
0.969135
0.961684
0.951191
0.936066
0.914032
0.88278
0.843474
0.807884
0.796915
0.818851
0.857979
0.895053
0.92284
0.942112
0.955357
0.964616
0.971253
0.976138
0.979827
0.982683
0.984944
0.986776
0.988298
0.989587
0.990694
0.991653
0.992483
0.993198
0.993806
0.994309
0.99471
0.995009
0.995206
0.995297
0.995593
0.995465
0.995226
0.994878
0.994421
0.993856
0.993181
0.992392
0.991483
0.99044
0.989244
0.98786
0.986235
0.984288
0.981896
0.978895
0.975041
0.969974
0.96316
0.953805
0.940761
0.922575
0.898138
0.868994
0.843142
0.833824
0.847228
0.874694
0.903316
0.926546
0.943632
0.955863
0.964654
0.971081
0.975881
0.979549
0.982418
0.984714
0.986592
0.988167
0.989512
0.990676
0.99169
0.992574
0.993338
0.993988
0.994528
0.994958
0.995278
0.995488
0.995586
0.995571
0.995442
0.995201
0.994851
0.99439
0.993821
0.993139
0.992344
0.991425
0.990372
0.989162
0.98776
0.986111
0.98413
0.981695
0.978633
0.974693
0.969505
0.962515
0.952904
0.939493
0.920817
0.895868
0.86658
0.841579
0.834101
0.849151
0.877145
0.905461
0.928161
0.944788
0.956685
0.965245
0.971513
0.976203
0.979793
0.982607
0.984862
0.98671
0.988262
0.98959
0.990741
0.991745
0.99262
0.993377
0.994022
0.994558
0.994985
0.995303
0.995511
0.995609
0.995852
0.995715
0.995461
0.995089
0.9946
0.993996
0.993274
0.992432
0.991464
0.99036
0.989101
0.987657
0.985978
0.983987
0.981576
0.97859
0.974805
0.969903
0.963432
0.954753
0.943025
0.927341
0.907361
0.884963
0.86617
0.859607
0.86909
0.889246
0.911508
0.930711
0.945578
0.956649
0.964845
0.970972
0.97563
0.979242
0.982105
0.984426
0.98635
0.98798
0.989386
0.990614
0.991689
0.99263
0.993445
0.99414
0.994717
0.995177
0.995519
0.995743
0.995847
0.995831
0.995693
0.995437
0.995062
0.994571
0.993961
0.993234
0.992384
0.991408
0.990293
0.98902
0.987557
0.985854
0.983833
0.981379
0.978335
0.974471
0.969458
0.962831
0.953936
0.941914
0.925873
0.905573
0.883179
0.865068
0.859799
0.87046
0.891087
0.913227
0.93208
0.946602
0.957401
0.965398
0.971384
0.975941
0.979479
0.982289
0.984572
0.986467
0.988075
0.989464
0.990678
0.991743
0.992675
0.993484
0.994173
0.994746
0.995203
0.995542
0.995765
0.995868
0.996081
0.995937
0.995665
0.995269
0.994747
0.994101
0.993328
0.992427
0.991392
0.990215
0.988878
0.987355
0.985601
0.983546
0.98109
0.978091
0.974344
0.969564
0.963386
0.955305
0.944727
0.931144
0.914681
0.897189
0.883183
0.878418
0.885331
0.900474
0.918038
0.934022
0.947007
0.957059
0.964731
0.970605
0.975162
0.978748
0.981631
0.984002
0.985994
0.987701
0.989185
0.990489
0.991637
0.992643
0.993515
0.994259
0.994875
0.995366
0.99573
0.995968
0.996079
0.996062
0.995916
0.995643
0.995244
0.994719
0.994067
0.993289
0.99238
0.991337
0.990148
0.988797
0.987256
0.985479
0.983393
0.980897
0.977843
0.974021
0.969142
0.962827
0.954564
0.943754
0.929914
0.913262
0.895845
0.882384
0.878556
0.886332
0.90188
0.919423
0.935184
0.947913
0.957747
0.965249
0.970999
0.975462
0.97898
0.981812
0.984146
0.986109
0.987794
0.989262
0.990553
0.99169
0.992687
0.993553
0.994291
0.994903
0.99539
0.995752
0.995989
0.996099
0.996297
0.996144
0.995857
0.995437
0.994883
0.994195
0.993372
0.992411
0.991306
0.990049
0.988626
0.987013
0.98517
0.983036
0.980522
0.977496
0.973779
0.969128
0.963237
0.955727
0.946202
0.93444
0.920822
0.907024
0.896414
0.892882
0.898025
0.909578
0.923559
0.936903
0.948238
0.957349
0.964517
0.970142
0.974593
0.978163
0.98108
0.983514
0.985588
0.987384
0.988958
0.990347
0.991572
0.992645
0.993575
0.994367
0.995022
0.995542
0.995928
0.99618
0.996297
0.996278
0.996125
0.995836
0.995413
0.994856
0.994163
0.993334
0.992365
0.991251
0.989983
0.988546
0.986915
0.98505
0.982886
0.980333
0.977256
0.97347
0.96873
0.96272
0.955058
0.945354
0.933412
0.919691
0.906001
0.895825
0.892984
0.898769
0.910662
0.924678
0.937887
0.949036
0.957974
0.965
0.970515
0.974881
0.978388
0.981257
0.983656
0.985703
0.987477
0.989035
0.99041
0.991624
0.992689
0.993612
0.994398
0.995048
0.995565
0.995949
0.996199
0.996316
0.996508
0.996348
0.996047
0.995605
0.995023
0.994298
0.993429
0.992412
0.991242
0.989911
0.988405
0.986703
0.984772
0.982559
0.979985
0.976936
0.973254
0.968739
0.963148
0.956206
0.947682
0.937545
0.926296
0.915377
0.90727
0.904623
0.908494
0.917377
0.928532
0.939647
0.949492
0.957701
0.964362
0.969726
0.974064
0.977612
0.980561
0.98306
0.985216
0.9871
0.988762
0.990231
0.991528
0.992664
0.993647
0.994482
0.995172
0.995719
0.996124
0.996388
0.996511
0.996491
0.99633
0.996027
0.995583
0.994997
0.994268
0.993393
0.992368
0.991189
0.989846
0.988326
0.986607
0.984653
0.982412
0.979802
0.976705
0.972961
0.968367
0.962675
0.955611
0.94695
0.936692
0.925397
0.914596
0.906833
0.904698
0.90905
0.918213
0.929432
0.940473
0.950187
0.958262
0.964806
0.970076
0.974339
0.977829
0.980734
0.983198
0.985328
0.987192
0.988837
0.990293
0.991579
0.992707
0.993683
0.994512
0.995197
0.99574
0.996143
0.996406
0.996528
0.996722
0.996555
0.996243
0.995786
0.995182
0.994429
0.993525
0.992464
0.991241
0.989848
0.988271
0.986493
0.984486
0.982207
0.979589
0.976534
0.972911
0.968561
0.963301
0.95695
0.9494
0.940749
0.931525
0.922912
0.916713
0.914722
0.917646
0.924477
0.933342
0.942531
0.950996
0.958315
0.964444
0.969516
0.973714
0.977218
0.980182
0.982729
0.984953
0.986914
0.98865
0.990188
0.991544
0.992731
0.993755
0.994623
0.995339
0.995905
0.996325
0.996599
0.996726
0.996706
0.996538
0.996225
0.995765
0.995157
0.9944
0.99349
0.992422
0.991189
0.989784
0.988194
0.986399
0.98437
0.982065
0.979414
0.976315
0.972638
0.968219
0.962875
0.956428
0.948779
0.940051
0.930817
0.922319
0.916389
0.914778
0.918061
0.925119
0.934059
0.943214
0.951593
0.958811
0.964847
0.969839
0.973972
0.977424
0.980348
0.982863
0.985063
0.987003
0.988724
0.990248
0.991594
0.992772
0.993789
0.994651
0.995362
0.995926
0.996343
0.996615
0.996742
0.996941
0.996771
0.996453
0.995987
0.995371
0.994603
0.993679
0.992592
0.991337
0.989904
0.988281
0.986453
0.984398
0.982084
0.979457
0.976434
0.972914
0.968778
0.963901
0.958182
0.951603
0.944334
0.93687
0.930146
0.925438
0.923949
0.926146
0.931363
0.938333
0.945824
0.952991
0.959411
0.964964
0.969691
0.9737
0.977117
0.980058
0.982621
0.984883
0.986892
0.988676
0.990258
0.991652
0.992868
0.993917
0.994803
0.995533
0.996111
0.996538
0.996818
0.996948
0.996927
0.996756
0.996436
0.995967
0.995348
0.994576
0.993646
0.992552
0.991287
0.989843
0.988207
0.986363
0.984288
0.98195
0.979292
0.97623
0.972663
0.96847
0.963527
0.957735
0.951088
0.943774
0.936323
0.929701
0.9252
0.92399
0.926453
0.931848
0.938893
0.946377
0.95349
0.95984
0.965321
0.969983
0.973937
0.977309
0.980215
0.982749
0.984988
0.986978
0.988747
0.990316
0.991699
0.992907
0.993949
0.99483
0.995555
0.99613
0.996555
0.996833
0.996962
0.99717
0.996999
0.996681
0.996214
0.995599
0.994831
0.993906
0.992818
0.991558
0.990118
0.988487
0.986652
0.984595
0.982298
0.979715
0.976785
0.973435
0.969585
0.965161
0.960127
0.954524
0.948549
0.942634
0.937476
0.933955
0.932856
0.934486
0.938408
0.94379
0.949771
0.955704
0.96121
0.966129
0.970439
0.974189
0.977453
0.980312
0.982837
0.985086
0.987097
0.988889
0.990478
0.991877
0.993097
0.994147
0.995033
0.995763
0.99634
0.996768
0.997047
0.997178
0.997157
0.996985
0.996665
0.996197
0.995578
0.994806
0.993875
0.99278
0.991512
0.990062
0.988418
0.986567
0.984492
0.982173
0.979563
0.9766
0.973211
0.969315
0.964841
0.959755
0.954108
0.948113
0.942221
0.93715
0.933783
0.932885
0.934708
0.938767
0.944216
0.950207
0.956111
0.96157
0.966436
0.970696
0.974402
0.977629
0.980457
0.982956
0.985185
0.987178
0.988956
0.990533
0.991922
0.993134
0.994176
0.995058
0.995783
0.996357
0.996783
0.997061
0.997191
0.997409
0.997241
0.996929
0.996472
0.995871
0.995121
0.994218
0.993156
0.991927
0.990522
0.988931
0.987144
0.985149
0.982937
0.980473
0.977717
0.974623
0.971146
0.967255
0.962958
0.958331
0.953567
0.949008
0.945153
0.94258
0.941787
0.942971
0.945851
0.9499
0.954542
0.959308
0.963886
0.968111
0.971923
0.975325
0.978352
0.981049
0.983462
0.985631
0.987582
0.989327
0.990876
0.992241
0.993431
0.994455
0.995319
0.996032
0.996596
0.997015
0.997289
0.997418
0.997397
0.997229
0.996915
0.996456
0.995852
0.995098
0.99419
0.993122
0.991885
0.99047
0.988867
0.987066
0.985056
0.982824
0.980338
0.977556
0.974431
0.970919
0.966992
0.96266
0.958009
0.95324
0.948708
0.944921
0.94246
0.941808
0.943126
0.946108
0.950213
0.954872
0.959626
0.964175
0.968365
0.972141
0.97551
0.978507
0.981178
0.983569
0.98572
0.987656
0.989388
0.990926
0.992282
0.993464
0.994482
0.995342
0.99605
0.996612
0.997029
0.997302
0.99743
0.997658
0.997497
0.997197
0.996761
0.996188
0.995476
0.99462
0.993615
0.992454
0.99113
0.989634
0.987959
0.986099
0.984051
0.981794
0.979304
0.976559
0.973542
0.970255
0.966731
0.963059
0.959401
0.956012
0.953226
0.951404
0.950849
0.951683
0.953733
0.956677
0.960151
0.963836
0.967495
0.970981
0.97422
0.977186
0.979882
0.982326
0.984542
0.986551
0.988372
0.990008
0.991466
0.992752
0.993876
0.994845
0.995665
0.996343
0.996881
0.997281
0.997544
0.997668
0.997648
0.997486
0.997185
0.996747
0.996171
0.995455
0.994595
0.993584
0.992416
0.991083
0.989577
0.987891
0.986017
0.983954
0.981679
0.979168
0.9764
0.973359
0.970048
0.966504
0.96282
0.959166
0.955802
0.953067
0.951323
0.950863
0.951788
0.953909
0.956898
0.960391
0.964074
0.967719
0.971183
0.974398
0.97734
0.980013
0.982437
0.984635
0.98663
0.988438
0.990063
0.99151
0.992789
0.993906
0.994869
0.995685
0.996359
0.996894
0.997293
0.997555
0.997678
0.997917
0.997766
0.997486
0.997081
0.996551
0.995894
0.995109
0.994191
0.993135
0.991936
0.990589
0.989089
0.987434
0.985628
0.983659
0.981519
0.979202
0.976713
0.97407
0.971318
0.968538
0.965854
0.963441
0.961505
0.960263
0.959889
0.960455
0.96186
0.963916
0.966407
0.969128
0.971917
0.974656
0.977275
0.979734
0.982018
0.984126
0.986064
0.987839
0.989461
0.990928
0.992242
0.993408
0.994431
0.995316
0.99607
0.996694
0.997193
0.997565
0.997811
0.997926
0.997908
0.997756
0.997476
0.997069
0.996536
0.995876
0.995087
0.994164
0.993102
0.991897
0.990541
0.989031
0.987366
0.985548
0.983565
0.981409
0.979077
0.976572
0.973915
0.971153
0.968369
0.965693
0.9633
0.961402
0.960211
0.959898
0.960524
0.961976
0.964065
0.966572
0.969298
0.972081
0.974809
0.977413
0.979856
0.982124
0.984218
0.986142
0.987906
0.989517
0.990974
0.99228
0.993439
0.994456
0.995338
0.996087
0.996709
0.997205
0.997576
0.99782
0.997935
0.998184
0.998046
0.997794
0.997429
0.996955
0.996371
0.995677
0.994872
0.993952
0.992916
0.991761
0.990485
0.989091
0.987583
0.98596
0.984223
0.982378
0.98044
0.978434
0.976401
0.974406
0.972534
0.970895
0.96961
0.968798
0.968555
0.968925
0.969847
0.97122
0.972921
0.974831
0.976845
0.97888
0.98088
0.982804
0.98463
0.986347
0.987948
0.989433
0.990802
0.992052
0.99318
0.99419
0.995082
0.995861
0.996527
0.997083
0.99753
0.997865
0.998088
0.998193
0.998176
0.998038
0.997785
0.997419
0.996942
0.996356
0.995659
0.994849
0.993925
0.992883
0.991721
0.990439
0.989037
0.98752
0.985887
0.98414
0.982285
0.980338
0.978324
0.976287
0.974293
0.972429
0.970806
0.969545
0.968765
0.968561
0.968967
0.96992
0.971315
0.97303
0.974945
0.976959
0.978989
0.98098
0.982895
0.984711
0.986418
0.98801
0.989486
0.990848
0.99209
0.993212
0.994216
0.995104
0.995879
0.996542
0.997096
0.99754
0.997874
0.998096
0.998201
0.998457
0.998337
0.998117
0.997801
0.997394
0.996896
0.996309
0.995635
0.994873
0.994023
0.993086
0.992063
0.990957
0.989774
0.988517
0.987195
0.985817
0.984401
0.98297
0.981556
0.980204
0.978968
0.977909
0.977095
0.976587
0.976437
0.976667
0.977246
0.97812
0.979224
0.980493
0.981865
0.983289
0.984722
0.986135
0.987505
0.988816
0.99006
0.991228
0.992317
0.993322
0.99424
0.99507
0.995811
0.996464
0.997029
0.997504
0.997889
0.99818
0.998374
0.998466
0.998451
0.99833
0.99811
0.997793
0.997383
0.996883
0.996294
0.995617
0.994851
0.993998
0.993056
0.992027
0.990916
0.989726
0.988463
0.987135
0.985751
0.98433
0.982896
0.981482
0.980132
0.978902
0.977855
0.977056
0.976568
0.976441
0.976693
0.97729
0.978178
0.979292
0.980566
0.98194
0.983362
0.984792
0.9862
0.987564
0.988869
0.990106
0.991268
0.992352
0.993352
0.994265
0.995091
0.995829
0.996479
0.997041
0.997514
0.997897
0.998187
0.99838
0.998472
0.998736
0.998636
0.998453
0.998192
0.997859
0.997455
0.996986
0.996452
0.995857
0.995202
0.994489
0.99372
0.9929
0.992033
0.991125
0.990186
0.989227
0.988261
0.987306
0.986384
0.985522
0.984751
0.984103
0.983612
0.98331
0.983221
0.983358
0.983704
0.984232
0.984911
0.985706
0.986585
0.987518
0.98848
0.989448
0.990406
0.991341
0.992242
0.9931
0.99391
0.994667
0.995368
0.99601
0.996591
0.99711
0.997563
0.997949
0.998264
0.998505
0.998666
0.998743
0.998731
0.99863
0.998447
0.998185
0.99785
0.997446
0.996974
0.996438
0.99584
0.995182
0.994466
0.993694
0.992871
0.991999
0.991088
0.990145
0.989183
0.988215
0.987259
0.986338
0.985479
0.984712
0.984071
0.98359
0.983299
0.983223
0.983373
0.983729
0.984266
0.984951
0.985751
0.986632
0.987565
0.988525
0.989491
0.990446
0.991378
0.992275
0.99313
0.993936
0.99469
0.995387
0.996026
0.996605
0.997121
0.997573
0.997957
0.998271
0.998511
0.998672
0.998748
0.999018
0.998939
0.998796
0.998595
0.998339
0.998034
0.997684
0.997291
0.996859
0.996391
0.99589
0.995357
0.994796
0.994209
0.993604
0.992989
0.992371
0.991762
0.991171
0.990612
0.990099
0.989649
0.989276
0.988998
0.988828
0.988778
0.988855
0.98905
0.989351
0.989742
0.990209
0.990734
0.991302
0.9919
0.992513
0.993133
0.993748
0.99435
0.994933
0.995488
0.996015
0.99651
0.99697
0.997393
0.997776
0.998116
0.998409
0.998651
0.998837
0.998963
0.999024
0.999014
0.998935
0.998792
0.99859
0.998333
0.998027
0.997675
0.997281
0.996848
0.996378
0.995874
0.995339
0.994776
0.994187
0.99358
0.992963
0.992344
0.991734
0.991143
0.990585
0.990075
0.989627
0.989259
0.988986
0.988822
0.988779
0.988863
0.989064
0.98937
0.989765
0.990234
0.990761
0.99133
0.991927
0.99254
0.993158
0.993772
0.994372
0.994952
0.995506
0.99603
0.996523
0.996981
0.997403
0.997784
0.998123
0.998415
0.998656
0.998841
0.998967
0.999027
0.9993
0.999244
0.999143
0.999002
0.998826
0.998617
0.998381
0.998121
0.997839
0.997539
0.997223
0.996893
0.996549
0.996193
0.99583
0.995467
0.99511
0.994762
0.994432
0.994124
0.993847
0.993607
0.993411
0.993265
0.993177
0.993152
0.993191
0.993293
0.99345
0.993657
0.993906
0.994191
0.994505
0.994841
0.995192
0.995552
0.995916
0.996278
0.996632
0.996974
0.997302
0.997615
0.997911
0.998188
0.998443
0.998673
0.998873
0.999041
0.999172
0.999261
0.999304
0.999297
0.999241
0.99914
0.998999
0.998822
0.998612
0.998376
0.998114
0.997832
0.997531
0.997214
0.996882
0.996537
0.996179
0.995816
0.995453
0.995094
0.994747
0.994417
0.99411
0.993834
0.993595
0.993402
0.993259
0.993174
0.993152
0.993195
0.9933
0.99346
0.993668
0.99392
0.994206
0.99452
0.994856
0.995207
0.995567
0.99593
0.996291
0.996644
0.996984
0.997311
0.997623
0.997918
0.998194
0.998448
0.998677
0.998877
0.999045
0.999175
0.999264
0.999307
0.999582
0.999549
0.99949
0.999408
0.999306
0.999189
0.999057
0.998915
0.998764
0.998606
0.998442
0.998273
0.9981
0.997921
0.997741
0.997563
0.997391
0.997226
0.997072
0.99693
0.996804
0.996696
0.996608
0.996544
0.996506
0.996494
0.996512
0.996556
0.996626
0.996718
0.996831
0.996961
0.997106
0.997263
0.99743
0.997604
0.997783
0.997963
0.998142
0.998314
0.998482
0.998645
0.998802
0.998951
0.999091
0.99922
0.999334
0.99943
0.999507
0.999559
0.999584
0.99958
0.999547
0.999488
0.999406
0.999304
0.999186
0.999054
0.998911
0.99876
0.998601
0.998437
0.998268
0.998094
0.997914
0.997734
0.997556
0.997384
0.997219
0.997065
0.996923
0.996798
0.996691
0.996605
0.996542
0.996504
0.996495
0.996514
0.996559
0.99663
0.996723
0.996837
0.996967
0.997113
0.99727
0.997437
0.997612
0.99779
0.99797
0.998148
0.99832
0.998487
0.99865
0.998806
0.998955
0.999094
0.999222
0.999336
0.999432
0.999508
0.99956
0.999586
0.999861
0.99985
0.999831
0.999805
0.999773
0.999736
0.999696
0.999654
0.99961
0.999564
0.999518
0.999471
0.999424
0.999374
0.999324
0.999276
0.999229
0.999186
0.999145
0.999108
0.999076
0.999048
0.999026
0.99901
0.999
0.998997
0.999002
0.999013
0.99903
0.999054
0.999082
0.999116
0.999154
0.999195
0.99924
0.999287
0.999336
0.999386
0.999435
0.999483
0.999529
0.999575
0.999621
0.999665
0.999707
0.999746
0.999781
0.999812
0.999836
0.999853
0.999862
0.99986
0.999849
0.99983
0.999804
0.999772
0.999736
0.999695
0.999653
0.999608
0.999563
0.999517
0.99947
0.999422
0.999372
0.999322
0.999274
0.999227
0.999184
0.999143
0.999106
0.999074
0.999047
0.999025
0.999009
0.999
0.998997
0.999002
0.999014
0.999031
0.999055
0.999084
0.999118
0.999156
0.999197
0.999242
0.999289
0.999338
0.999387
0.999437
0.999484
0.999531
0.999577
0.999622
0.999666
0.999708
0.999747
0.999782
0.999813
0.999837
0.999854
0.999862
)
;

boundaryField
{
    top
    {
        type            calculated;
        value           uniform 1;
    }
    bottom
    {
        type            calculated;
        value           uniform 0.148957;
    }
    frontAndBack
    {
        type            empty;
    }
    left_cyc
    {
        type            cyclic;
    }
    right_cyc
    {
        type            cyclic;
    }
}


// ************************************************************************* //
