/*--------------------------------*- C++ -*----------------------------------*\
| =========                 |                                                 |
| \\      /  F ield         | OpenFOAM: The Open Source CFD Toolbox           |
|  \\    /   O peration     | Version:  2.3.0                                 |
|   \\  /    A nd           | Web:      www.OpenFOAM.org                      |
|    \\/     M anipulation  |                                                 |
\*---------------------------------------------------------------------------*/
FoamFile
{
    version     2.0;
    format      ascii;
    class       volScalarField;
    location    "20000";
    object      p;
}
// * * * * * * * * * * * * * * * * * * * * * * * * * * * * * * * * * * * * * //

dimensions      [0 2 -2 0 0 0 0];

internalField   nonuniform List<scalar> 
3060
(
-928.47
-932.379
-939.716
-950.082
-962.913
-977.583
-993.675
-1011.44
-1032.11
-1057.27
-1087.69
-1122.55
-1160.19
-1198.89
-1236.9
-1272.57
-1304.58
-1332.14
-1354.34
-1370.33
-1380.51
-1385.9
-1387.93
-1388.13
-1387.73
-1387.5
-1387.67
-1387.99
-1387.68
-1385.5
-1379.9
-1369.46
-1353.2
-1330.72
-1302.92
-1270.69
-1234.86
-1196.77
-1158.12
-1120.67
-1086.11
-1056.1
-1031.32
-1010.92
-993.351
-977.465
-963.068
-950.595
-940.665
-933.82
-930.439
-930.705
-934.604
-941.923
-952.257
-965.044
-979.67
-995.76
-1013.64
-1034.57
-1060.09
-1090.84
-1125.92
-1163.67
-1202.37
-1240.24
-1275.63
-1307.27
-1334.37
-1355.99
-1371.36
-1381.02
-1386.03
-1387.84
-1387.97
-1387.63
-1387.49
-1387.76
-1388.12
-1387.73
-1385.3
-1379.29
-1368.32
-1351.43
-1328.37
-1300.13
-1267.53
-1231.44
-1193.23
-1154.6
-1117.27
-1082.96
-1053.29
-1028.87
-1008.72
-991.239
-975.342
-960.903
-948.392
-938.438
-931.583
-928.199
-988.993
-988.804
-988.452
-987.992
-987.629
-987.907
-989.967
-995.671
-1007.11
-1025.33
-1049.46
-1077.38
-1107.02
-1136.73
-1164.98
-1190.91
-1215.57
-1239.67
-1260.92
-1276.54
-1286.66
-1292.45
-1295.28
-1296.37
-1296.65
-1296.67
-1296.59
-1296.23
-1295.04
-1292.08
-1286.11
-1275.78
-1259.91
-1238.47
-1214.3
-1189.6
-1163.58
-1135.27
-1105.6
-1076.12
-1048.5
-1024.84
-1007.17
-996.221
-990.85
-988.968
-988.766
-989.152
-989.61
-989.946
-990.111
-990.092
-989.891
-989.522
-989.049
-988.697
-989.05
-991.302
-997.35
-1009.24
-1027.87
-1052.26
-1080.28
-1109.9
-1139.48
-1167.5
-1193.23
-1217.86
-1241.84
-1262.6
-1277.61
-1287.24
-1292.69
-1295.31
-1296.33
-1296.61
-1296.66
-1296.61
-1296.24
-1294.96
-1291.77
-1285.43
-1274.59
-1258.09
-1236.22
-1211.97
-1187.22
-1160.99
-1132.45
-1102.67
-1073.19
-1045.69
-1022.32
-1005.09
-994.592
-989.55
-987.843
-987.705
-988.097
-988.539
-988.858
-989.012
-951.212
-951.797
-953.003
-954.982
-958.001
-962.47
-968.94
-978.024
-990.175
-1005.34
-1022.82
-1041.6
-1060.98
-1080.72
-1101.16
-1122.96
-1145.84
-1166.82
-1183.23
-1195.66
-1204.56
-1209.19
-1210.81
-1211.03
-1210.82
-1210.68
-1210.78
-1210.94
-1210.65
-1208.91
-1204.12
-1195.06
-1182.5
-1165.93
-1144.86
-1122.03
-1100.38
-1080.07
-1060.44
-1041.2
-1022.58
-1005.32
-990.415
-978.526
-969.664
-963.365
-959.021
-956.094
-954.188
-953.044
-952.518
-952.551
-953.148
-954.379
-956.402
-959.495
-964.075
-970.699
-979.971
-992.311
-1007.61
-1025.14
-1043.89
-1063.21
-1082.91
-1103.38
-1125.28
-1148.09
-1168.63
-1184.54
-1196.62
-1205.08
-1209.33
-1210.76
-1210.93
-1210.75
-1210.68
-1210.83
-1211.01
-1210.66
-1208.7
-1203.5
-1194.02
-1181.1
-1164.01
-1142.54
-1119.7
-1098.14
-1077.85
-1058.18
-1038.88
-1020.24
-1003.04
-988.286
-976.593
-967.92
-961.772
-957.536
-954.679
-952.815
-951.694
-951.179
-894.527
-895.513
-897.48
-900.549
-904.926
-910.9
-918.818
-928.973
-941.401
-955.699
-971.115
-986.909
-1002.69
-1018.38
-1034.16
-1050.4
-1067.29
-1083.81
-1099.16
-1112.13
-1120.37
-1124.94
-1126.02
-1125.36
-1124.54
-1124.21
-1124.53
-1125.32
-1125.93
-1124.74
-1120.06
-1111.7
-1098.64
-1083.32
-1066.82
-1050
-1033.83
-1018.12
-1002.48
-986.771
-971.058
-955.76
-941.627
-929.385
-919.412
-911.654
-905.817
-901.559
-898.598
-896.737
-895.861
-895.922
-896.923
-898.922
-902.044
-906.499
-912.581
-920.634
-930.933
-943.479
-957.832
-973.232
-988.966
-1004.67
-1020.31
-1036.07
-1052.34
-1069.21
-1085.56
-1100.71
-1113.19
-1120.93
-1125.12
-1125.91
-1125.19
-1124.44
-1124.2
-1124.62
-1125.46
-1126
-1124.47
-1119.42
-1110.52
-1097.02
-1081.51
-1064.86
-1048.04
-1031.9
-1016.16
-1000.47
-984.681
-968.912
-953.608
-939.543
-927.428
-917.603
-909.98
-904.249
-900.068
-897.159
-895.328
-894.466
-847.792
-848.797
-850.783
-853.835
-858.083
-863.696
-870.862
-879.728
-890.312
-902.414
-915.635
-929.503
-943.627
-957.717
-971.539
-984.86
-997.517
-1009.59
-1021.46
-1031.82
-1038.73
-1041.97
-1041.67
-1039.87
-1038.36
-1037.82
-1038.37
-1039.89
-1041.67
-1041.9
-1038.59
-1031.64
-1021.22
-1009.37
-997.299
-984.63
-971.305
-957.501
-943.449
-929.383
-915.598
-902.489
-890.523
-880.087
-871.367
-864.336
-858.845
-854.711
-851.767
-849.889
-848.999
-849.062
-850.08
-852.094
-855.189
-859.498
-865.191
-872.45
-881.415
-892.085
-904.243
-917.479
-931.328
-945.412
-959.446
-973.2
-986.441
-999.016
-1011.03
-1022.84
-1032.83
-1039.29
-1042.04
-1041.45
-1039.62
-1038.22
-1037.82
-1038.51
-1040.13
-1041.84
-1041.74
-1037.95
-1030.55
-1019.79
-1007.9
-995.765
-983.013
-969.609
-955.74
-941.634
-927.531
-913.733
-900.646
-888.743
-878.399
-869.781
-862.844
-857.432
-853.358
-850.458
-848.607
-847.73
-804.884
-805.94
-808.009
-811.14
-815.408
-820.898
-827.691
-835.823
-845.239
-855.754
-867.073
-878.861
-890.828
-902.74
-914.4
-925.599
-936.05
-945.332
-953.062
-959.076
-962.984
-963.135
-959.997
-955.404
-952.388
-951.528
-952.436
-955.524
-960.148
-963.273
-963.065
-959.091
-953.025
-945.24
-935.916
-925.444
-914.243
-902.598
-890.715
-878.793
-867.068
-855.832
-845.418
-836.115
-828.1
-821.423
-816.046
-811.89
-808.87
-806.917
-805.984
-806.05
-807.117
-809.211
-812.379
-816.697
-822.248
-829.11
-837.311
-846.785
-857.335
-868.661
-880.433
-892.365
-904.228
-915.826
-926.946
-937.286
-946.412
-953.958
-959.79
-963.309
-962.97
-959.508
-954.92
-952.179
-951.53
-952.658
-956.018
-960.581
-963.352
-962.647
-958.328
-952.079
-944.114
-934.639
-924.061
-912.784
-901.08
-889.151
-877.197
-865.459
-854.236
-843.863
-834.622
-826.678
-820.072
-814.757
-810.651
-807.668
-805.739
-804.818
-765.415
-766.465
-768.509
-771.566
-775.662
-780.824
-787.065
-794.361
-802.63
-811.711
-821.377
-831.376
-841.467
-851.431
-861.068
-870.167
-878.485
-885.709
-891.45
-895.159
-895.951
-892.275
-884.348
-875.437
-869.194
-867.383
-869.32
-875.716
-884.722
-892.623
-896.18
-895.272
-891.484
-885.683
-878.419
-870.076
-860.966
-851.332
-841.384
-831.325
-821.371
-811.766
-802.762
-794.581
-787.38
-781.239
-776.179
-772.189
-769.243
-767.315
-766.389
-766.455
-767.516
-769.579
-772.665
-776.8
-782.007
-788.297
-795.64
-803.947
-813.051
-822.721
-832.704
-842.762
-852.679
-862.253
-871.272
-879.484
-886.567
-892.12
-895.572
-895.934
-891.688
-883.379
-874.549
-868.775
-867.4
-869.795
-876.619
-885.646
-893.109
-896.1
-894.797
-890.762
-884.782
-877.382
-868.938
-859.75
-850.056
-840.063
-829.974
-820.008
-810.41
-801.433
-793.294
-786.142
-780.052
-775.039
-771.088
-768.172
-766.264
-765.348
-728.229
-729.254
-731.235
-734.168
-738.042
-742.84
-748.528
-755.043
-762.284
-770.101
-778.308
-786.699
-795.074
-803.238
-811.004
-818.169
-824.505
-829.733
-833.513
-835.369
-834.557
-829.235
-817.727
-803.692
-793.355
-789.859
-793.598
-804.167
-818.293
-829.681
-834.833
-835.535
-833.6
-829.76
-824.488
-818.121
-810.936
-803.164
-795.005
-786.648
-778.286
-770.122
-762.361
-755.188
-748.75
-743.147
-738.441
-734.667
-731.842
-729.976
-729.074
-729.14
-730.172
-732.168
-735.123
-739.025
-743.856
-749.577
-756.124
-763.388
-771.216
-779.42
-787.793
-796.134
-804.25
-811.953
-819.037
-825.268
-830.36
-833.962
-835.579
-834.393
-828.387
-816.269
-802.302
-792.606
-789.905
-794.437
-805.595
-819.678
-830.398
-834.911
-835.267
-833.103
-829.093
-823.689
-817.22
-809.958
-802.125
-793.92
-785.532
-777.154
-768.99
-761.244
-754.097
-747.692
-742.125
-737.453
-733.708
-730.907
-729.056
-728.163
-692.46
-693.444
-695.335
-698.109
-701.729
-706.146
-711.293
-717.082
-723.396
-730.094
-737.012
-743.974
-750.807
-757.341
-763.408
-768.824
-773.389
-776.857
-778.923
-779.165
-776.974
-771.108
-759.305
-742.922
-729.34
-724.408
-729.688
-743.526
-759.921
-771.552
-777.272
-779.364
-779.045
-776.918
-773.403
-768.803
-763.36
-757.278
-750.738
-743.909
-736.962
-730.072
-723.413
-717.149
-711.423
-706.349
-702.016
-698.489
-695.818
-694.039
-693.176
-693.239
-694.228
-696.13
-698.919
-702.559
-706.998
-712.167
-717.974
-724.3
-731
-737.908
-744.847
-751.645
-758.131
-764.133
-769.47
-773.932
-777.271
-779.17
-779.189
-776.682
-770.268
-757.717
-741.187
-728.324
-724.481
-730.827
-745.285
-761.403
-772.276
-777.493
-779.287
-778.754
-776.466
-772.826
-768.127
-762.607
-756.464
-749.877
-743.015
-736.048
-729.15
-722.495
-716.246
-710.54
-705.49
-701.179
-697.673
-695.02
-693.253
-692.396
-657.508
-658.439
-660.22
-662.812
-666.159
-670.188
-674.811
-679.921
-685.395
-691.093
-696.865
-702.558
-708.017
-713.096
-717.645
-721.508
-724.515
-726.463
-727.103
-726.093
-722.945
-716.866
-706.405
-691.513
-677.823
-672.454
-678.203
-692.104
-706.957
-717.279
-723.244
-726.303
-727.242
-726.544
-724.547
-721.501
-717.606
-713.033
-707.938
-702.471
-696.781
-691.022
-685.349
-679.913
-674.853
-670.292
-666.337
-663.077
-660.583
-658.91
-658.095
-658.155
-659.09
-660.878
-663.48
-666.84
-670.882
-675.517
-680.636
-686.112
-691.804
-697.561
-703.227
-708.649
-713.678
-718.164
-721.949
-724.86
-726.689
-727.178
-725.971
-722.559
-716.08
-705.033
-689.857
-676.747
-672.539
-679.4
-693.758
-708.232
-717.982
-723.572
-726.378
-727.128
-726.284
-724.171
-721.031
-717.06
-712.426
-707.284
-701.781
-696.067
-690.294
-684.617
-679.185
-674.136
-669.589
-665.649
-662.403
-659.921
-658.257
-657.447
-622.977
-623.845
-625.498
-627.887
-630.943
-634.577
-638.688
-643.156
-647.854
-652.645
-657.39
-661.949
-666.187
-669.975
-673.185
-675.689
-677.353
-678.022
-677.51
-675.574
-671.884
-665.968
-657.136
-645.386
-634.194
-629.553
-634.525
-645.873
-657.592
-666.333
-672.164
-675.781
-677.653
-678.109
-677.392
-675.685
-673.144
-669.903
-666.091
-661.836
-657.269
-652.526
-647.748
-643.075
-638.646
-634.589
-631.02
-628.044
-625.747
-624.196
-623.438
-623.495
-624.365
-626.022
-628.417
-631.48
-635.121
-639.236
-643.705
-648.398
-653.178
-657.903
-662.432
-666.63
-670.368
-673.517
-675.947
-677.522
-678.085
-677.443
-675.346
-671.448
-665.252
-656.052
-644.083
-633.287
-629.629
-635.526
-647.166
-658.612
-666.991
-672.554
-675.97
-677.685
-678.016
-677.195
-675.402
-672.788
-669.487
-665.627
-661.334
-656.738
-651.977
-647.188
-642.513
-638.086
-634.035
-630.475
-627.508
-625.219
-623.674
-622.919
-588.638
-589.432
-590.939
-593.102
-595.845
-599.07
-602.667
-606.513
-610.478
-614.43
-618.238
-621.774
-624.92
-627.563
-629.597
-630.923
-631.444
-631.052
-629.63
-627.031
-623.077
-617.555
-610.256
-601.456
-593.317
-589.906
-593.57
-601.826
-610.621
-617.866
-623.328
-627.223
-629.766
-631.137
-631.481
-630.916
-629.549
-627.478
-624.804
-621.633
-618.08
-614.265
-610.316
-606.367
-602.55
-598.997
-595.83
-593.159
-591.081
-589.669
-588.977
-589.029
-589.824
-591.332
-593.498
-596.244
-599.471
-603.067
-606.908
-610.863
-614.799
-618.582
-622.087
-625.192
-627.785
-629.76
-631.019
-631.46
-630.978
-629.449
-626.726
-622.622
-616.92
-609.42
-600.52
-592.661
-589.961
-594.292
-602.758
-611.422
-618.464
-623.75
-627.498
-629.919
-631.186
-631.44
-630.797
-629.363
-627.234
-624.512
-621.302
-617.718
-613.88
-609.916
-605.958
-602.139
-598.586
-595.422
-592.756
-590.682
-589.275
-588.585
-554.387
-555.095
-556.433
-558.343
-560.744
-563.535
-566.604
-569.827
-573.08
-576.234
-579.167
-581.765
-583.922
-585.542
-586.541
-586.847
-586.398
-585.132
-582.992
-579.923
-575.87
-570.808
-564.802
-558.263
-552.592
-550.27
-552.773
-558.537
-565.087
-571.067
-576.088
-580.095
-583.117
-585.209
-586.428
-586.833
-586.483
-585.443
-583.786
-581.599
-578.977
-576.028
-572.87
-569.625
-566.422
-563.389
-560.647
-558.31
-556.476
-555.223
-554.607
-554.654
-555.363
-556.701
-558.611
-561.011
-563.8
-566.864
-570.079
-573.318
-576.452
-579.359
-581.924
-584.04
-585.612
-586.556
-586.801
-586.283
-584.942
-582.721
-579.561
-575.411
-570.248
-564.153
-557.605
-552.149
-550.307
-553.261
-559.198
-565.719
-571.604
-576.524
-580.434
-583.367
-585.377
-586.522
-586.858
-586.448
-585.354
-583.65
-581.422
-578.768
-575.794
-572.617
-569.36
-566.15
-563.113
-560.371
-558.035
-556.203
-554.953
-554.339
-520.208
-520.817
-521.962
-523.585
-525.606
-527.927
-530.438
-533.021
-535.558
-537.93
-540.026
-541.742
-542.987
-543.68
-543.758
-543.175
-541.896
-539.905
-537.196
-533.784
-529.712
-525.075
-520.076
-515.142
-511.186
-509.634
-511.314
-515.343
-520.297
-525.286
-529.897
-533.934
-537.305
-539.971
-541.918
-543.151
-543.691
-543.57
-542.836
-541.556
-539.811
-537.694
-535.311
-532.774
-530.204
-527.719
-525.439
-523.471
-521.913
-520.843
-520.315
-520.356
-520.964
-522.108
-523.73
-525.748
-528.064
-530.568
-533.14
-535.661
-538.012
-540.08
-541.763
-542.968
-543.616
-543.644
-543.006
-541.671
-539.619
-536.851
-533.381
-529.255
-524.576
-519.561
-514.673
-510.89
-509.658
-511.642
-515.821
-520.807
-525.774
-530.34
-534.321
-537.634
-540.239
-542.127
-543.302
-543.788
-543.617
-542.838
-541.519
-539.741
-537.598
-535.194
-532.643
-530.062
-527.572
-525.288
-523.32
-521.762
-520.693
-520.166
-486.153
-486.647
-487.57
-488.867
-490.463
-492.266
-494.175
-496.082
-497.881
-499.465
-500.735
-501.6
-501.982
-501.818
-501.061
-499.686
-497.689
-495.084
-491.91
-488.237
-484.171
-479.881
-475.622
-471.778
-468.936
-467.875
-469.026
-471.926
-475.794
-480.053
-484.328
-488.366
-492.005
-495.14
-497.703
-499.657
-500.987
-501.7
-501.823
-501.402
-500.505
-499.21
-497.609
-495.805
-493.902
-492.011
-490.238
-488.685
-487.44
-486.579
-486.152
-486.186
-486.678
-487.6
-488.894
-490.486
-492.283
-494.182
-496.078
-497.859
-499.421
-500.664
-501.497
-501.842
-501.636
-500.834
-499.413
-497.369
-494.72
-491.507
-487.802
-483.717
-479.427
-475.198
-471.429
-468.732
-467.891
-469.253
-472.286
-476.221
-480.504
-484.775
-488.792
-492.397
-495.491
-498.009
-499.916
-501.199
-501.868
-501.948
-501.491
-500.561
-499.24
-497.619
-495.798
-493.884
-491.985
-490.207
-488.651
-487.406
-486.544
-486.118
-452.324
-452.685
-453.354
-454.281
-455.397
-456.624
-457.874
-459.054
-460.073
-460.841
-461.273
-461.294
-460.839
-459.859
-458.326
-456.232
-453.595
-450.457
-446.891
-443.001
-438.938
-434.903
-431.16
-428.027
-425.877
-425.113
-425.942
-428.139
-431.296
-435.044
-439.07
-443.113
-446.974
-450.506
-453.605
-456.201
-458.251
-459.742
-460.68
-461.096
-461.041
-460.581
-459.793
-458.762
-457.579
-456.337
-455.129
-454.042
-453.154
-452.531
-452.22
-452.246
-452.606
-453.272
-454.195
-455.307
-456.527
-457.767
-458.935
-459.937
-460.683
-461.089
-461.08
-460.591
-459.574
-458.001
-455.869
-453.197
-450.029
-446.441
-442.541
-438.486
-434.481
-430.796
-427.752
-425.728
-425.125
-426.11
-428.427
-431.668
-435.469
-439.522
-443.569
-447.418
-450.926
-453.993
-456.552
-458.564
-460.015
-460.916
-461.298
-461.213
-460.727
-459.918
-458.871
-457.676
-456.426
-455.212
-454.122
-453.232
-452.608
-452.298
-418.863
-419.072
-419.451
-419.956
-420.533
-421.118
-421.642
-422.031
-422.215
-422.122
-421.686
-420.846
-419.555
-417.777
-415.5
-412.732
-409.508
-405.89
-401.973
-397.887
-393.803
-389.934
-386.527
-383.838
-382.098
-381.505
-382.146
-383.924
-386.637
-390.053
-393.918
-397.988
-402.05
-405.937
-409.52
-412.706
-415.433
-417.669
-419.407
-420.66
-421.465
-421.872
-421.942
-421.741
-421.341
-420.816
-420.237
-419.674
-419.191
-418.84
-418.662
-418.678
-418.886
-419.262
-419.764
-420.336
-420.914
-421.427
-421.805
-421.972
-421.859
-421.399
-420.532
-419.211
-417.401
-415.092
-412.294
-409.045
-405.41
-401.486
-397.408
-393.351
-389.532
-386.2
-383.606
-381.98
-381.514
-382.282
-384.17
-386.976
-390.462
-394.374
-398.467
-402.536
-406.414
-409.977
-413.136
-415.832
-418.036
-419.741
-420.964
-421.742
-422.126
-422.176
-421.959
-421.548
-421.014
-420.429
-419.862
-419.376
-419.025
-418.846
-385.947
-385.984
-386.033
-386.063
-386.037
-385.909
-385.633
-385.16
-384.441
-383.428
-382.074
-380.34
-378.192
-375.61
-372.597
-369.174
-365.388
-361.317
-357.068
-352.785
-348.646
-344.861
-341.652
-339.219
-337.707
-337.206
-337.745
-339.288
-341.744
-344.965
-348.751
-352.88
-357.145
-361.369
-365.41
-369.162
-372.549
-375.525
-378.069
-380.181
-381.882
-383.205
-384.192
-384.889
-385.345
-385.608
-385.729
-385.753
-385.726
-385.683
-385.656
-385.661
-385.696
-385.743
-385.77
-385.738
-385.603
-385.318
-384.833
-384.1
-383.069
-381.695
-379.937
-377.763
-375.156
-372.117
-368.672
-364.871
-360.794
-356.551
-352.29
-348.193
-344.472
-341.346
-339.011
-337.606
-337.215
-337.863
-339.512
-342.064
-345.365
-349.211
-353.379
-357.664
-361.891
-365.924
-369.659
-373.023
-375.973
-378.491
-380.578
-382.255
-383.558
-384.527
-385.21
-385.654
-385.91
-386.024
-386.044
-386.013
-385.97
-385.942
-353.789
-353.631
-353.312
-352.815
-352.119
-351.204
-350.05
-348.635
-346.937
-344.933
-342.601
-339.919
-336.874
-333.462
-329.697
-325.613
-321.267
-316.744
-312.161
-307.665
-303.433
-299.661
-296.544
-294.238
-292.84
-292.383
-292.872
-294.299
-296.626
-299.758
-303.535
-307.762
-312.246
-316.81
-321.308
-325.626
-329.679
-333.412
-336.791
-339.804
-342.454
-344.757
-346.732
-348.403
-349.793
-350.923
-351.815
-352.49
-352.97
-353.272
-353.413
-353.406
-353.247
-352.926
-352.425
-351.724
-350.803
-349.641
-348.216
-346.505
-344.486
-342.136
-339.435
-336.37
-332.938
-329.155
-325.058
-320.705
-316.187
-311.621
-307.158
-302.979
-299.279
-296.25
-294.044
-292.748
-292.392
-292.983
-294.511
-296.937
-300.155
-304
-308.277
-312.792
-317.371
-321.871
-326.181
-330.219
-333.933
-337.292
-340.284
-342.915
-345.201
-347.162
-348.82
-350.2
-351.322
-352.208
-352.879
-353.355
-353.655
-353.796
-322.629
-322.258
-321.534
-320.456
-319.028
-317.254
-315.144
-312.706
-309.947
-306.873
-303.487
-299.793
-295.795
-291.506
-286.954
-282.182
-277.255
-272.265
-267.328
-262.592
-258.225
-254.405
-251.3
-249.036
-247.678
-247.237
-247.708
-249.093
-251.381
-254.502
-258.331
-262.7
-267.43
-272.354
-277.327
-282.232
-286.98
-291.506
-295.768
-299.738
-303.404
-306.761
-309.804
-312.531
-314.936
-317.01
-318.744
-320.132
-321.167
-321.848
-322.176
-322.154
-321.782
-321.056
-319.976
-318.543
-316.764
-314.646
-312.199
-309.43
-306.343
-302.944
-299.235
-295.222
-290.92
-286.358
-281.581
-276.657
-271.679
-266.77
-262.076
-257.769
-254.027
-251.013
-248.848
-247.59
-247.247
-247.816
-249.301
-251.687
-254.898
-258.802
-263.228
-267.998
-272.946
-277.93
-282.837
-287.578
-292.093
-296.341
-300.296
-303.948
-307.29
-310.322
-313.038
-315.434
-317.501
-319.23
-320.613
-321.645
-322.324
-322.651
-292.735
-292.133
-290.972
-289.269
-287.052
-284.353
-281.213
-277.672
-273.771
-269.546
-265.028
-260.245
-255.226
-250.001
-244.61
-239.106
-233.561
-228.069
-222.747
-217.735
-213.189
-209.269
-206.118
-203.836
-202.473
-202.031
-202.502
-203.894
-206.201
-209.374
-213.308
-217.861
-222.874
-228.192
-233.675
-239.206
-244.694
-250.066
-255.272
-260.269
-265.026
-269.516
-273.71
-277.573
-281.07
-284.161
-286.803
-288.959
-290.594
-291.683
-292.212
-292.175
-291.572
-290.409
-288.704
-286.482
-283.778
-280.632
-277.084
-273.175
-268.94
-264.412
-259.62
-254.592
-249.36
-243.966
-238.465
-232.932
-227.461
-222.174
-217.211
-212.732
-208.893
-205.834
-203.651
-202.387
-202.042
-202.611
-204.102
-206.507
-209.77
-213.783
-218.4
-223.461
-228.811
-234.314
-239.855
-245.344
-250.713
-255.911
-260.899
-265.646
-270.127
-274.31
-278.166
-281.655
-284.739
-287.376
-289.527
-291.158
-292.246
-292.773
-264.397
-263.55
-261.927
-259.565
-256.513
-252.835
-248.604
-243.894
-238.778
-233.325
-227.597
-221.65
-215.536
-209.306
-203.014
-196.722
-190.508
-184.468
-178.716
-173.384
-168.615
-164.547
-161.302
-158.961
-157.563
-157.109
-157.595
-159.024
-161.394
-164.665
-168.753
-173.538
-178.879
-184.635
-190.675
-196.885
-203.17
-209.453
-215.671
-221.768
-227.694
-233.395
-238.814
-243.887
-248.543
-252.71
-256.312
-259.279
-261.547
-263.069
-263.81
-263.757
-262.909
-261.285
-258.92
-255.864
-252.182
-247.946
-243.23
-238.108
-232.648
-226.914
-220.962
-214.845
-208.614
-202.326
-196.045
-189.851
-183.84
-178.131
-172.855
-168.156
-164.172
-161.02
-158.777
-157.478
-157.122
-157.704
-159.232
-161.7
-165.064
-169.234
-174.087
-179.482
-185.278
-191.346
-197.574
-203.868
-210.155
-216.372
-222.466
-228.387
-234.081
-239.493
-244.559
-249.21
-253.37
-256.967
-259.929
-262.194
-263.712
-264.451
-237.921
-236.822
-234.724
-231.68
-227.768
-223.079
-217.717
-211.79
-205.405
-198.664
-191.661
-184.481
-177.203
-169.899
-162.639
-155.496
-148.554
-141.91
-135.675
-129.972
-124.929
-120.664
-117.28
-114.845
-113.39
-112.918
-113.426
-114.917
-117.386
-120.802
-125.094
-130.161
-135.882
-142.131
-148.785
-155.734
-162.88
-170.141
-177.441
-184.709
-191.871
-198.847
-205.551
-211.886
-217.749
-223.032
-227.626
-231.43
-234.351
-236.317
-237.277
-237.207
-236.108
-234.008
-230.962
-227.046
-222.353
-216.986
-211.054
-204.665
-197.92
-190.914
-183.734
-176.458
-169.161
-161.912
-154.787
-147.871
-141.264
-135.078
-129.437
-124.467
-120.289
-116.999
-114.661
-113.305
-112.932
-113.538
-115.127
-117.695
-121.203
-125.58
-130.72
-136.501
-142.797
-149.487
-156.461
-163.624
-170.895
-178.201
-185.471
-192.632
-199.606
-206.305
-212.635
-218.492
-223.768
-228.357
-232.155
-235.072
-237.035
-237.993
-213.614
-212.264
-209.691
-205.967
-201.193
-195.488
-188.987
-181.829
-174.153
-166.094
-157.778
-149.321
-140.827
-132.393
-124.106
-116.05
-108.318
-101.009
-94.2308
-88.0969
-82.7207
-78.2061
-74.6375
-72.0721
-70.5384
-70.0416
-70.58
-72.1552
-74.7611
-78.3685
-82.9193
-88.3281
-94.4907
-101.294
-108.624
-116.374
-124.443
-132.74
-141.178
-149.668
-158.112
-166.402
-174.42
-182.039
-189.121
-195.528
-201.118
-205.759
-209.332
-211.742
-212.92
-212.833
-211.483
-208.908
-205.182
-200.405
-194.696
-188.19
-181.028
-173.349
-165.288
-156.973
-148.519
-140.032
-131.61
-123.34
-115.309
-107.61
-100.344
-93.6209
-87.5535
-82.2551
-77.8279
-74.3539
-71.8873
-70.4535
-70.0565
-70.6948
-72.3701
-75.0745
-78.776
-83.4133
-88.8987
-95.1265
-101.983
-109.356
-117.138
-125.231
-133.546
-141.995
-150.491
-158.938
-167.227
-175.243
-182.857
-189.934
-196.334
-201.918
-206.553
-210.122
-212.527
-213.703
-191.829
-190.237
-187.207
-182.828
-177.221
-170.531
-162.921
-154.557
-145.61
-136.243
-126.614
-116.867
-107.133
-97.5351
-88.1758
-79.156
-70.576
-62.5392
-55.1515
-48.5192
-42.7443
-37.9176
-34.1121
-31.3778
-29.7418
-29.2126
-29.7907
-31.4756
-34.2582
-38.1109
-42.9828
-48.8003
-55.4722
-62.8961
-70.9654
-79.5738
-88.6176
-97.9953
-107.605
-117.339
-127.076
-136.678
-146
-154.882
-163.159
-170.659
-177.214
-182.664
-186.867
-189.704
-191.092
-190.989
-189.396
-186.365
-181.983
-176.372
-169.678
-162.063
-153.696
-144.746
-135.379
-125.753
-116.012
-106.29
-96.7078
-87.3713
-78.3819
-69.8413
-61.8539
-54.5262
-47.9647
-42.2707
-37.5337
-33.8243
-31.1901
-29.656
-29.2291
-29.9095
-31.6963
-34.579
-38.5274
-43.4882
-49.3858
-56.1275
-63.6105
-71.7284
-80.3757
-89.4497
-98.85
-108.476
-118.221
-127.963
-137.567
-146.887
-155.765
-164.036
-171.529
-178.077
-183.521
-187.717
-190.55
-191.935
-172.772
-170.96
-167.515
-162.54
-156.174
-148.584
-139.954
-130.476
-120.346
-109.753
-98.88
-87.8982
-76.9653
-66.2247
-55.7997
-45.8061
-36.3551
-27.5556
-19.514
-12.3324
-6.10559
-0.916035
3.17024
6.10637
7.86435
8.43206
7.8068
5.9913
2.998
-1.1446
-6.38903
-12.6687
-19.9005
-27.9891
-36.8319
-46.3215
-56.3482
-66.7991
-77.5566
-88.4949
-99.4668
-110.312
-120.855
-130.912
-140.291
-148.796
-156.233
-162.421
-167.195
-170.421
-171.999
-171.881
-170.069
-166.622
-161.644
-155.273
-147.678
-139.043
-129.562
-119.429
-108.836
-97.9677
-86.9946
-76.076
-65.3555
-54.9576
-44.9994
-35.5928
-26.8476
-18.8705
-11.7636
-5.62081
-0.523346
3.46465
6.29835
7.95167
8.4139
7.68314
5.763
2.66741
-1.57314
-6.90915
-13.2722
-20.5779
-28.7305
-37.6269
-47.1606
-57.2224
-67.7005
-78.478
-89.4297
-100.409
-111.256
-121.799
-131.852
-141.224
-149.722
-157.151
-163.331
-168.099
-171.318
-172.893
-156.496
-154.503
-150.715
-145.248
-138.253
-129.915
-120.433
-110.02
-98.8883
-87.2484
-75.3028
-63.2432
-51.248
-39.4803
-28.0818
-17.1841
-6.90992
2.6244
11.3094
19.0434
25.7345
31.3039
35.6877
38.8389
40.7269
41.3356
40.6601
38.7054
35.4878
31.0384
25.4047
18.6511
10.8571
2.11535
-7.4715
-17.7928
-28.731
-40.1611
-51.9494
-63.9521
-76.0016
-87.9163
-99.5017
-110.553
-120.857
-130.2
-138.37
-145.168
-150.415
-153.96
-155.696
-155.565
-153.572
-149.783
-144.311
-137.312
-128.968
-119.481
-109.063
-97.9291
-86.2897
-74.3488
-62.299
-50.3198
-38.5747
-27.2066
-16.3476
-6.12169
3.35459
11.9715
19.6277
26.2321
31.7069
35.9899
39.036
40.8162
41.3158
40.5313
38.4688
35.1463
30.5964
24.8686
18.0286
10.1574
1.34815
-8.29627
-18.6654
-29.6421
-41.1023
-52.9131
-64.9308
-76.9889
-88.9067
-100.491
-111.537
-121.834
-131.169
-139.33
-146.12
-151.359
-154.898
-156.629
-148.331
-146.114
-141.901
-135.819
-128.036
-118.753
-108.192
-96.5844
-84.1657
-71.1686
-57.8182
-44.3291
-30.9028
-17.7259
-4.96455
7.22766
18.7091
29.349
39.0274
47.6353
55.0762
61.2673
66.1413
69.6467
71.7479
72.4242
71.6686
69.4882
65.9041
60.9523
54.6849
47.1697
38.4904
28.7444
18.0419
6.50464
-5.73489
-18.5328
-31.7327
-45.1661
-58.6422
-71.956
-84.8901
-97.2166
-108.701
-119.106
-128.201
-135.764
-141.6
-145.543
-147.473
-147.327
-145.11
-140.895
-134.809
-127.02
-117.731
-107.164
-95.5513
-83.1298
-70.1333
-56.7881
-43.3098
-29.9013
-16.7497
-4.02216
8.12685
19.5551
30.1315
39.736
48.2601
55.6079
61.698
66.4645
69.8575
71.843
72.402
71.5291
69.2332
65.5368
60.4778
54.1097
46.5019
37.7393
27.92
17.1545
5.56452
-6.71771
-19.5489
-32.7735
-46.2236
-59.7092
-73.0265
-85.9592
-98.2806
-109.757
-120.153
-129.238
-136.792
-142.619
-146.554
-148.48
-109.499
-107.753
-104.437
-99.6524
-93.534
-86.2397
-77.943
-68.8255
-59.0707
-48.8598
-38.3679
-27.762
-17.1991
-6.82575
3.22398
12.8267
21.8693
30.2483
37.8692
44.6471
50.5069
55.3842
59.2259
61.9906
63.6488
64.1824
63.5845
61.8622
59.0338
55.1292
50.1902
44.2702
37.4344
29.7587
21.329
12.2411
2.59997
-7.47934
-17.8713
-28.4398
-39.0355
-49.4989
-59.6606
-69.3434
-78.3647
-86.5397
-93.6869
-99.6336
-104.224
-107.328
-108.848
-108.733
-106.987
-103.669
-98.8817
-92.7586
-85.459
-77.1569
-68.0348
-58.2771
-48.0658
-37.5771
-26.9786
-16.4285
-6.074
3.95013
13.5199
22.5218
30.8519
38.4161
45.1296
50.9179
55.7174
59.4761
62.1539
63.7225
64.1649
63.476
61.6642
58.749
54.7617
49.7452
43.754
36.8542
29.1221
20.6441
11.5158
1.84227
-8.26204
-18.6721
-29.2527
-39.855
-50.3203
-60.4802
-70.1583
-79.1729
-87.3401
-94.479
-100.418
-105.001
-108.099
-109.616
-238.805
-234.51
-226.34
-214.53
-199.399
-181.323
-160.72
-138.032
-113.708
-88.1935
-61.9209
-35.3037
-8.73261
17.4234
42.8081
67.0927
89.9776
111.191
130.488
147.652
162.493
174.846
184.578
191.583
195.784
197.133
195.614
191.244
184.071
174.173
161.658
146.662
129.348
109.91
88.5691
65.5719
41.1951
15.743
-10.4502
-37.023
-63.6016
-89.7898
-115.169
-139.302
-161.739
-182.03
-199.733
-214.433
-225.758
-233.401
-237.14
-236.857
-232.562
-224.389
-212.572
-197.431
-179.344
-158.732
-136.035
-111.708
-86.1958
-59.9345
-33.3392
-6.80274
19.3031
44.6204
68.8194
91.5997
112.689
131.844
148.846
163.508
175.669
185.196
191.985
195.964
197.088
195.343
190.751
183.364
173.262
160.554
145.381
127.907
108.327
86.863
63.7627
39.3019
13.7847
-12.4563
-39.0617
-65.6598
-91.8563
-117.235
-141.359
-163.783
-184.057
-201.742
-216.424
-227.734
-235.364
-239.093
)
;

boundaryField
{
    top
    {
        type            calculated;
        value           nonuniform List<scalar> 
102
(
-9.81
-9.81
-9.81
-9.81
-9.81
-9.81
-9.81
-9.81
-9.81
-9.81
-9.81
-9.81
-9.81
-9.81
-9.81
-9.81
-9.81
-9.81
-9.81
-9.81
-9.81
-9.81
-9.81
-9.81
-9.81
-9.81
-9.81
-9.81
-9.81
-9.81
-9.81
-9.81
-9.81
-9.81
-9.81
-9.81
-9.81
-9.81
-9.81
-9.81
-9.81
-9.81
-9.81
-9.81
-9.81
-9.81
-9.81
-9.81
-9.81
-9.81
-9.81
-9.81
-9.81
-9.81
-9.81
-9.81
-9.81
-9.81
-9.81
-9.81
-9.81
-9.81
-9.81
-9.81
-9.81
-9.81
-9.81
-9.81
-9.81
-9.81
-9.81
-9.81
-9.81
-9.81
-9.81
-9.81
-9.81
-9.81
-9.81
-9.81
-9.81
-9.81
-9.81
-9.81
-9.81
-9.81
-9.81
-9.81
-9.81
-9.81
-9.81
-9.81
-9.81
-9.81
-9.81
-9.81
-9.81
-9.81
-9.81
-9.81
-9.81
-9.81
)
;
    }
    bottom
    {
        type            calculated;
        value           nonuniform List<scalar> 
102
(
-966.65
-970.589
-977.981
-988.425
-1001.35
-1016.14
-1032.36
-1050.26
-1071.06
-1096.36
-1126.91
-1161.9
-1199.67
-1238.5
-1276.64
-1312.45
-1344.6
-1372.3
-1394.65
-1410.77
-1421.08
-1426.59
-1428.71
-1428.99
-1428.64
-1428.42
-1428.58
-1428.85
-1428.46
-1426.18
-1420.46
-1409.9
-1393.49
-1370.87
-1342.93
-1310.56
-1274.59
-1236.38
-1197.59
-1160.01
-1125.32
-1095.18
-1070.27
-1049.73
-1032.03
-1016.02
-1001.51
-988.94
-978.934
-972.038
-968.631
-968.899
-972.828
-980.201
-990.614
-1003.5
-1018.24
-1034.46
-1052.47
-1073.53
-1099.19
-1130.07
-1165.28
-1203.16
-1241.99
-1279.99
-1315.52
-1347.3
-1374.54
-1396.3
-1411.81
-1421.6
-1426.72
-1428.63
-1428.84
-1428.54
-1428.42
-1428.66
-1428.97
-1428.5
-1425.97
-1419.84
-1408.74
-1391.71
-1368.51
-1340.13
-1307.39
-1271.16
-1232.82
-1194.05
-1156.6
-1122.16
-1092.36
-1067.81
-1047.52
-1029.9
-1013.88
-999.329
-986.722
-976.693
-969.787
-966.378
)
;
    }
    frontAndBack
    {
        type            empty;
    }
    left_cyc
    {
        type            cyclic;
    }
    right_cyc
    {
        type            cyclic;
    }
}


// ************************************************************************* //
