/*--------------------------------*- C++ -*----------------------------------*\
| =========                 |                                                 |
| \\      /  F ield         | OpenFOAM: The Open Source CFD Toolbox           |
|  \\    /   O peration     | Version:  2.3.0                                 |
|   \\  /    A nd           | Web:      www.OpenFOAM.org                      |
|    \\/     M anipulation  |                                                 |
\*---------------------------------------------------------------------------*/
FoamFile
{
    version     2.0;
    format      ascii;
    class       volScalarField;
    location    "20000";
    object      p;
}
// * * * * * * * * * * * * * * * * * * * * * * * * * * * * * * * * * * * * * //

dimensions      [0 2 -2 0 0 0 0];

internalField   nonuniform List<scalar> 
3060
(
0
-3.10067e-05
-8.89777e-05
-0.000173491
-0.000284121
-0.000420536
-0.000582501
-0.000769699
-0.000981428
-0.00121627
-0.00147184
-0.00174459
-0.00202959
-0.0023203
-0.00260823
-0.0028835
-0.00313627
-0.00335764
-0.00354053
-0.0036823
-0.0037855
-0.00385533
-0.00389924
-0.00392468
-0.00393739
-0.0039407
-0.00393557
-0.00392059
-0.00389194
-0.00384345
-0.00376751
-0.00365694
-0.00350705
-0.00331607
-0.0030877
-0.00282959
-0.00255086
-0.00226155
-0.00197143
-0.00168858
-0.00141924
-0.00116807
-0.000938354
-0.000732274
-0.000551079
-0.000395363
-0.000265404
-0.000161451
-8.38539e-05
-3.30379e-05
-9.39409e-06
-1.31552e-05
-4.4278e-05
-0.000102476
-0.000187337
-0.000298448
-0.000435488
-0.000598224
-0.000786322
-0.00099904
-0.0012349
-0.00149143
-0.001765
-0.00205052
-0.00234132
-0.00262872
-0.00290275
-0.00315357
-0.00337235
-0.0035522
-0.00369097
-0.00379146
-0.00385911
-0.00390144
-0.00392583
-0.00393784
-0.00394061
-0.00393491
-0.00391915
-0.00388931
-0.00383908
-0.0037608
-0.00364742
-0.00349448
-0.00330054
-0.00306974
-0.00280987
-0.0025301
-0.00224044
-0.00195054
-0.00166831
-0.00139984
-0.00114965
-0.000920961
-0.000715856
-0.000535533
-0.000380554
-0.000251187
-0.000147685
-7.04093e-05
-1.97974e-05
3.75104e-06
-0.32661
-0.326637
-0.326686
-0.326759
-0.326854
-0.326973
-0.327116
-0.327281
-0.327467
-0.327674
-0.327897
-0.328134
-0.32838
-0.328628
-0.32887
-0.329103
-0.329325
-0.329527
-0.329696
-0.329827
-0.329921
-0.329985
-0.330027
-0.330051
-0.330063
-0.330067
-0.330062
-0.330047
-0.33002
-0.329975
-0.329905
-0.329803
-0.329665
-0.329489
-0.329282
-0.329058
-0.328823
-0.328579
-0.328331
-0.328087
-0.327852
-0.327632
-0.32743
-0.327249
-0.327089
-0.326953
-0.326839
-0.326749
-0.326683
-0.32664
-0.32662
-0.326623
-0.326649
-0.326699
-0.326772
-0.326868
-0.326988
-0.327131
-0.327296
-0.327484
-0.327691
-0.327915
-0.328153
-0.328399
-0.328646
-0.328888
-0.32912
-0.329341
-0.32954
-0.329707
-0.329835
-0.329927
-0.329989
-0.330029
-0.330052
-0.330064
-0.330067
-0.330061
-0.330046
-0.330017
-0.32997
-0.329898
-0.329795
-0.329653
-0.329474
-0.329266
-0.329041
-0.328805
-0.32856
-0.328312
-0.328068
-0.327834
-0.327615
-0.327414
-0.327233
-0.327074
-0.326938
-0.326826
-0.326736
-0.32667
-0.326627
-0.326607
-0.65331
-0.653335
-0.653384
-0.653454
-0.653545
-0.653656
-0.653786
-0.653932
-0.654091
-0.654263
-0.654444
-0.654634
-0.654832
-0.655036
-0.655244
-0.655449
-0.655636
-0.655796
-0.655927
-0.656033
-0.656114
-0.656167
-0.656198
-0.656215
-0.656224
-0.656226
-0.656223
-0.656213
-0.656193
-0.656158
-0.6561
-0.656014
-0.655903
-0.655767
-0.655601
-0.655409
-0.655203
-0.654996
-0.654793
-0.654598
-0.654409
-0.65423
-0.654062
-0.653905
-0.653764
-0.653638
-0.653532
-0.653446
-0.653382
-0.65334
-0.65332
-0.653323
-0.653349
-0.653397
-0.653468
-0.653559
-0.653671
-0.653801
-0.653947
-0.654107
-0.654278
-0.65446
-0.65465
-0.654848
-0.655052
-0.65526
-0.655464
-0.65565
-0.655807
-0.655935
-0.65604
-0.656119
-0.656169
-0.656199
-0.656216
-0.656224
-0.656226
-0.656222
-0.656212
-0.656191
-0.656155
-0.656095
-0.656006
-0.655893
-0.655756
-0.655587
-0.655393
-0.655187
-0.654979
-0.654777
-0.654581
-0.654394
-0.654215
-0.654046
-0.65389
-0.653749
-0.653624
-0.653518
-0.653432
-0.653368
-0.653326
-0.653307
-0.979837
-0.979862
-0.979908
-0.979976
-0.980064
-0.98017
-0.980292
-0.980428
-0.980576
-0.980732
-0.980895
-0.981062
-0.981233
-0.981406
-0.98158
-0.981751
-0.98191
-0.982054
-0.982177
-0.982268
-0.982328
-0.982369
-0.982389
-0.982397
-0.9824
-0.982401
-0.9824
-0.982396
-0.982386
-0.982362
-0.982318
-0.982253
-0.982155
-0.982027
-0.98188
-0.981719
-0.981547
-0.981373
-0.9812
-0.981031
-0.980865
-0.980703
-0.980549
-0.980404
-0.980271
-0.980153
-0.980052
-0.979969
-0.979907
-0.979866
-0.979847
-0.97985
-0.979875
-0.979922
-0.97999
-0.980078
-0.980184
-0.980307
-0.980443
-0.980591
-0.980747
-0.98091
-0.981077
-0.981247
-0.981421
-0.981595
-0.981764
-0.981922
-0.982064
-0.982186
-0.982274
-0.982332
-0.982371
-0.98239
-0.982397
-0.9824
-0.982401
-0.9824
-0.982396
-0.982385
-0.98236
-0.982314
-0.982247
-0.982146
-0.982016
-0.981867
-0.981705
-0.981533
-0.981358
-0.981185
-0.981016
-0.98085
-0.980688
-0.980534
-0.98039
-0.980257
-0.980139
-0.980038
-0.979956
-0.979894
-0.979853
-0.979834
-1.30636
-1.30638
-1.30642
-1.30648
-1.30656
-1.30666
-1.30677
-1.30689
-1.30702
-1.30716
-1.30731
-1.30746
-1.30762
-1.30777
-1.30792
-1.30806
-1.30819
-1.30831
-1.30842
-1.3085
-1.30856
-1.30858
-1.30859
-1.30859
-1.30859
-1.30859
-1.30859
-1.30859
-1.30859
-1.30858
-1.30855
-1.30849
-1.3084
-1.30829
-1.30817
-1.30804
-1.30789
-1.30774
-1.30759
-1.30743
-1.30728
-1.30714
-1.307
-1.30687
-1.30675
-1.30664
-1.30655
-1.30648
-1.30642
-1.30639
-1.30637
-1.30637
-1.30639
-1.30644
-1.3065
-1.30658
-1.30667
-1.30678
-1.3069
-1.30703
-1.30718
-1.30732
-1.30747
-1.30763
-1.30778
-1.30793
-1.30807
-1.3082
-1.30832
-1.30843
-1.30851
-1.30856
-1.30858
-1.30859
-1.30859
-1.30859
-1.30859
-1.30859
-1.30859
-1.30859
-1.30858
-1.30855
-1.30848
-1.30839
-1.30828
-1.30816
-1.30802
-1.30788
-1.30773
-1.30757
-1.30742
-1.30727
-1.30712
-1.30698
-1.30685
-1.30673
-1.30663
-1.30654
-1.30647
-1.30641
-1.30637
-1.30636
-1.63294
-1.63296
-1.633
-1.63305
-1.63312
-1.63321
-1.6333
-1.63341
-1.63353
-1.63366
-1.63379
-1.63392
-1.63405
-1.63419
-1.63432
-1.63444
-1.63455
-1.63464
-1.63472
-1.63478
-1.63481
-1.63482
-1.63481
-1.63479
-1.63478
-1.63478
-1.63478
-1.6348
-1.63481
-1.63482
-1.63481
-1.63477
-1.6347
-1.63462
-1.63453
-1.63441
-1.63429
-1.63416
-1.63403
-1.6339
-1.63376
-1.63363
-1.63351
-1.6334
-1.63329
-1.63319
-1.63311
-1.63305
-1.633
-1.63296
-1.63295
-1.63295
-1.63297
-1.63301
-1.63306
-1.63313
-1.63322
-1.63332
-1.63343
-1.63354
-1.63367
-1.6338
-1.63393
-1.63407
-1.6342
-1.63433
-1.63445
-1.63455
-1.63465
-1.63472
-1.63478
-1.63482
-1.63482
-1.63481
-1.63479
-1.63478
-1.63478
-1.63478
-1.6348
-1.63481
-1.63482
-1.63481
-1.63476
-1.6347
-1.63462
-1.63452
-1.6344
-1.63428
-1.63415
-1.63402
-1.63388
-1.63375
-1.63362
-1.6335
-1.63338
-1.63328
-1.63318
-1.6331
-1.63303
-1.63298
-1.63295
-1.63294
-1.95955
-1.95956
-1.9596
-1.95965
-1.95971
-1.95979
-1.95987
-1.95997
-1.96008
-1.96019
-1.9603
-1.96042
-1.96053
-1.96064
-1.96075
-1.96085
-1.96094
-1.96102
-1.96108
-1.96112
-1.96113
-1.96111
-1.96107
-1.96102
-1.961
-1.96099
-1.961
-1.96103
-1.96108
-1.96112
-1.96113
-1.96111
-1.96107
-1.96101
-1.96093
-1.96084
-1.96073
-1.96062
-1.96051
-1.96039
-1.96028
-1.96017
-1.96006
-1.95996
-1.95986
-1.95978
-1.9597
-1.95964
-1.9596
-1.95957
-1.95955
-1.95956
-1.95958
-1.95961
-1.95966
-1.95972
-1.9598
-1.95989
-1.95998
-1.96009
-1.9602
-1.96031
-1.96043
-1.96054
-1.96065
-1.96076
-1.96086
-1.96095
-1.96103
-1.96108
-1.96112
-1.96113
-1.96111
-1.96106
-1.96102
-1.961
-1.96099
-1.961
-1.96103
-1.96108
-1.96112
-1.96113
-1.96111
-1.96107
-1.961
-1.96092
-1.96083
-1.96072
-1.96061
-1.9605
-1.96038
-1.96027
-1.96016
-1.96005
-1.95994
-1.95985
-1.95977
-1.95969
-1.95963
-1.95959
-1.95956
-1.95954
-2.28618
-2.2862
-2.28623
-2.28627
-2.28633
-2.2864
-2.28647
-2.28656
-2.28665
-2.28675
-2.28684
-2.28694
-2.28704
-2.28714
-2.28723
-2.28731
-2.28738
-2.28744
-2.28748
-2.2875
-2.2875
-2.28746
-2.28739
-2.28731
-2.28726
-2.28724
-2.28727
-2.28732
-2.2874
-2.28748
-2.28751
-2.2875
-2.28747
-2.28743
-2.28737
-2.28729
-2.28721
-2.28712
-2.28702
-2.28693
-2.28683
-2.28673
-2.28663
-2.28654
-2.28646
-2.28639
-2.28632
-2.28627
-2.28623
-2.2862
-2.28619
-2.28619
-2.28621
-2.28624
-2.28628
-2.28634
-2.28641
-2.28648
-2.28657
-2.28666
-2.28676
-2.28685
-2.28695
-2.28705
-2.28714
-2.28723
-2.28731
-2.28739
-2.28744
-2.28748
-2.28751
-2.2875
-2.28746
-2.28738
-2.2873
-2.28726
-2.28724
-2.28727
-2.28733
-2.28741
-2.28748
-2.28751
-2.2875
-2.28747
-2.28742
-2.28736
-2.28729
-2.2872
-2.28711
-2.28702
-2.28692
-2.28682
-2.28672
-2.28662
-2.28653
-2.28645
-2.28638
-2.28631
-2.28626
-2.28622
-2.28619
-2.28618
-2.61283
-2.61284
-2.61287
-2.61291
-2.61296
-2.61302
-2.61309
-2.61316
-2.61324
-2.61333
-2.61341
-2.6135
-2.61358
-2.61366
-2.61373
-2.61379
-2.61385
-2.61389
-2.61392
-2.61393
-2.61391
-2.61387
-2.61378
-2.61368
-2.61361
-2.61359
-2.61362
-2.6137
-2.6138
-2.61388
-2.61392
-2.61393
-2.61391
-2.61388
-2.61384
-2.61378
-2.61371
-2.61364
-2.61356
-2.61348
-2.6134
-2.61331
-2.61323
-2.61315
-2.61308
-2.61301
-2.61296
-2.61291
-2.61287
-2.61285
-2.61284
-2.61284
-2.61285
-2.61288
-2.61292
-2.61297
-2.61303
-2.6131
-2.61317
-2.61325
-2.61334
-2.61342
-2.6135
-2.61358
-2.61366
-2.61373
-2.6138
-2.61385
-2.61389
-2.61392
-2.61393
-2.61391
-2.61386
-2.61378
-2.61368
-2.6136
-2.61359
-2.61362
-2.61371
-2.61381
-2.61388
-2.61392
-2.61392
-2.61391
-2.61388
-2.61383
-2.61378
-2.61371
-2.61363
-2.61356
-2.61347
-2.61339
-2.6133
-2.61322
-2.61314
-2.61307
-2.613
-2.61295
-2.6129
-2.61286
-2.61284
-2.61283
-2.93949
-2.9395
-2.93953
-2.93956
-2.93961
-2.93966
-2.93972
-2.93978
-2.93985
-2.93992
-2.94
-2.94007
-2.94013
-2.9402
-2.94025
-2.9403
-2.94034
-2.94037
-2.94038
-2.94038
-2.94036
-2.94031
-2.94024
-2.94014
-2.94006
-2.94003
-2.94007
-2.94016
-2.94025
-2.94032
-2.94036
-2.94038
-2.94038
-2.94036
-2.94033
-2.94029
-2.94024
-2.94018
-2.94012
-2.94005
-2.93998
-2.93991
-2.93984
-2.93977
-2.93971
-2.93965
-2.9396
-2.93956
-2.93953
-2.93951
-2.9395
-2.9395
-2.93951
-2.93953
-2.93957
-2.93961
-2.93967
-2.93973
-2.93979
-2.93986
-2.93993
-2.94
-2.94007
-2.94014
-2.9402
-2.94026
-2.9403
-2.94034
-2.94037
-2.94038
-2.94038
-2.94035
-2.94031
-2.94023
-2.94013
-2.94005
-2.94003
-2.94008
-2.94017
-2.94026
-2.94033
-2.94037
-2.94038
-2.94038
-2.94036
-2.94033
-2.94029
-2.94024
-2.94018
-2.94011
-2.94005
-2.93998
-2.9399
-2.93983
-2.93977
-2.9397
-2.93964
-2.93959
-2.93955
-2.93952
-2.9395
-2.93949
-3.26616
-3.26617
-3.26619
-3.26622
-3.26626
-3.26631
-3.26636
-3.26641
-3.26647
-3.26653
-3.26659
-3.26665
-3.2667
-3.26675
-3.26679
-3.26683
-3.26685
-3.26687
-3.26687
-3.26686
-3.26683
-3.26679
-3.26672
-3.26664
-3.26658
-3.26655
-3.26659
-3.26666
-3.26674
-3.2668
-3.26684
-3.26686
-3.26687
-3.26686
-3.26685
-3.26682
-3.26678
-3.26674
-3.26669
-3.26664
-3.26658
-3.26652
-3.26646
-3.2664
-3.26635
-3.2663
-3.26625
-3.26622
-3.26619
-3.26617
-3.26616
-3.26616
-3.26617
-3.2662
-3.26623
-3.26627
-3.26631
-3.26636
-3.26642
-3.26648
-3.26654
-3.2666
-3.26665
-3.26671
-3.26675
-3.2668
-3.26683
-3.26685
-3.26687
-3.26687
-3.26686
-3.26683
-3.26678
-3.26672
-3.26664
-3.26657
-3.26655
-3.26659
-3.26667
-3.26674
-3.2668
-3.26684
-3.26686
-3.26687
-3.26686
-3.26685
-3.26682
-3.26678
-3.26674
-3.26669
-3.26663
-3.26657
-3.26652
-3.26646
-3.2664
-3.26634
-3.26629
-3.26625
-3.26621
-3.26618
-3.26616
-3.26615
-3.59283
-3.59284
-3.59285
-3.59288
-3.59292
-3.59296
-3.593
-3.59305
-3.5931
-3.59315
-3.59319
-3.59324
-3.59328
-3.59331
-3.59334
-3.59337
-3.59338
-3.59338
-3.59338
-3.59336
-3.59333
-3.59329
-3.59323
-3.59317
-3.59312
-3.5931
-3.59313
-3.59318
-3.59325
-3.5933
-3.59334
-3.59336
-3.59338
-3.59338
-3.59338
-3.59336
-3.59334
-3.59331
-3.59327
-3.59323
-3.59318
-3.59314
-3.59309
-3.59304
-3.59299
-3.59295
-3.59291
-3.59288
-3.59285
-3.59284
-3.59283
-3.59283
-3.59284
-3.59286
-3.59289
-3.59292
-3.59296
-3.593
-3.59305
-3.5931
-3.59315
-3.5932
-3.59324
-3.59328
-3.59332
-3.59335
-3.59337
-3.59338
-3.59338
-3.59338
-3.59336
-3.59333
-3.59328
-3.59323
-3.59317
-3.59312
-3.5931
-3.59313
-3.59319
-3.59325
-3.5933
-3.59334
-3.59337
-3.59338
-3.59338
-3.59338
-3.59336
-3.59334
-3.59331
-3.59327
-3.59323
-3.59318
-3.59313
-3.59308
-3.59303
-3.59299
-3.59294
-3.59291
-3.59287
-3.59285
-3.59283
-3.59282
-3.9195
-3.91951
-3.91952
-3.91955
-3.91957
-3.91961
-3.91964
-3.91968
-3.91972
-3.91976
-3.9198
-3.91983
-3.91986
-3.91989
-3.9199
-3.91992
-3.91992
-3.91991
-3.9199
-3.91988
-3.91984
-3.91981
-3.91976
-3.91971
-3.91967
-3.91966
-3.91968
-3.91972
-3.91977
-3.91981
-3.91985
-3.91988
-3.9199
-3.91991
-3.91992
-3.91991
-3.9199
-3.91988
-3.91986
-3.91983
-3.91979
-3.91976
-3.91972
-3.91968
-3.91964
-3.9196
-3.91957
-3.91954
-3.91952
-3.91951
-3.9195
-3.9195
-3.91951
-3.91953
-3.91955
-3.91958
-3.91961
-3.91965
-3.91969
-3.91973
-3.91977
-3.9198
-3.91984
-3.91986
-3.91989
-3.91991
-3.91992
-3.91992
-3.91991
-3.9199
-3.91987
-3.91984
-3.9198
-3.91976
-3.91971
-3.91967
-3.91966
-3.91968
-3.91972
-3.91977
-3.91982
-3.91985
-3.91988
-3.9199
-3.91992
-3.91992
-3.91991
-3.9199
-3.91988
-3.91986
-3.91982
-3.91979
-3.91975
-3.91971
-3.91967
-3.91963
-3.9196
-3.91957
-3.91954
-3.91952
-3.9195
-3.9195
-4.24617
-4.24618
-4.24619
-4.24621
-4.24623
-4.24626
-4.24629
-4.24632
-4.24635
-4.24638
-4.24641
-4.24643
-4.24645
-4.24646
-4.24647
-4.24647
-4.24646
-4.24645
-4.24643
-4.2464
-4.24637
-4.24633
-4.24629
-4.24626
-4.24623
-4.24622
-4.24623
-4.24626
-4.2463
-4.24634
-4.24638
-4.24641
-4.24643
-4.24645
-4.24647
-4.24647
-4.24647
-4.24646
-4.24645
-4.24643
-4.2464
-4.24638
-4.24635
-4.24631
-4.24628
-4.24626
-4.24623
-4.24621
-4.24619
-4.24618
-4.24617
-4.24617
-4.24618
-4.24619
-4.24621
-4.24624
-4.24626
-4.24629
-4.24632
-4.24635
-4.24638
-4.24641
-4.24643
-4.24645
-4.24646
-4.24647
-4.24647
-4.24646
-4.24645
-4.24643
-4.2464
-4.24637
-4.24633
-4.24629
-4.24625
-4.24623
-4.24622
-4.24623
-4.24627
-4.2463
-4.24634
-4.24638
-4.24641
-4.24644
-4.24646
-4.24647
-4.24647
-4.24647
-4.24646
-4.24645
-4.24643
-4.2464
-4.24637
-4.24634
-4.24631
-4.24628
-4.24625
-4.24623
-4.2462
-4.24619
-4.24617
-4.24617
-4.57284
-4.57285
-4.57286
-4.57288
-4.57289
-4.57291
-4.57294
-4.57296
-4.57298
-4.573
-4.57302
-4.57303
-4.57304
-4.57304
-4.57304
-4.57303
-4.57302
-4.57299
-4.57297
-4.57294
-4.5729
-4.57287
-4.57283
-4.5728
-4.57278
-4.57277
-4.57278
-4.57281
-4.57284
-4.57287
-4.57291
-4.57294
-4.57297
-4.573
-4.57302
-4.57303
-4.57304
-4.57304
-4.57304
-4.57303
-4.57301
-4.573
-4.57298
-4.57295
-4.57293
-4.57291
-4.57289
-4.57287
-4.57286
-4.57285
-4.57285
-4.57285
-4.57285
-4.57286
-4.57288
-4.5729
-4.57292
-4.57294
-4.57296
-4.57298
-4.573
-4.57302
-4.57303
-4.57304
-4.57304
-4.57304
-4.57303
-4.57301
-4.57299
-4.57297
-4.57293
-4.5729
-4.57286
-4.57283
-4.5728
-4.57278
-4.57277
-4.57278
-4.57281
-4.57284
-4.57288
-4.57291
-4.57295
-4.57298
-4.573
-4.57302
-4.57303
-4.57304
-4.57304
-4.57304
-4.57303
-4.57301
-4.573
-4.57297
-4.57295
-4.57293
-4.57291
-4.57289
-4.57287
-4.57286
-4.57285
-4.57284
-4.89952
-4.89953
-4.89953
-4.89954
-4.89956
-4.89957
-4.89958
-4.8996
-4.89961
-4.89962
-4.89963
-4.89963
-4.89963
-4.89962
-4.89961
-4.89959
-4.89957
-4.89954
-4.89951
-4.89948
-4.89944
-4.89941
-4.89937
-4.89935
-4.89933
-4.89932
-4.89933
-4.89935
-4.89938
-4.89941
-4.89945
-4.89948
-4.89952
-4.89955
-4.89957
-4.8996
-4.89961
-4.89962
-4.89963
-4.89963
-4.89962
-4.89962
-4.89961
-4.89959
-4.89958
-4.89957
-4.89955
-4.89954
-4.89953
-4.89952
-4.89952
-4.89952
-4.89953
-4.89953
-4.89954
-4.89956
-4.89957
-4.89958
-4.8996
-4.89961
-4.89962
-4.89963
-4.89963
-4.89963
-4.89962
-4.89961
-4.89959
-4.89957
-4.89954
-4.89951
-4.89947
-4.89944
-4.8994
-4.89937
-4.89934
-4.89933
-4.89932
-4.89933
-4.89935
-4.89938
-4.89941
-4.89945
-4.89949
-4.89952
-4.89955
-4.89958
-4.8996
-4.89961
-4.89962
-4.89963
-4.89963
-4.89962
-4.89962
-4.89961
-4.89959
-4.89958
-4.89957
-4.89955
-4.89954
-4.89953
-4.89952
-4.89952
-5.2262
-5.2262
-5.22621
-5.22621
-5.22622
-5.22623
-5.22623
-5.22624
-5.22624
-5.22624
-5.22624
-5.22623
-5.22622
-5.2262
-5.22618
-5.22615
-5.22613
-5.22609
-5.22606
-5.22602
-5.22598
-5.22595
-5.22591
-5.22589
-5.22587
-5.22587
-5.22588
-5.22589
-5.22592
-5.22595
-5.22599
-5.22603
-5.22606
-5.2261
-5.22613
-5.22616
-5.22618
-5.2262
-5.22622
-5.22623
-5.22624
-5.22624
-5.22624
-5.22624
-5.22623
-5.22622
-5.22622
-5.22621
-5.22621
-5.2262
-5.2262
-5.2262
-5.2262
-5.22621
-5.22621
-5.22622
-5.22623
-5.22623
-5.22624
-5.22624
-5.22624
-5.22623
-5.22623
-5.22622
-5.2262
-5.22618
-5.22615
-5.22612
-5.22609
-5.22605
-5.22601
-5.22598
-5.22594
-5.22591
-5.22589
-5.22587
-5.22587
-5.22588
-5.2259
-5.22592
-5.22595
-5.22599
-5.22603
-5.22607
-5.2261
-5.22613
-5.22616
-5.22619
-5.22621
-5.22622
-5.22623
-5.22624
-5.22624
-5.22624
-5.22624
-5.22623
-5.22622
-5.22622
-5.22621
-5.22621
-5.2262
-5.2262
-5.55289
-5.55289
-5.55289
-5.55289
-5.55289
-5.55289
-5.55288
-5.55288
-5.55287
-5.55286
-5.55285
-5.55283
-5.55281
-5.55278
-5.55275
-5.55272
-5.55268
-5.55264
-5.5526
-5.55256
-5.55252
-5.55249
-5.55246
-5.55243
-5.55242
-5.55241
-5.55242
-5.55244
-5.55246
-5.55249
-5.55253
-5.55257
-5.55261
-5.55265
-5.55269
-5.55273
-5.55276
-5.55279
-5.55281
-5.55283
-5.55285
-5.55286
-5.55287
-5.55288
-5.55288
-5.55289
-5.55289
-5.55289
-5.55289
-5.55289
-5.55289
-5.55289
-5.55289
-5.55289
-5.55289
-5.55289
-5.55289
-5.55288
-5.55288
-5.55287
-5.55286
-5.55284
-5.55283
-5.55281
-5.55278
-5.55275
-5.55272
-5.55268
-5.55264
-5.5526
-5.55256
-5.55252
-5.55248
-5.55245
-5.55243
-5.55242
-5.55241
-5.55242
-5.55244
-5.55246
-5.5525
-5.55253
-5.55257
-5.55261
-5.55265
-5.55269
-5.55273
-5.55276
-5.55279
-5.55281
-5.55283
-5.55285
-5.55286
-5.55287
-5.55288
-5.55289
-5.55289
-5.55289
-5.55289
-5.55289
-5.55289
-5.55289
-5.87958
-5.87958
-5.87958
-5.87957
-5.87956
-5.87955
-5.87954
-5.87953
-5.87951
-5.87949
-5.87946
-5.87943
-5.8794
-5.87936
-5.87933
-5.87928
-5.87924
-5.8792
-5.87915
-5.87911
-5.87907
-5.87903
-5.879
-5.87897
-5.87896
-5.87896
-5.87896
-5.87898
-5.879
-5.87904
-5.87907
-5.87912
-5.87916
-5.8792
-5.87925
-5.87929
-5.87933
-5.87937
-5.87941
-5.87944
-5.87947
-5.87949
-5.87951
-5.87953
-5.87954
-5.87955
-5.87956
-5.87957
-5.87958
-5.87958
-5.87958
-5.87958
-5.87958
-5.87957
-5.87957
-5.87956
-5.87955
-5.87954
-5.87952
-5.8795
-5.87948
-5.87946
-5.87943
-5.8794
-5.87936
-5.87932
-5.87928
-5.87924
-5.87919
-5.87915
-5.8791
-5.87906
-5.87903
-5.879
-5.87897
-5.87896
-5.87896
-5.87896
-5.87898
-5.87901
-5.87904
-5.87908
-5.87912
-5.87916
-5.87921
-5.87925
-5.8793
-5.87934
-5.87938
-5.87941
-5.87944
-5.87947
-5.87949
-5.87951
-5.87953
-5.87954
-5.87956
-5.87957
-5.87957
-5.87958
-5.87958
-5.87958
-6.20629
-6.20628
-6.20627
-6.20626
-6.20625
-6.20623
-6.20621
-6.20618
-6.20615
-6.20612
-6.20608
-6.20604
-6.206
-6.20595
-6.2059
-6.20585
-6.2058
-6.20575
-6.2057
-6.20565
-6.20561
-6.20557
-6.20554
-6.20552
-6.2055
-6.2055
-6.20551
-6.20552
-6.20555
-6.20558
-6.20562
-6.20566
-6.20571
-6.20576
-6.20581
-6.20586
-6.20591
-6.20596
-6.20601
-6.20605
-6.20609
-6.20612
-6.20615
-6.20618
-6.20621
-6.20623
-6.20625
-6.20626
-6.20627
-6.20628
-6.20628
-6.20628
-6.20628
-6.20627
-6.20626
-6.20624
-6.20623
-6.2062
-6.20618
-6.20615
-6.20611
-6.20608
-6.20604
-6.20599
-6.20595
-6.2059
-6.20585
-6.2058
-6.20575
-6.2057
-6.20565
-6.20561
-6.20557
-6.20554
-6.20552
-6.2055
-6.2055
-6.20551
-6.20552
-6.20555
-6.20558
-6.20562
-6.20567
-6.20572
-6.20577
-6.20582
-6.20587
-6.20592
-6.20596
-6.20601
-6.20605
-6.20609
-6.20613
-6.20616
-6.20619
-6.20621
-6.20623
-6.20625
-6.20627
-6.20628
-6.20628
-6.20629
-6.533
-6.533
-6.53298
-6.53297
-6.53294
-6.53291
-6.53288
-6.53284
-6.5328
-6.53276
-6.53271
-6.53265
-6.5326
-6.53254
-6.53249
-6.53243
-6.53237
-6.53231
-6.53226
-6.53221
-6.53216
-6.53212
-6.53209
-6.53206
-6.53205
-6.53205
-6.53205
-6.53207
-6.53209
-6.53213
-6.53217
-6.53222
-6.53227
-6.53232
-6.53238
-6.53244
-6.5325
-6.53256
-6.53261
-6.53266
-6.53272
-6.53276
-6.53281
-6.53285
-6.53289
-6.53292
-6.53295
-6.53297
-6.53299
-6.533
-6.533
-6.533
-6.53299
-6.53298
-6.53296
-6.53294
-6.53291
-6.53288
-6.53284
-6.5328
-6.53275
-6.5327
-6.53265
-6.5326
-6.53254
-6.53248
-6.53242
-6.53237
-6.53231
-6.53225
-6.5322
-6.53216
-6.53212
-6.53209
-6.53206
-6.53205
-6.53205
-6.53205
-6.53207
-6.5321
-6.53213
-6.53217
-6.53222
-6.53227
-6.53233
-6.53239
-6.53245
-6.5325
-6.53256
-6.53262
-6.53267
-6.53272
-6.53277
-6.53281
-6.53285
-6.53289
-6.53292
-6.53295
-6.53297
-6.53299
-6.533
-6.533
-6.85974
-6.85973
-6.85971
-6.85969
-6.85965
-6.85961
-6.85957
-6.85952
-6.85947
-6.85941
-6.85935
-6.85928
-6.85922
-6.85915
-6.85908
-6.85901
-6.85895
-6.85888
-6.85882
-6.85877
-6.85872
-6.85867
-6.85864
-6.85861
-6.8586
-6.8586
-6.8586
-6.85862
-6.85865
-6.85868
-6.85873
-6.85878
-6.85883
-6.8589
-6.85896
-6.85903
-6.85909
-6.85916
-6.85923
-6.85929
-6.85936
-6.85942
-6.85948
-6.85953
-6.85958
-6.85962
-6.85966
-6.85969
-6.85971
-6.85973
-6.85973
-6.85973
-6.85972
-6.85971
-6.85968
-6.85965
-6.85961
-6.85957
-6.85952
-6.85946
-6.8594
-6.85934
-6.85928
-6.85921
-6.85914
-6.85908
-6.85901
-6.85894
-6.85888
-6.85882
-6.85876
-6.85871
-6.85867
-6.85864
-6.85861
-6.8586
-6.8586
-6.8586
-6.85862
-6.85865
-6.85869
-6.85873
-6.85878
-6.85884
-6.8589
-6.85897
-6.85903
-6.8591
-6.85917
-6.85923
-6.8593
-6.85936
-6.85942
-6.85948
-6.85953
-6.85958
-6.85963
-6.85966
-6.85969
-6.85972
-6.85973
-6.85974
-7.18649
-7.18648
-7.18645
-7.18642
-7.18638
-7.18633
-7.18628
-7.18621
-7.18615
-7.18608
-7.186
-7.18592
-7.18584
-7.18577
-7.18569
-7.18561
-7.18554
-7.18547
-7.1854
-7.18534
-7.18528
-7.18524
-7.1852
-7.18518
-7.18516
-7.18516
-7.18516
-7.18518
-7.18521
-7.18525
-7.18529
-7.18535
-7.18541
-7.18548
-7.18555
-7.18563
-7.1857
-7.18578
-7.18586
-7.18594
-7.18602
-7.18609
-7.18616
-7.18623
-7.18629
-7.18634
-7.18639
-7.18643
-7.18646
-7.18648
-7.18649
-7.18648
-7.18647
-7.18645
-7.18642
-7.18638
-7.18633
-7.18627
-7.18621
-7.18614
-7.18607
-7.18599
-7.18592
-7.18584
-7.18576
-7.18568
-7.18561
-7.18553
-7.18546
-7.18539
-7.18533
-7.18528
-7.18524
-7.1852
-7.18518
-7.18516
-7.18516
-7.18516
-7.18518
-7.18521
-7.18525
-7.1853
-7.18535
-7.18542
-7.18548
-7.18556
-7.18563
-7.18571
-7.18579
-7.18587
-7.18594
-7.18602
-7.1861
-7.18617
-7.18623
-7.18629
-7.18635
-7.18639
-7.18643
-7.18646
-7.18648
-7.18649
-7.51326
-7.51325
-7.51322
-7.51318
-7.51313
-7.51307
-7.51301
-7.51293
-7.51285
-7.51277
-7.51268
-7.51259
-7.5125
-7.51241
-7.51232
-7.51223
-7.51215
-7.51207
-7.51199
-7.51193
-7.51187
-7.51182
-7.51178
-7.51175
-7.51174
-7.51173
-7.51174
-7.51176
-7.51179
-7.51183
-7.51188
-7.51194
-7.51201
-7.51208
-7.51216
-7.51225
-7.51233
-7.51242
-7.51251
-7.51261
-7.5127
-7.51278
-7.51287
-7.51295
-7.51302
-7.51309
-7.51314
-7.51319
-7.51322
-7.51325
-7.51326
-7.51326
-7.51324
-7.51322
-7.51318
-7.51313
-7.51307
-7.513
-7.51293
-7.51284
-7.51276
-7.51267
-7.51258
-7.51249
-7.5124
-7.51231
-7.51222
-7.51214
-7.51206
-7.51199
-7.51192
-7.51187
-7.51182
-7.51178
-7.51175
-7.51174
-7.51173
-7.51174
-7.51176
-7.51179
-7.51183
-7.51188
-7.51195
-7.51201
-7.51209
-7.51217
-7.51225
-7.51234
-7.51243
-7.51252
-7.51261
-7.5127
-7.51279
-7.51287
-7.51295
-7.51303
-7.51309
-7.51315
-7.51319
-7.51323
-7.51325
-7.51326
-7.84006
-7.84004
-7.84001
-7.83997
-7.83991
-7.83984
-7.83976
-7.83968
-7.83958
-7.83948
-7.83938
-7.83928
-7.83918
-7.83907
-7.83897
-7.83887
-7.83878
-7.83869
-7.83861
-7.83854
-7.83848
-7.83843
-7.83839
-7.83836
-7.83834
-7.83833
-7.83834
-7.83836
-7.83839
-7.83844
-7.83849
-7.83856
-7.83863
-7.83871
-7.8388
-7.83889
-7.83899
-7.83909
-7.8392
-7.8393
-7.8394
-7.8395
-7.8396
-7.83969
-7.83978
-7.83985
-7.83992
-7.83998
-7.84002
-7.84004
-7.84006
-7.84006
-7.84004
-7.84001
-7.83996
-7.8399
-7.83983
-7.83976
-7.83967
-7.83958
-7.83948
-7.83938
-7.83927
-7.83917
-7.83907
-7.83897
-7.83887
-7.83878
-7.83869
-7.83861
-7.83854
-7.83848
-7.83842
-7.83838
-7.83835
-7.83834
-7.83833
-7.83834
-7.83836
-7.8384
-7.83844
-7.8385
-7.83856
-7.83864
-7.83872
-7.83881
-7.8389
-7.839
-7.8391
-7.8392
-7.83931
-7.83941
-7.83951
-7.83961
-7.8397
-7.83978
-7.83986
-7.83993
-7.83998
-7.84002
-7.84005
-7.84006
-8.16689
-8.16687
-8.16683
-8.16678
-8.16672
-8.16664
-8.16655
-8.16645
-8.16635
-8.16624
-8.16612
-8.16601
-8.16589
-8.16578
-8.16566
-8.16556
-8.16545
-8.16536
-8.16527
-8.16519
-8.16512
-8.16507
-8.16502
-8.16499
-8.16497
-8.16497
-8.16498
-8.165
-8.16503
-8.16508
-8.16514
-8.16521
-8.16529
-8.16538
-8.16548
-8.16558
-8.16569
-8.1658
-8.16591
-8.16603
-8.16615
-8.16626
-8.16637
-8.16647
-8.16657
-8.16665
-8.16673
-8.16679
-8.16684
-8.16687
-8.16688
-8.16688
-8.16686
-8.16683
-8.16678
-8.16671
-8.16663
-8.16654
-8.16644
-8.16634
-8.16623
-8.16611
-8.166
-8.16588
-8.16577
-8.16566
-8.16555
-8.16545
-8.16535
-8.16527
-8.16519
-8.16512
-8.16506
-8.16502
-8.16499
-8.16497
-8.16497
-8.16498
-8.165
-8.16503
-8.16508
-8.16514
-8.16521
-8.16529
-8.16538
-8.16548
-8.16559
-8.16569
-8.16581
-8.16592
-8.16604
-8.16615
-8.16627
-8.16638
-8.16648
-8.16657
-8.16666
-8.16674
-8.1668
-8.16684
-8.16688
-8.16689
-8.49375
-8.49373
-8.49369
-8.49363
-8.49356
-8.49347
-8.49337
-8.49326
-8.49315
-8.49303
-8.4929
-8.49278
-8.49265
-8.49252
-8.4924
-8.49228
-8.49217
-8.49207
-8.49197
-8.49189
-8.49182
-8.49176
-8.49171
-8.49167
-8.49165
-8.49165
-8.49166
-8.49168
-8.49172
-8.49177
-8.49183
-8.49191
-8.49199
-8.49209
-8.4922
-8.49231
-8.49243
-8.49255
-8.49268
-8.4928
-8.49293
-8.49305
-8.49317
-8.49329
-8.49339
-8.49349
-8.49357
-8.49364
-8.49369
-8.49373
-8.49374
-8.49374
-8.49372
-8.49368
-8.49362
-8.49355
-8.49346
-8.49337
-8.49326
-8.49314
-8.49302
-8.49289
-8.49277
-8.49264
-8.49252
-8.49239
-8.49228
-8.49217
-8.49206
-8.49197
-8.49189
-8.49181
-8.49175
-8.4917
-8.49167
-8.49165
-8.49165
-8.49166
-8.49168
-8.49172
-8.49177
-8.49184
-8.49191
-8.492
-8.4921
-8.4922
-8.49232
-8.49243
-8.49256
-8.49268
-8.49281
-8.49294
-8.49306
-8.49318
-8.4933
-8.4934
-8.4935
-8.49358
-8.49365
-8.4937
-8.49373
-8.49375
-8.82064
-8.82062
-8.82057
-8.82051
-8.82043
-8.82034
-8.82024
-8.82012
-8.82
-8.81987
-8.81973
-8.81959
-8.81946
-8.81932
-8.81919
-8.81907
-8.81895
-8.81884
-8.81874
-8.81865
-8.81857
-8.8185
-8.81845
-8.81841
-8.81839
-8.81839
-8.8184
-8.81842
-8.81846
-8.81852
-8.81858
-8.81866
-8.81876
-8.81886
-8.81897
-8.81909
-8.81922
-8.81935
-8.81949
-8.81962
-8.81976
-8.81989
-8.82002
-8.82015
-8.82026
-8.82036
-8.82045
-8.82052
-8.82058
-8.82062
-8.82063
-8.82063
-8.82061
-8.82057
-8.8205
-8.82043
-8.82033
-8.82023
-8.82011
-8.81999
-8.81986
-8.81972
-8.81959
-8.81945
-8.81932
-8.81919
-8.81906
-8.81894
-8.81883
-8.81873
-8.81864
-8.81856
-8.8185
-8.81845
-8.81841
-8.81839
-8.81839
-8.8184
-8.81842
-8.81846
-8.81852
-8.81859
-8.81867
-8.81876
-8.81887
-8.81898
-8.8191
-8.81923
-8.81936
-8.8195
-8.81963
-8.81977
-8.8199
-8.82003
-8.82015
-8.82027
-8.82037
-8.82046
-8.82053
-8.82059
-8.82062
-8.82064
-9.14757
-9.14754
-9.1475
-9.14743
-9.14735
-9.14725
-9.14714
-9.14702
-9.14689
-9.14675
-9.14661
-9.14647
-9.14633
-9.14618
-9.14605
-9.14592
-9.14579
-9.14567
-9.14557
-9.14547
-9.14539
-9.14532
-9.14527
-9.14523
-9.14521
-9.1452
-9.14521
-9.14524
-9.14528
-9.14534
-9.14541
-9.14549
-9.14559
-9.1457
-9.14582
-9.14594
-9.14608
-9.14622
-9.14636
-9.1465
-9.14664
-9.14678
-9.14692
-9.14705
-9.14717
-9.14727
-9.14737
-9.14745
-9.1475
-9.14754
-9.14756
-9.14756
-9.14754
-9.14749
-9.14743
-9.14734
-9.14725
-9.14714
-9.14701
-9.14688
-9.14675
-9.1466
-9.14646
-9.14632
-9.14618
-9.14604
-9.14591
-9.14578
-9.14567
-9.14556
-9.14547
-9.14539
-9.14532
-9.14527
-9.14523
-9.14521
-9.1452
-9.14521
-9.14524
-9.14528
-9.14534
-9.14541
-9.1455
-9.1456
-9.14571
-9.14582
-9.14595
-9.14608
-9.14622
-9.14637
-9.14651
-9.14665
-9.14679
-9.14693
-9.14706
-9.14717
-9.14728
-9.14738
-9.14745
-9.14751
-9.14755
-9.14757
-9.47453
-9.47451
-9.47446
-9.4744
-9.47431
-9.47421
-9.4741
-9.47397
-9.47384
-9.4737
-9.47355
-9.47341
-9.47326
-9.47311
-9.47297
-9.47284
-9.47271
-9.47259
-9.47248
-9.47238
-9.4723
-9.47223
-9.47217
-9.47213
-9.47211
-9.4721
-9.47211
-9.47214
-9.47218
-9.47224
-9.47232
-9.4724
-9.4725
-9.47261
-9.47274
-9.47287
-9.473
-9.47315
-9.47329
-9.47344
-9.47358
-9.47373
-9.47387
-9.474
-9.47412
-9.47423
-9.47433
-9.47441
-9.47447
-9.47451
-9.47453
-9.47453
-9.4745
-9.47445
-9.47439
-9.4743
-9.4742
-9.47409
-9.47396
-9.47383
-9.47369
-9.47354
-9.4734
-9.47325
-9.47311
-9.47296
-9.47283
-9.4727
-9.47258
-9.47247
-9.47238
-9.47229
-9.47222
-9.47217
-9.47213
-9.47211
-9.4721
-9.47211
-9.47214
-9.47219
-9.47225
-9.47232
-9.47241
-9.47251
-9.47262
-9.47274
-9.47287
-9.47301
-9.47315
-9.4733
-9.47345
-9.47359
-9.47374
-9.47388
-9.47401
-9.47413
-9.47424
-9.47434
-9.47442
-9.47448
-9.47452
-9.47454
)
;

boundaryField
{
    top
    {
        type            calculated;
        value           nonuniform List<scalar> 
102
(
-9.63803
-9.638
-9.63796
-9.63789
-9.6378
-9.6377
-9.63759
-9.63746
-9.63733
-9.63718
-9.63704
-9.63689
-9.63674
-9.63659
-9.63645
-9.63632
-9.63619
-9.63606
-9.63595
-9.63586
-9.63577
-9.6357
-9.63564
-9.6356
-9.63558
-9.63557
-9.63558
-9.63561
-9.63565
-9.63571
-9.63579
-9.63588
-9.63598
-9.63609
-9.63621
-9.63634
-9.63648
-9.63663
-9.63677
-9.63692
-9.63707
-9.63722
-9.63736
-9.63749
-9.63761
-9.63772
-9.63782
-9.6379
-9.63796
-9.63801
-9.63802
-9.63802
-9.638
-9.63795
-9.63788
-9.6378
-9.6377
-9.63758
-9.63745
-9.63732
-9.63718
-9.63703
-9.63688
-9.63673
-9.63659
-9.63644
-9.63631
-9.63618
-9.63606
-9.63595
-9.63585
-9.63577
-9.6357
-9.63564
-9.6356
-9.63558
-9.63557
-9.63559
-9.63561
-9.63566
-9.63572
-9.63579
-9.63588
-9.63598
-9.6361
-9.63622
-9.63635
-9.63649
-9.63663
-9.63678
-9.63693
-9.63708
-9.63722
-9.63736
-9.6375
-9.63762
-9.63773
-9.63783
-9.63791
-9.63797
-9.63801
-9.63803
)
;
    }
    bottom
    {
        type            calculated;
        value           nonuniform List<scalar> 
102
(
0.16311
0.163078
0.16302
0.162935
0.162824
0.162687
0.162525
0.162337
0.162124
0.161889
0.161632
0.161359
0.161072
0.160781
0.160491
0.160215
0.159961
0.159738
0.159554
0.159411
0.159307