/*--------------------------------*- C++ -*----------------------------------*\
| =========                 |                                                 |
| \\      /  F ield         | OpenFOAM: The Open Source CFD Toolbox           |
|  \\    /   O peration     | Version:  2.3.0                                 |
|   \\  /    A nd           | Web:      www.OpenFOAM.org                      |
|    \\/     M anipulation  |                                                 |
\*---------------------------------------------------------------------------*/
FoamFile
{
    version     2.0;
    format      ascii;
    class       volScalarField;
    location    "20000";
    object      p;
}
// * * * * * * * * * * * * * * * * * * * * * * * * * * * * * * * * * * * * * //

dimensions      [0 2 -2 0 0 0 0];

internalField   nonuniform List<scalar> 
3060
(
0
-3.10067
-8.89777
-17.3491
-28.4121
-42.0536
-58.2501
-76.9699
-98.1428
-121.627
-147.184
-174.459
-202.959
-232.03
-260.823
-288.35
-313.627
-335.764
-354.053
-368.23
-378.55
-385.533
-389.924
-392.468
-393.739
-394.07
-393.557
-392.059
-389.194
-384.345
-376.751
-365.694
-350.705
-331.607
-308.77
-282.959
-255.086
-226.155
-197.143
-168.858
-141.924
-116.807
-93.8354
-73.2274
-55.1079
-39.5363
-26.5404
-16.1451
-8.38539
-3.30379
-0.939409
-1.31552
-4.4278
-10.2476
-18.7337
-29.8448
-43.5488
-59.8224
-78.6322
-99.904
-123.49
-149.143
-176.5
-205.052
-234.132
-262.872
-290.275
-315.357
-337.235
-355.22
-369.097
-379.146
-385.911
-390.144
-392.583
-393.784
-394.061
-393.491
-391.915
-388.931
-383.908
-376.08
-364.742
-349.448
-330.054
-306.974
-280.987
-253.01
-224.044
-195.054
-166.831
-139.984
-114.965
-92.0961
-71.5856
-53.5533
-38.0554
-25.1187
-14.7685
-7.04093
-1.97974
0.375104
38.6529
36.0226
31.0806
23.8223
14.2384
2.32342
-11.9083
-28.4034
-47.0531
-67.6833
-90.0418
-113.768
-138.352
-163.114
-187.354
-210.672
-232.827
-252.999
-269.935
-282.983
-292.441
-298.873
-302.984
-305.426
-306.677
-307.008
-306.498
-305.032
-302.298
-297.777
-290.798
-280.666
-266.85
-249.187
-228.521
-206.094
-182.579
-158.193
-133.42
-108.982
-85.5289
-63.54
-43.3517
-25.1996
-9.24368
4.42007
15.7487
24.7347
31.386
35.7124
37.7169
37.3985
34.7575
29.7946
22.5045
12.8768
0.906256
-13.3921
-29.9621
-48.6912
-69.4002
-91.8291
-115.607
-140.21
-164.944
-189.118
-212.36
-234.405
-254.375
-271.026
-283.787
-292.994
-299.229
-303.197
-305.541
-306.723
-306.999
-306.431
-304.889
-302.046
-297.369
-290.177
-279.783
-265.671
-247.739
-226.9
-204.378
-180.79
-156.346
-131.559
-107.149
-83.7541
-61.839
-41.7305
-23.6575
-7.77508
5.82437
17.1
26.0449
32.6668
36.9746
38.9704
68.3816
65.8012
60.9786
53.9614
44.8284
33.701
20.7489
6.18039
-9.78149
-26.9279
-45.0799
-64.0901
-83.8423
-104.237
-125.047
-145.505
-164.295
-180.286
-193.325
-203.996
-212.065
-217.305
-220.436
-222.194
-223.061
-223.285
-222.936
-221.913
-219.924
-216.438
-210.685
-202.048
-190.928
-177.362
-160.773
-141.562
-120.961
-100.225
-79.9798
-60.4052
-41.5983
-23.6836
-6.81677
8.81421
22.9937
35.4983
46.1259
54.7173
61.1617
65.3886
67.3559
67.0429
64.4532
59.6133
52.5718
43.4092
32.2492
19.2639
4.66416
-11.326
-28.4972
-46.6705
-65.6984
-85.4661
-105.871
-126.665
-147.026
-165.621
-181.362
-194.197
-204.69
-212.531
-217.582
-220.589
-222.272
-223.09
-223.278
-222.891
-221.814
-219.739
-216.11
-210.15
-201.297
-190.002
-176.213
-159.381
-139.999
-119.327
-98.5873
-78.3551
-58.7967
-40.0086
-22.1162
-5.27543
10.3261
24.4733
36.9443
47.5393
56.1018
62.5231
66.7342
68.6937
115.342
112.838
108.17
101.407
92.6535
82.0599
69.8264
56.1969
41.4387
25.8141
9.55226
-7.16918
-24.2348
-41.5744
-59.0243
-76.0495
-91.9426
-106.359
-118.725
-127.796
-133.831
-137.839
-139.86
-140.701
-141.01
-141.073
-140.965
-140.577
-139.566
-137.202
-132.799
-126.294
-116.528
-103.686
-88.9731
-72.8388
-55.6923
-38.266
-21.004
-4.03476
12.5675
28.6727
44.0897
58.5783
71.8708
83.7013
93.8335
102.078
108.294
112.388
114.297
113.993
111.481
106.798
100.014
91.2363
80.6175
68.361
54.7135
39.9445
24.3168
8.059
-8.65345
-25.7081
-43.0345
-60.4518
-77.3907
-93.1597
-107.429
-119.565
-128.343
-134.196
-138.041
-139.937
-140.724
-141.014
-141.071
-140.954
-140.54
-139.459
-136.949
-132.389
-125.669
-115.608
-102.568
-87.7169
-71.4642
-54.247
-36.7968
-19.5231
-2.54329
14.0667
30.1741
45.5858
60.0612
73.3339
85.14
95.2464
103.467
109.664
113.743
115.646
162.769
160.522
156.336
150.28
142.455
132.995
122.069
109.87
96.61
82.503
67.7575
52.5755
37.1647
21.7689
6.73593
-7.41713
-20.2913
-32.1138
-43.0452
-51.7811
-57.2297
-59.696
-60.4104
-60.3162
-60.0633
-59.9677
-60.0978
-60.3537
-60.3441
-59.3885
-56.4368
-50.3444
-41.067
-29.9208
-17.9409
-4.82249
9.53564
24.6573
40.0551
55.4076
70.4817
85.0715
98.9727
111.974
123.859
134.419
143.464
150.832
156.398
160.067
161.78
161.508
159.254
155.057
148.987
141.145
131.667
120.724
108.511
95.2418
81.1311
66.3884
51.2171
35.8268
20.467
5.49722
-8.55422
-21.3211
-33.0691
-43.8772
-52.3559
-57.5212
-59.7898
-60.4108
-60.2843
-60.0423
-59.9692
-60.1199
-60.3789
-60.3204
-59.2488
-56.0689
-49.6888
-40.1825
-28.9441
-16.8816
-3.65152
10.7986
25.9749
41.4039
56.7739
71.8563
86.4469
100.343
113.333
125.203
135.745
144.772
152.123
157.674
161.334
163.042
204.61
202.568
198.771
193.289
186.226
177.713
167.912
157.008
145.197
132.682
119.666
106.348
92.9355
79.6574
66.7978
54.7276
43.842
34.4057
26.6518
20.664
16.8948
16.1176
17.3049
19.013
20.0734
20.3603
19.9368
18.7146
16.9885
16.0491
17.3546
21.6497
27.9649
36.0643
45.7942
56.9287
69.1739
82.1233
95.4246
108.806
122.045
134.934
147.274
158.86
169.489
178.964
187.106
193.759
198.797
202.125
203.681
203.433
201.387
197.583
192.091
185.015
176.491
166.681
155.77
143.957
131.446
118.441
105.142
91.7585
78.5233
65.7266
53.7472
42.9753
33.6673
26.0608
20.217
16.6966
16.1503
17.4426
19.1339
20.1262
20.3541
19.8699
18.5812
16.8723
16.0712
17.6308
22.144
28.5999
36.8423
46.6965
57.9398
70.268
83.2745
96.6146
110.022
123.277
136.176
148.517
160.1
170.721
180.185
188.315
194.957
199.985
203.306
204.858
243.416
241.576
238.158
233.233
226.903
219.299
210.572
200.897
190.457
179.443
168.049
156.469
144.907
133.582
122.744
112.684
103.702
96.0556
90.0548
86.1195
84.8726
86.9885
91.4222
95.6611
98.3661
99.0815
98.0047
94.9224
90.4948
86.2879
84.8141
86.6533
91.0222
97.3732
105.295
114.502
124.727
135.665
147.034
158.59
170.117
181.412
192.279
202.526
211.961
220.401
227.677
233.639
238.166
241.161
242.562
242.339
240.496
237.074
232.143
225.807
218.196
209.466
199.789
189.353
178.349
166.971
155.415
143.888
132.611
121.837
111.861
102.983
95.4578
89.6085
85.859
84.8713
87.2615
91.7804
95.9453
98.4931
99.0647
97.8347
94.6127
90.1401
86.0843
84.8961
86.9728
91.5164
98.0096
106.047
115.353
125.657
136.655
148.068
159.655
171.204
182.513
193.388
203.637
213.07
221.505
228.774
234.729
239.249
242.24
243.639
279.741
278.085
275.013
270.598
264.94
258.168
250.43
241.894
232.734
223.133
213.274
203.344
193.533
184.041
175.086
166.913
159.776
153.923
149.643
147.309
147.499
151.313
158.875
166.765
171.859
173.356
171.139
165.387
157.216
150.191
147.176
147.544
150.289
154.901
161.02
168.373
176.709
185.773
195.327
205.154
215.056
224.842
234.328
243.327
251.658
259.147
265.63
270.962
275.02
277.712
278.972
278.772
277.114
274.04
269.622
263.961
257.187
249.451
240.919
231.768
222.181
212.344
202.443
192.671
183.229
174.339
166.247
159.208
153.472
149.333
147.175
147.609
151.769
159.529
167.285
172.112
173.317
170.812
164.81
156.585
149.837
147.146
147.734
150.644
155.39
161.62
169.067
177.479
186.604
196.204
206.067
215.996
225.802
235.3
244.307
252.641
260.13
266.61
271.938
275.994
278.682
279.941
314.444
312.959
310.208
306.264
301.227
295.224
288.4
280.917
272.943
264.653
256.22
247.819
239.626
231.823
224.599
218.161
212.724
208.508
205.774
204.851
206.197
210.609
218.93
229.125
236.58
238.846
235.5
227.212
217.009
209.421
205.689
204.832
206.137
209.182
213.651
219.296
225.897
233.239
241.118
249.347
257.743
266.131
274.335
282.18
289.491
296.101
301.852
306.601
310.228
312.638
313.768
313.588
312.103
309.351
305.406
300.37
294.368
287.55
280.075
272.115
263.843
255.435
247.067
238.916
231.165
224.005
217.644
212.299
208.193
205.591
204.828
206.385
211.093
219.711
229.862
236.959
238.786
235.011
226.425
216.292
209.031
205.569
204.905
206.362
209.533
214.106
219.84
226.514
233.917
241.845
250.112
258.539
266.95
275.171
283.027
290.346
296.96
302.711
307.46
311.086
313.495
314.624
348.099
346.772
344.319
340.81
336.348
331.056
325.077
318.568
311.691
304.612
297.496
290.506
283.801
277.544
271.898
267.035
263.131
260.371
258.964
259.168
261.319
265.899
273.468
283.182
291.216
293.847
289.992
281.264
271.737
264.759
260.699
258.959
259.092
260.781
263.778
267.88
272.904
278.676
285.022
291.781
298.789
305.885
312.904
319.682
326.051
331.849
336.923
341.133
344.36
346.51
347.519
347.358
346.032
343.579
340.072
335.613
330.326
324.355
317.858
310.997
303.94
296.852
289.897
283.235
277.03
271.446
266.657
262.839
260.178
258.889
259.234
261.558
266.36
274.176
283.935
291.651
293.776
289.443
280.489
271.093
264.368
260.515
258.938
259.204
261.006
264.098
268.283
273.377
279.208
285.604
292.403
299.444
306.567
313.606
320.399
326.778
332.583
337.661
341.873
345.101
347.251
348.26
381.146
379.968
377.796
374.699
370.776
366.151
360.963
355.362
349.505
343.548
337.648
331.954
326.61
321.759
317.539
314.089
311.547
310.05
309.752
310.825
313.475
317.936
324.396
332.289
339.097
341.449
338.026
330.719
322.97
316.894
312.805
310.481
309.691
310.237
311.949
314.679
318.287
322.637
327.589
333.001
338.732
344.635
350.557
356.342
361.832
366.872
371.311
375.014
377.864
379.768
380.663
380.521
379.344
377.173
374.079
370.162
365.544
360.366
354.779
348.941
343.009
337.138
331.48
326.18
321.381
317.22
313.839
311.374
309.966
309.768
310.957
313.74
318.357
324.974
332.908
339.481
341.384
337.552
330.09
322.433
316.521
312.581
310.385
309.707
310.35
312.147
314.952
318.627
323.034
328.034
333.488
339.254
345.184
351.129
356.932
362.435
367.483
371.928
375.635
378.488
380.393
381.289
413.859
412.827
410.926
408.225
404.822
400.836
396.4
391.659
386.761
381.855
377.085
372.587
368.492
364.919
361.985
359.797
358.452
358.044
358.666
360.409
363.359
367.575
372.995
379.094
384.219
386.002
383.41
377.904
371.847
366.643
362.677
359.97
358.455
358.044
358.644
360.162
362.504
365.571
369.251
373.428
377.979
382.771
387.665
392.516
397.173
401.489
405.32
408.536
411.022
412.689
413.474
413.349
412.318
410.419
407.723
404.326
400.349
395.925
391.2
386.323
381.442
376.703
372.242
368.189
364.666
361.787
359.661
358.385
358.053
358.758
360.59
363.638
367.952
373.458
379.56
384.509
385.952
383.053
377.426
371.406
366.294
362.428
359.816
358.389
358.059
358.732
360.318
362.721
365.841
369.569
373.787
378.373
383.195
388.113
392.982
397.654
401.981
405.82
409.041
411.531
413.199
413.985
446.39
445.503
443.872
441.566
438.676
435.316
431.613
427.704
423.728
419.82
416.114
412.732
409.789
407.386
405.614
404.552
404.261
404.792
406.183
408.455
411.601
415.559
420.141
424.857
428.605
429.881
428.022
423.965
419.21
414.726
410.921
407.946
405.85
404.633
404.27
404.719
405.928
407.831
410.347
413.382
416.83
420.574
424.489
428.441
432.292
435.901
439.135
441.87
443.995
445.424
446.099
445.992
445.106
443.479
441.177
438.294
434.944
431.255
427.363
423.408
419.526
415.851
412.506
409.603
407.246
405.526
404.52
404.288
404.882
406.338
408.676
411.886
415.899
420.515
425.205
428.813
429.846
427.764
423.602
418.843
414.402
410.655
407.745
405.715
404.563
404.261
404.769
406.033
407.986
410.547
413.622
417.104
420.878
424.818
428.79
432.656
436.277
439.52
442.261
444.39
445.822
446.498
478.787
478.048
476.695
474.791
472.422
469.694
466.726
463.642
460.569
457.63
454.945
452.621
450.755
449.432
448.722
448.672
449.315
450.664
452.71
455.418
458.714
462.464
466.426
470.173
472.963
473.882
472.538
469.488
465.654
461.71
458.038
454.853
452.275
450.368
449.163
448.662
448.849
449.688
451.125
453.088
455.488
458.225
461.188
464.257
467.305
470.207
472.838
475.082
476.838
478.025
478.587
478.497
477.761
476.411
474.512
472.151
469.435
466.48
463.414
460.362
457.449
454.793
452.504
450.677
449.398
448.733
448.732
449.425
450.823
452.918
455.671
459.004
462.777
466.738
470.44
473.114
473.857
472.349
469.205
465.34
461.403
457.759
454.613
452.081
450.224
449.069
448.618
448.852
449.737
451.216
453.216
455.65
458.416
461.404
464.493
467.557
470.472
473.112
475.363
477.124
478.314
478.877
511.021
510.439
509.377
507.894
506.068
503.995
501.78
499.533
497.368
495.39
493.704
492.402
491.564
491.256
491.527
492.401
493.883
495.956
498.573
501.659
505.094
508.706
512.243
515.346
517.514
518.203
517.192
514.798
511.578
508.007
504.418
501.045
498.049
495.54
493.586
492.228
491.48
491.331
491.752
492.69
494.074
495.823
497.838
500.017
502.25
504.424
506.43
508.163
509.533
510.464
510.907
510.837
510.256
509.199
507.721
505.904
503.842
501.64
499.411
497.266
495.314
493.657
492.387
491.585
491.316
491.627
492.542
494.066
496.176
498.827
501.939
505.39
509
512.514
515.56
517.629
518.185
517.046
514.565
511.299
507.711
504.127
500.772
497.805
495.331
493.417
492.1
491.393
491.284
491.743
492.716
494.132
495.908
497.947
500.146
502.395
504.582
506.598
508.338
509.713
510.648
511.092
543.004
542.589
541.839
540.806
539.557
538.174
536.747
535.369
534.134
533.132
532.447
532.154
532.315
532.98
534.176
535.908
538.159
540.886
544.016
547.444
551.024
554.568
557.835
560.532
562.316
562.866
562.058
560.07
557.24
553.902
550.34
546.782
543.41
540.358
537.727
535.582
533.962
532.879
532.322
532.26
532.638
533.392
534.444
535.708
537.093
538.504
539.849
541.039
541.996
542.655
542.97
542.92
542.507
541.762
540.734
539.494
538.122
536.708
535.348
534.133
533.154
532.496
532.232
532.426
533.125
534.355
536.121
538.404
541.159
544.309
547.747
551.326
554.852
558.08
560.714
562.41
562.852
561.938
559.868
556.983
553.613
550.037
546.481
543.123
540.094
537.491
535.379
533.793
532.745
532.222
532.191
532.599
533.379
534.453
535.736
537.137
538.561
539.916
541.114
542.076
542.738
543.054
574.599
574.366
573.955
573.407
572.778
572.133
571.542
571.079
570.815
570.82
571.155
571.878
573.032
574.648
576.736
579.284
582.256
585.591
589.195
592.947
596.69
600.23
603.349
605.807
607.369
607.838
607.147
605.396
602.793
599.579
595.988
592.236
588.509
584.956
581.694
578.809
576.357
574.37
572.854
571.794
571.156
570.894
570.949
571.256
571.746
572.347
572.984
573.59
574.1
574.463
574.639
574.611
574.381
573.974
573.432
572.811
572.177
571.6
571.153
570.908
570.934
571.293
572.042
573.225
574.87
576.986
579.561
582.556
585.907
589.521
593.271
596.998
600.508
603.579
605.971
607.449
607.825
607.043
605.213
602.549
599.291
595.674
591.911
588.185
584.644
581.401
578.54
576.116
574.157
572.67
571.638
571.026
570.787
570.863
571.189
571.694
572.307
572.954
573.567
574.083
574.449
574.627
605.63
605.597
605.554
605.533
605.574
605.722
606.026
606.533
607.292
608.347
609.739
611.502
613.661
616.229
619.198
622.542
626.211
630.128
634.19
638.266
642.192
645.786
648.849
651.187
652.63
653.056
652.427
650.801
648.311
645.133
641.464
637.501
633.423
629.386
625.518
621.916
618.65
615.767
613.287
611.215
609.534
608.217
607.229
606.527
606.066
605.798
605.675
605.648
605.673
605.713
605.739
605.734
605.703
605.664
605.65
605.699
605.857
606.174
606.696
607.472
608.546
609.959
611.745
613.928
616.52
619.511
622.875
626.558
630.483
634.545
638.607
642.509
646.063
649.071
651.34
652.703
653.045
652.331
650.628
648.073
644.844
641.139
637.154
633.067
629.033
625.174
621.589
618.344
615.483
613.027
610.978
609.32
608.024
607.054
606.369
605.923
605.667
605.553
605.534
605.565
605.608
605.635
635.888
636.071
636.428
636.977
637.74
638.74
639.999
641.539
643.381
645.543
648.04
650.883
654.078
657.617
661.478
665.62
669.982
674.479
679
683.41
687.549
691.246
694.324
696.623
698.016
698.424
697.822
696.246
693.786
690.577
686.784
682.583
678.146
673.626
669.154
664.836
660.753
656.96
653.495
650.377
647.611
645.189
643.1
641.328
639.854
638.657
637.715
637.006
636.506
636.195
636.056
636.078
636.264
636.625
637.18
637.951
638.961
640.232
641.786
643.643
645.822
648.337
651.2
654.413
657.971
661.848
666.002
670.371
674.868
679.379
683.767
687.874
691.523
694.542
696.771
698.086
698.412
697.729
696.077
693.55
690.285
686.449
682.218
677.763
673.236
668.766
664.457
660.387
656.612
653.165
650.067
647.319
644.915
642.843
641.086
639.625
638.439
637.506
636.805
636.311
636.004
635.866
665.128
665.544
666.331
667.491
669.027
670.936
673.214
675.852
678.841
682.172
685.832
689.808
694.083
698.63
703.41
708.372
713.445
718.536
723.533
728.299
732.685
736.529
739.678
741.996
743.386
743.789
743.191
741.615
739.127
735.833
731.872
727.403
722.584
717.563
712.472
707.42
702.495
697.763
693.274
689.065
685.158
681.572
678.32
675.412
672.86
670.673
668.857
667.417
666.354
665.666
665.349
665.4
665.818
666.609
667.775
669.319
671.238
673.527
676.178
679.181
682.526
686.201
690.192
694.481
699.04
703.831
708.799
713.871
718.954
723.933
728.672
733.017
736.809
739.895
742.142
743.454
743.778
743.101
741.449
738.89
735.536
731.527
727.021
722.177
717.142
712.045
706.995
702.076
697.355
692.88
688.685
684.794
681.223
677.984
675.09
672.551
670.374
668.567
667.134
666.077
665.393
665.078
693.082
693.745
694.988
696.796
699.15
702.02
705.373
709.169
713.369
717.932
722.817
727.984
733.392
738.995
744.738
750.558
756.374
762.091
767.593
772.75
777.42
781.455
784.721
787.103
788.521
788.93
788.321
786.709
784.145
780.719
776.549
771.773
766.539
760.986
755.244
749.423
743.617
737.901
732.338
726.982
721.876
717.064
712.584
708.479
704.79
701.556
698.815
696.602
694.942
693.854
693.348
693.429
694.095
695.342
697.156
699.517
702.397
705.76
709.568
713.78
718.355
723.253
728.431
733.849
739.459
745.206
751.024
756.834
762.535
768.014
773.136
777.76
781.739
784.939
787.248
788.589
788.919
788.23
786.542
783.907
780.418
776.194
771.376
766.11
760.536
754.781
748.955
743.149
737.438
731.884
726.538
721.444
716.643
712.176
708.083
704.404
701.181
698.449
696.243
694.589
693.505
693.001
719.458
720.381
722.098
724.581
727.786
731.657
736.13
741.135
746.598
752.449
758.616
765.032
771.63
778.343
785.1
791.825
798.431
804.817
810.868
816.458
821.455
825.726
829.152
831.634
833.105
833.528
832.894
831.219
828.542
824.94
820.514
815.388
809.695
803.568
797.129
790.493
783.756
777.004
770.312
763.752
757.389
751.293
745.531
740.176
735.3
730.976
727.273
724.253
721.971
720.466
719.764
719.875
720.8
722.522
725.011
728.224
732.104
736.587
741.602
747.077
752.938
759.115
765.538
772.142
778.856
785.612
792.33
798.922
805.286
811.307
816.857
821.804
826.015
829.372
831.78
833.173
833.516
832.803
831.05
828.3
824.632
820.149
814.976
809.245
803.09
796.633
789.984
783.242
776.49
769.801
763.247
756.892
750.805
745.054
739.709
734.844
730.53
726.836
723.824
721.548
720.047
719.347
743.953
745.139
747.341
750.512
754.586
759.479
765.098
771.34
778.102
785.279
792.772
800.484
808.321
816.195
824.018
831.701
839.149
846.255
852.906
858.981
864.355
868.909
872.537
875.153
876.699
877.142
876.475
874.71
871.884
868.061
863.331
857.804
851.601
844.846
837.66
830.154
822.434
814.594
806.722
798.908
791.242
783.819
776.737
770.098
764.007
758.568
753.882
750.041
747.124
745.192
744.289
744.433
745.622
747.828
751.006
755.088
759.991
765.619
771.871
778.643
785.829
793.329
801.045
808.884
816.755
824.571
832.242
839.67
846.749
853.364
859.393
864.713
869.204
872.762
875.302
876.768
877.13
876.383
874.539
871.637
867.745
862.955
857.376
851.13
844.342
837.13
829.608
821.876
814.03
806.158
798.346
790.686
783.27
776.196
769.567
763.486
758.058
753.381
749.548
746.637
744.71
743.809
766.25
767.698
770.382
774.238
779.176
785.087
791.849
799.33
807.395
815.911
824.747
833.778
842.885
851.957
860.889
869.577
877.917
885.797
893.103
899.717
905.522
910.41
914.285
917.069
918.71
919.18
918.47
916.591
913.578
909.488
904.402
898.42
891.651
884.214
876.226
867.802
859.052
850.081
840.994
831.897
822.905
814.139
805.726
797.799
790.493
783.942
778.277
773.618
770.069
767.715
766.612
766.788
768.238
770.927
774.79
779.736
785.657
792.429
799.919
807.993
816.516
825.357
834.391
843.497
852.562
861.482
870.153
878.468
886.315
893.58
900.144
905.892
910.713
914.514
917.221
918.781
919.167
918.374
916.415
913.325
909.164
904.014
897.975
891.159
883.683
875.665
867.218
858.452
849.471
840.379
831.281
822.292
813.532
805.127
797.209
789.913
783.373
777.717
773.066
769.525
767.175
766.075
786.035
787.735
790.883
795.398
801.169
808.063
815.931
824.613
833.948
843.773
853.93
864.269
874.646
884.925
894.985
904.707
913.976
922.673
930.683
937.887
944.176
949.446
953.608
956.593
958.35
958.851
958.088
956.074
952.84
948.439
942.948
936.457
929.072
920.905
912.073
902.695
892.888
882.769
872.458
862.082
851.777
841.691
831.978
822.797
814.313
806.687
800.077
794.629
790.473
787.71
786.415
786.622
788.325
791.478
796
801.78
808.684
816.562
825.254
834.598
844.43
854.591
864.93
875.302
885.572
895.617
905.317
914.557
923.217
931.181
938.332
944.558
949.758
953.845
956.749
958.422
958.838
957.99
955.893
952.579
948.104
942.545
935.994
928.557
920.347
911.48
902.075
892.247
882.115
871.796
861.416
851.113
841.032
831.326
822.155
813.681
806.065
799.466
794.027
789.878
787.121
785.828
802.998
804.932
808.509
813.634
820.177
827.982
836.877
846.679
857.201
868.257
879.664
891.25
902.847
914.299
925.468
936.219
946.424
955.957
964.696
972.525
979.333
985.022
989.505
992.715
994.602
995.139
994.318
992.15
988.668
983.924
977.99
970.955
962.92
953.997
944.306
933.969
923.113
911.869
900.372
888.767
877.214
865.882
854.947
844.595
835.013
826.388
818.902
812.725
808.005
804.865
803.392
803.627
805.563
809.147
814.28
820.832
828.648
837.554
847.366
857.897
868.959
880.37
891.954
903.545
914.986
926.137
936.863
947.035
956.527
965.217
972.988
979.731
985.346
989.75
992.876
994.677
995.126
994.216
991.962
988.397
983.575
977.57
970.471
962.381
953.411
943.681
933.313
922.434
911.173
899.666
888.057
876.504
865.176
854.249
843.907
834.336
825.722
818.247
812.079
807.368
804.234
802.763
816.85
818.99
822.945
828.606
835.827
844.434
854.233
865.023
876.595
888.745
901.271
913.98
926.688
939.221
951.423
963.145
974.244
984.587
994.045
1002.5
1009.83
1015.95
1020.76
1024.21
1026.23
1026.81
1025.92
1023.6
1019.86
1014.76
1008.37
1000.79
992.105
982.442
971.92
960.669
948.827
936.536
923.95
911.23
898.553
886.106
874.087
862.699
852.15
842.646
834.39
827.57
822.355
818.884
817.253
817.513
819.656
823.617
829.287
836.518
845.136
854.947
865.748
877.329
889.486
902.015
914.722
927.423
939.944
952.126
963.821
974.885
985.184
994.589
1002.98
1010.24
1016.29
1021.02
1024.38
1026.31
1026.79
1025.82
1023.4
1019.57
1014.39
1007.93
1000.28
991.542
981.829
971.265
959.98
948.112
935.804
923.206
910.48
897.803
885.361
873.35
861.973
851.435
841.943
833.699
826.89
821.683
818.218
816.59
827.323
829.631
833.896
839.997
847.774
857.035
867.573
879.169
891.601
904.648
918.096
931.738
945.378
958.83
971.92
984.486
996.373
1007.44
1017.54
1026.56
1034.38
1040.9
1046.03
1049.69
1051.85
1052.46
1051.52
1049.04
1045.05
1039.62
1032.81
1024.72
1015.45
1005.13
993.866
981.814
969.115
955.928
942.419
928.765
915.156
901.792
888.884
876.649
865.309
855.087
846.201
838.855
833.235
829.49
827.73
828.011
830.323
834.594
840.704
848.492
857.765
868.316
879.924
892.365
905.42
918.871
932.512
946.145
959.583
972.653
985.19
997.039
1008.06
1018.11
1027.06
1034.81
1041.25
1046.29
1049.87
1051.93
1052.45
1051.41
1048.83
1044.76
1039.24
1032.36
1024.2
1014.87
1004.49
993.184
981.096
968.37
955.164
941.643
927.984
914.375
901.017
888.117
875.893
864.565
854.356
845.482
838.148
832.537
828.798
827.042
834.196
836.629
841.121
847.543
855.723
865.459
876.531
888.709
901.759
915.453
929.568
943.888
958.213
972.347
986.106
999.313
1011.8
1023.43
1034.04
1043.51
1051.71
1058.55
1063.93
1067.78
1070.04
1070.68
1069.69
1067.09
1062.91
1057.21
1050.06
1041.57
1031.84
1020.99
1009.16
996.491
983.144
969.283
955.09
940.752
926.466
912.44
898.891
886.045
874.135
863.393
854.05
846.322
840.405
836.46
834.606
834.902
837.338
841.836
848.268
856.459
866.208
877.293
889.483
902.544
916.246
930.365
944.685
959.003
973.124
986.861
1000.04
1012.49
1024.07
1034.62
1044.03
1052.16
1058.92
1064.21
1067.96
1070.13
1070.67
1069.58
1066.88
1062.61
1056.82
1049.59
1041.03
1031.23
1020.33
1008.45
995.751
982.376
968.497
954.291
939.948
925.663
911.643
898.103
885.269
873.372
862.644
853.313
845.597
839.689
835.752
833.901
837.182
839.695
844.332
850.955
859.383
869.405
880.793
893.307
906.709
920.763
935.244
949.936
964.634
979.147
993.278
1006.85
1019.68
1031.63
1042.53
1052.27
1060.71
1067.74
1073.28
1077.24
1079.57
1080.23
1079.21
1076.52
1072.22
1066.35
1059
1050.27
1040.27
1029.12
1016.96
1003.94
990.229
975.994
961.422
946.709
932.053
917.661
903.753
890.559
878.316
867.266
857.645
849.68
843.576
839.504
837.588
837.894
840.41
845.054
851.686
860.127
870.162
881.563
894.09
907.503
921.567
936.052
950.744
965.437
979.937
994.047
1007.59
1020.38
1032.28
1043.13
1052.8
1061.16
1068.11
1073.56
1077.42
1079.65
1080.21
1079.09
1076.31
1071.91
1065.96
1058.53
1049.72
1039.65
1028.44
1016.24
1003.19
989.447
975.193
960.611
945.894
931.239
916.853
902.955
889.773
877.545
866.508
856.901
848.949
842.854
838.789
836.877
)
;

boundaryField
{
    top
    {
        type            calculated;
        value           nonuniform List<scalar> 
102
(
837.458
840.004
844.7
851.403
859.93
870.064
881.572
894.214
907.748
921.937
936.554
951.381
966.218
980.873
995.145
1008.85
1021.81
1033.88
1044.9
1054.74
1063.26
1070.37
1075.97
1079.97
1082.32
1082.99
1081.96
1079.25
1074.9
1068.97
1061.54
1052.72
1042.61
1031.34
1019.06
1005.91
992.063
977.686
962.972
948.122
933.329
918.802
904.759
891.434
879.065
867.895
858.166
850.107
843.927
839.803
837.861
838.171
840.72
845.423
852.137
860.676
870.823
882.346
895.001
908.546
922.744
937.366
952.194
967.026
981.668
995.92
1009.59
1022.52
1034.54
1045.5
1055.27
1063.72
1070.74
1076.25
1080.16
1082.41
1082.98
1081.84
1079.03
1074.58
1068.57
1061.06
1052.16
1041.99
1030.67
1018.34
1005.15
991.276
976.881
962.156
947.303
932.512
917.991
903.958
890.645
878.29
867.135
857.42
849.373
843.204
839.086
837.148
)
;
    }
    bottom
    {
        type            calculated;
        value           nonuniform List<scalar> 
102
(
-38.8742
-41.9876
-47.8079
-56.2926
-67.3984
-81.0919
-97.3488
-116.137
-137.387
-160.957
-186.607
-213.985
-242.595
-271.782
-300.694
-328.342
-353.744
-376.007
-394.421
-408.721
-419.156
-426.244
-430.724
-433.336
-434.649
-434.993
-434.462
-432.916
-429.978
-425.036
-417.336
-406.162
-391.049
-371.825
-348.862
-322.927
-294.933
-265.883
-236.755
-208.362
-181.328
-156.118
-133.063
-112.38
-94.1934
-78.5633
-65.5177
-55.0819
-47.2915
-42.1893
-39.8152
-40.1929
-43.3179
-49.1611
-57.6807
-68.8348
-82.5911
-98.9254
-117.804
-139.154
-162.826
-188.573
-216.033
-244.696
-273.892
-302.751
-330.277
-355.484
-377.487
-395.598
-409.598
-419.762
-426.63
-430.95
-433.456
-434.696
-434.984
-434.393
-432.767
-429.709
-424.591
-416.656
-405.2
-389.782
-370.262
-347.056
-320.946
-292.848
-263.764
-234.659
-206.327
-179.381
-154.271
-131.319
-110.733
-92.6346
-77.0786
-64.0924
-53.7019
-45.9437
-40.8621
-38.4975
)
;
    }
    frontAndBack
    {
        type            empty;
    }
    left_cyc
    {
        type            cyclic;
    }
    right_cyc
    {
        type            cyclic;
    }
}


// ************************************************************************* //
