/*--------------------------------*- C++ -*----------------------------------*\
| =========                 |                                                 |
| \\      /  F ield         | OpenFOAM: The Open Source CFD Toolbox           |
|  \\    /   O peration     | Version:  2.3.0                                 |
|   \\  /    A nd           | Web:      www.OpenFOAM.org                      |
|    \\/     M anipulation  |                                                 |
\*---------------------------------------------------------------------------*/
FoamFile
{
    version     2.0;
    format      ascii;
    class       volScalarField;
    location    "20000";
    object      p;
}
// * * * * * * * * * * * * * * * * * * * * * * * * * * * * * * * * * * * * * //

dimensions      [0 2 -2 0 0 0 0];

internalField   nonuniform List<scalar> 
3060
(
0
-3.23004
-9.2584
-18.0244
-29.4602
-43.5064
-60.1189
-79.2563
-100.849
-124.762
-150.766
-178.522
-207.554
-237.219
-266.652
-294.804
-320.61
-343.18
-361.791
-376.1
-386.373
-393.171
-397.308
-399.613
-400.721
-401.001
-400.555
-399.227
-396.592
-391.964
-384.497
-373.409
-358.2
-338.704
-315.379
-288.986
-260.459
-230.886
-201.293
-172.496
-145.102
-119.556
-96.1746
-75.1637
-56.642
-40.67
-27.288
-16.5433
-8.49794
-3.21858
-0.760706
-1.15468
-4.3951
-10.4437
-19.2403
-30.7181
-44.8187
-61.4982
-80.7145
-102.395
-126.398
-152.491
-180.323
-209.406
-239.086
-268.477
-296.519
-322.15
-344.488
-362.824
-376.859
-386.884
-393.484
-397.482
-399.699
-400.753
-400.993
-400.506
-399.116
-396.381
-391.596
-383.916
-372.571
-357.083
-337.32
-313.779
-287.227
-258.61
-229.011
-199.444
-170.708
-143.394
-117.938
-94.6471
-73.7222
-55.277
-39.3693
-26.0389
-15.3338
-7.31699
-2.05602
0.393154
34.388
31.8281
27.0134
19.9274
10.5419
-1.17503
-15.2402
-31.6269
-50.2387
-70.8962
-93.3281
-117.148
-141.817
-166.628
-190.922
-214.435
-236.993
-257.69
-275.079
-288.331
-297.842
-304.276
-308.38
-310.816
-312.061
-312.388
-311.874
-310.402
-307.658
-303.12
-296.103
-285.855
-271.743
-253.549
-232.345
-209.541
-185.86
-161.421
-136.589
-112.067
-88.5335
-66.4931
-46.3059
-28.2229
-12.4047
1.06992
12.1871
20.9701
27.4517
31.6586
33.6043
33.2931
30.7243
25.8919
18.7786
9.35495
-2.4113
-16.5362
-32.9903
-51.6735
-72.4011
-94.8948
-118.759
-143.442
-168.227
-192.468
-215.928
-238.403
-258.928
-276.053
-289.039
-298.326
-304.586
-308.566
-310.916
-312.101
-312.38
-311.815
-310.277
-307.437
-302.762
-295.557
-285.073
-270.685
-252.248
-230.899
-208.026
-184.292
-159.805
-134.958
-110.46
-86.9764
-65.0011
-44.8854
-26.8737
-11.1217
2.29532
13.3656
22.1128
28.5691
32.7601
34.6985
63.2288
60.6297
55.7726
48.703
39.4979
28.281
15.2322
0.581054
-15.4204
-32.5322
-50.5498
-69.31
-88.7011
-108.677
-129.167
-149.553
-168.375
-184.513
-198.143
-209.587
-218.11
-223.4
-226.427
-228.09
-228.898
-229.104
-228.776
-227.81
-225.911
-222.494
-216.597
-207.379
-195.455
-181.356
-164.641
-145.375
-124.888
-104.511
-84.6843
-65.453
-46.8744
-29.0746
-12.2283
3.44912
17.7104
30.3043
41.0105
49.6622
56.1478
60.3992
62.3763
62.0595
59.452
54.5793
47.4878
38.2559
27.0098
13.932
-0.745536
-16.769
-33.8981
-51.9282
-70.6966
-90.0948
-110.08
-130.568
-150.883
-169.536
-185.479
-198.959
-210.24
-218.531
-223.636
-226.552
-228.151
-228.921
-229.098
-228.739
-227.729
-225.756
-222.209
-216.106
-206.67
-194.596
-180.334
-163.421
-144.008
-123.477
-103.106
-83.2873
-64.0631
-45.4939
-27.708
-10.8805
4.77328
19.0069
31.571
42.2478
50.8732
57.3378
61.5748
63.5449
110.914
108.403
103.726
96.9525
88.1896
77.5905
65.358
51.7368
36.9899
21.3665
5.07276
-11.7433
-28.9903
-46.5937
-64.3184
-81.4241
-96.8939
-110.547
-122.593
-132.006
-138.731
-143.354
-145.529
-146.336
-146.602
-146.652
-146.562
-146.217
-145.213
-142.591
-137.487
-130.3
-120.273
-107.856
-93.8772
-78.0262
-60.7218
-43.0084
-25.4956
-8.36366
8.31751
24.4443
39.8541
54.3277
67.6084
79.4336
89.5658
97.8133
104.034
108.13
110.04
109.734
107.216
102.526
95.7348
86.951
76.3304
64.0784
50.4419
35.6855
20.0584
3.76538
-13.0476
-30.2906
-47.8866
-65.5793
-82.587
-97.9112
-111.442
-123.335
-132.529
-139.104
-143.555
-145.597
-146.351
-146.603
-146.65
-146.555
-146.188
-145.115
-142.331
-137.073
-129.715
-119.473
-106.926
-92.8155
-76.8241
-59.4416
-41.707
-24.1889
-7.05341
9.6303
25.7566
41.1609
55.6231
68.887
80.6913
90.8014
99.028
105.231
109.316
111.22
158.188
155.941
151.758
145.707
137.887
128.434
117.513
105.318
92.0603
77.9498
63.1913
47.9826
32.5295
17.0766
1.96653
-12.3032
-25.338
-37.3266
-48.2423
-56.6045
-61.8891
-64.6671
-65.6126
-65.5992
-65.3557
-65.2584
-65.3936
-65.6337
-65.5088
-64.2771
-61.0215
-55.1647
-46.1693
-34.9592
-22.7953
-9.50689
4.97202
20.1732
35.6292
51.0225
66.1206
80.72
94.6211
107.616
119.493
130.043
139.076
146.434
151.99
155.653
157.361
157.087
154.835
150.643
144.579
136.745
127.275
116.34
104.133
90.8669
76.7528
61.996
46.7956
31.3594
15.9368
0.879534
-13.3051
-26.2484
-38.169
-48.9543
-57.0807
-62.1622
-64.7718
-65.6237
-65.5727
-65.3365
-65.2592
-65.4122
-65.6518
-65.4725
-64.1278
-60.6936
-54.6184
-45.402
-34.0945
-21.8581
-8.47503
6.08066
21.3277
36.8097
52.2173
67.3216
81.921
95.8169
108.802
120.666
131.2
140.217
147.56
153.104
156.757
158.462
199.702
197.66
193.863
188.382
181.321
172.812
163.016
152.117
140.311
127.797
114.772
101.433
87.9802
74.6454
61.7167
49.5758
38.6358
29.1583
21.3502
15.3344
11.6022
10.9414
12.2993
14.1959
15.285
15.5549
15.142
13.8484
11.9243
10.8409
12.087
16.3918
22.7678
30.9408
40.7305
51.9402
64.2694
77.294
90.6538
104.074
117.333
130.229
142.566
154.145
164.765
174.232
182.367
189.014
194.047
197.371
198.924
198.675
196.629
192.825
187.336
180.265
171.746
161.942
151.037
139.229
126.718
113.702
100.378
86.95
73.6517
60.7774
48.716
37.8767
28.5107
20.8305
14.944
11.4318
10.9787
12.433
14.3097
15.3302
15.5505
15.0844
13.7208
11.8127
10.8541
12.328
16.8258
23.3275
31.624
41.5225
52.8284
65.2301
78.3036
91.6962
105.138
118.411
131.313
143.652
155.227
165.841
175.298
183.423
190.059
195.084
198.402
199.951
238.324
236.482
233.063
228.136
221.805
214.198
205.47
195.793
185.35
174.33
162.924
151.324
139.73
128.364
117.476
107.362
98.3313
90.6452
84.6187
80.6816
79.4117
81.4812
86.1496
91.0139
94.1661
94.9639
93.723
90.0972
85.0738
80.75
79.3725
81.2608
85.6613
92.0638
100.044
109.316
119.606
130.602
142.017
153.605
165.152
176.459
187.332
197.58
207.015
215.454
222.729
228.69
233.215
236.209
237.608
237.384
235.54
232.116
227.184
220.847
213.235
204.504
194.826
184.386
173.374
161.981
150.402
138.839
127.513
116.681
106.64
97.7007
90.1211
84.2284
80.454
79.4058
81.7192
86.4991
91.3064
94.2937
94.9479
93.5502
89.7808
84.7395
80.5781
79.449
81.541
86.0953
92.623
100.705
110.064
120.423
131.47
142.922
154.537
166.103
177.422
188.301
198.551
207.984
216.419
223.687
229.642
234.162
237.151
238.549
274.471
272.813
269.74
265.322
259.662
252.887
245.147
236.605
227.438
217.826
207.952
197.998
188.156
178.627
169.631
161.417
154.243
148.361
144.06
141.73
141.926
145.699
153.323
161.828
167.779
169.573
166.863
160.189
151.523
144.534
141.598
141.989
144.761
149.416
155.582
162.987
171.376
180.489
190.085
199.946
209.873
219.677
229.173
238.179
246.514
254.004
260.487
265.818
269.876
272.567
273.826
273.624
271.965
268.89
264.47
258.807
252.031
244.291
235.753
226.594
216.995
207.138
197.21
187.402
177.916
168.977
160.833
153.745
147.965
143.79
141.614
142.021
146.092
153.916
162.348
168.048
169.532
166.519
159.629
150.963
144.231
141.573
142.156
145.072
149.845
156.11
163.596
172.052
181.218
190.854
200.746
210.696
220.517
230.024
239.035
247.373
254.862
261.343
266.672
270.727
273.415
274.673
308.982
307.495
304.74
300.791
295.748
289.737
282.906
275.412
267.427
259.121
250.668
242.243
234.021
226.184
218.924
212.449
206.979
202.739
199.991
199.071
200.427
204.819
213.121
223.598
231.717
234.285
230.427
221.469
211.084
203.579
199.899
199.06
200.387
203.468
207.979
213.671
220.319
227.706
235.626
243.888
252.312
260.721
268.941
276.798
284.119
290.736
296.492
301.244
304.874
307.285
308.415
308.234
306.746
303.991
300.041
294.998
288.99
282.162
274.676
266.702
258.412
249.982
241.585
233.399
225.607
218.402
211.995
206.606
202.462
199.83
199.053
200.591
205.238
213.808
224.281
232.095
234.224
229.948
220.752
210.459
203.242
199.794
199.124
200.586
203.776
208.379
214.149
220.862
228.301
236.263
244.559
253.009
261.438
269.673
277.539
284.866
291.487
297.243
301.996
305.624
308.035
309.164
342.461
341.13
338.671
335.155
330.682
325.379
319.386
312.862
305.966
298.866
291.726
284.707
277.971
271.679
265.996
261.097
257.159
254.37
252.941
253.134
255.28
259.834
267.341
277.044
285.225
287.938
283.883
275
265.526
258.644
254.633
252.922
253.088
254.818
257.86
262.008
267.079
272.896
279.284
286.079
293.119
300.242
307.284
314.081
320.465
326.277
331.361
335.579
338.811
340.964
341.975
341.813
340.482
338.024
334.509
330.039
324.74
318.755
312.24
305.359
298.278
291.162
284.174
277.475
271.228
265.599
260.765
256.902
254.2
252.874
253.191
255.488
260.234
267.955
277.708
285.621
287.872
283.389
274.321
264.97
258.305
254.473
252.904
253.188
255.017
258.142
262.363
267.496
273.364
279.795
286.625
293.694
300.839
307.899
314.708
321.102
326.919
332.007
336.227
339.46
341.613
342.623
375.339
374.157
371.976
368.867
364.93
360.288
355.079
349.455
343.573
337.589
331.658
325.93
320.55
315.661
311.402
307.913
305.333
303.802
303.473
304.519
307.143
311.565
317.948
325.718
332.392
334.672
331.276
324.083
316.461
310.477
306.445
304.166
303.42
304.012
305.772
308.551
312.208
316.606
321.602
327.056
332.825
338.761
344.713
350.525
356.038
361.097
365.552
369.269
372.128
374.038
374.936
374.792
373.61
371.431
368.325
364.392
359.756
354.556
348.945
343.079
337.116
331.211
325.514
320.173
315.328
311.121
307.692
305.18
303.726
303.485
304.633
307.373
311.928
318.446
326.25
332.721
334.616
330.869
323.543
315.999
310.154
306.251
304.085
303.437
304.114
305.948
308.793
312.508
316.955
321.994
327.484
333.283
339.244
345.215
351.042
356.566
361.633
366.094
369.813
372.675
374.586
375.484
407.897
406.859
404.946
402.23
398.807
394.796
390.333
385.561
380.63
375.688
370.879
366.341
362.203
358.586
355.608
353.376
351.988
351.54
352.122
353.827
356.737
360.901
366.245
372.213
377.163
378.85
376.337
370.985
365.05
359.929
356.026
353.373
351.91
351.55
352.202
353.773
356.169
359.287
363.018
367.244
371.84
376.674
381.607
386.492
391.18
395.523
399.378
402.612
405.112
406.787
407.576
407.449
406.412
404.502
401.789
398.371
394.368
389.916
385.158
380.245
375.325
370.543
366.037
361.936
358.362
355.433
353.255
351.928
351.545
352.2
353.983
356.977
361.227
366.642
372.609
377.406
378.809
376.036
370.577
364.671
359.629
355.812
353.241
351.855
351.566
352.282
353.913
356.361
359.527
363.299
367.56
372.187
377.047
382
386.902
391.603
395.955
399.817
403.055
405.558
407.235
408.024
440.286
439.39
437.745
435.418
432.502
429.111
425.373
421.424
417.405
413.452
409.698
406.267
403.272
400.818
398.995
397.882
397.542
398.026
399.371
401.597
404.695
408.596
413.104
417.708
421.314
422.515
420.721
416.789
412.137
407.728
403.985
401.068
399.028
397.867
397.561
398.068
399.336
401.298
403.872
406.963
410.465
414.261
418.224
422.221
426.111
429.756
433.021
435.779
437.923
439.364
440.045
439.935
439.041
437.399
435.076
432.166
428.784
425.057
421.124
417.123
413.193
409.466
406.066
403.107
400.693
398.916
397.851
397.564
398.102
399.504
401.787
404.94
408.89
413.425
418.003
421.488
422.486
420.505
416.481
411.822
407.449
403.756
400.896
398.913
397.809
397.557
398.115
399.431
401.436
404.05
407.176
410.708
414.53
418.514
422.528
426.432
430.088
433.36
436.124
438.271
439.715
440.396
472.555
471.806
470.435
468.505
466.103
463.337
460.324
457.19
454.064
451.069
448.325
445.941
444.015
442.632
441.861
441.754
442.341
443.635
445.629
448.285
451.53
455.223
459.117
462.773
465.458
466.324
465.026
462.067
458.314
454.436
450.823
447.696
445.176
443.33
442.187
441.75
442.003
442.908
444.412
446.441
448.906
451.706
454.727
457.851
460.949
463.896
466.565
468.84
470.62
471.822
472.39
472.299
471.552
470.184
468.259
465.864
463.107
460.106
456.987
453.88
450.907
448.189
445.836
443.944
442.598
441.868
441.803
442.434
443.772
445.808
448.503
451.78
455.493
459.385
462.999
465.584
466.303
464.867
461.825
458.044
454.171
450.583
447.49
445.011
443.208
442.108
441.715
442.01
442.955
444.496
446.557
449.051
451.876
454.919
458.06
461.173
464.13
466.808
469.089
470.873
472.077
472.647
504.677
504.083
502.999
501.485
499.619
497.498
495.228
492.922
490.691
488.646
486.89
485.516
484.606
484.228
484.429
485.236
486.655
488.666
491.226
494.256
497.637
501.193
504.668
507.698
509.791
510.444
509.462
507.132
503.977
500.463
496.929
493.613
490.678
488.232
486.347
485.06
484.385
484.312
484.81
485.824
487.285
489.107
491.194
493.439
495.732
497.961
500.013
501.784
503.183
504.133
504.585
504.512
503.92
502.84
501.33
499.472
497.36
495.103
492.811
490.599
488.576
486.844
485.499
484.621
484.276
484.513
485.356
486.811
488.856
491.444
494.497
497.892
501.447
504.901
507.881
509.888
510.428
509.339
506.933
503.737
500.208
496.678
493.379
490.468
488.054
486.202
484.951
484.313
484.275
484.806
485.852
487.34
489.186
491.293
493.556
495.863
498.103
500.164
501.941
503.344
504.297
504.75
536.565
536.136
535.36
534.289
532.993
531.553
530.061
528.611
527.299
526.217
525.448
525.071
525.148
525.73
526.846
528.502
530.68
533.34
536.406
539.774
543.299
546.789
550
552.636
554.365
554.889
554.1
552.158
549.379
546.092
542.582
539.081
535.771
532.788
530.23
528.164
526.626
525.629
525.16
525.187
525.654
526.494
527.63
528.972
530.429
531.905
533.306
534.541
535.533
536.214
536.54
536.487
536.061
535.288
534.223
532.933
531.503
530.023
528.588
527.294
526.231
525.486
525.135
525.241
525.853
526.999
528.684
530.891
533.574
536.659
540.036
543.56
547.033
550.211
552.792
554.444
554.876
553.998
551.985
549.158
545.842
542.32
538.822
535.524
532.561
530.028
527.99
526.483
525.516
525.078
525.131
525.624
526.487
527.642
529.001
530.472
531.959
533.368
534.61
535.606
536.29
536.617
568.084
567.835
567.393
566.802
566.117
565.405
564.739
564.191
563.837
563.747
563.986
564.61
565.667
567.188
569.184
571.645
574.535
577.794
581.329
585.018
588.702
592.188
595.255
597.662
599.18
599.63
598.951
597.235
594.675
591.506
587.967
584.273
580.61
577.13
573.948
571.15
568.791
566.901
565.485
564.527
563.991
563.828
563.98
564.379
564.954
565.63
566.332
566.991
567.542
567.932
568.121
568.09
567.843
567.405
566.819
566.142
565.439
564.784
564.251
563.913
563.841
564.101
564.749
565.83
567.377
569.398
571.882
574.793
578.067
581.61
585.298
588.969
592.429
595.453
597.802
599.249
599.619
598.862
597.077
594.464
591.258
587.695
583.992
580.331
576.861
573.696
570.92
568.585
566.72
565.329
564.396
563.883
563.741
563.911
564.325
564.913
565.6
566.311
566.976
567.532
567.924
568.114
599.061
599.009
598.931
598.86
598.837
598.908
599.124
599.534
600.189
601.135
602.415
604.066
606.113
608.572
611.437
614.682
618.258
622.091
626.077
630.083
633.948
637.487
640.499
642.791
644.198
644.609
643.989
642.39
639.937
636.803
633.186
629.282
625.273
621.316
617.536
614.03
610.868
608.094
605.728
603.771
602.206
601.004
600.126
599.53
599.166
598.985
598.936
598.971
599.043
599.114
599.154
599.147
599.097
599.023
598.957
598.941
599.021
599.248
599.671
600.341
601.304
602.602
604.273
606.341
608.821
611.706
614.968
618.557
622.397
626.383
630.379
634.222
637.726
640.69
642.923
644.261
644.599
643.906
642.241
639.731
636.553
632.905
628.982
624.967
621.011
617.24
613.749
610.605
607.851
605.506
603.57
602.025
600.841
599.98
599.397
599.046
598.875
598.835
598.876
598.953
599.026
599.068
629.288
629.45
629.767
630.259
630.949
631.862
633.022
634.452
636.176
638.213
640.583
643.298
646.366
649.782
653.524
657.554
661.813
666.215
670.651
674.985
679.058
682.697
685.724
687.98
689.342
689.735
689.139
687.587
685.162
681.998
678.258
674.121
669.759
665.325
660.951
656.74
652.772
649.102
645.764
642.777
640.142
637.85
635.886
634.233
632.868
631.77
630.913
630.274
629.828
629.552
629.43
629.449
629.613
629.934
630.431
631.129
632.05
633.22
634.662
636.399
638.451
640.837
643.569
646.653
650.085
653.841
657.883
662.148
666.55
670.978
675.294
679.339
682.937
685.912
688.107
689.402
689.725
689.06
687.441
684.958
681.745
677.968
673.806
669.428
664.989
660.617
656.414
652.458
648.803
645.482
642.512
639.893
637.616
635.667
634.027
632.674
631.585
630.736
630.103
629.662
629.39
629.269
658.524
658.917
659.659
660.756
662.21
664.022
666.187
668.702
671.559
674.75
678.267
682.098
686.229
690.637
695.284
700.121
705.077
710.062
714.964
719.647
723.959
727.741
730.837
733.113
734.473
734.863
734.271
732.716
730.263
727.015
723.112
718.712
713.975
709.05
704.067
699.134
694.337
689.742
685.396
681.333
677.573
674.132
671.02
668.246
665.817
663.74
662.019
660.657
659.654
659.007
658.709
658.756
659.151
659.897
660.999
662.46
664.28
666.455
668.98
671.849
675.052
678.582
682.427
686.571
690.99
695.646
700.487
705.444
710.423
715.309
719.968
724.247
727.984
731.025
733.239
734.532
734.853
734.192
732.572
730.058
726.758
722.813
718.382
713.624
708.686
703.699
698.768
693.977
689.392
685.058
681.007
677.261
673.833
670.733
667.971
665.552
663.484
661.771
660.416
659.418
658.773
658.477
686.504
687.141
688.335
690.072
692.335
695.097
698.326
701.985
706.037
710.445
715.17
720.176
725.424
730.871
736.465
742.144
747.83
753.428
758.824
763.888
768.476
772.444
775.653
777.991
779.379
779.776
779.171
777.581
775.054
771.677
767.57
762.872
757.729
752.283
746.66
740.971
735.308
729.745
724.34
719.146
714.204
709.552
705.228
701.271
697.717
694.606
691.972
689.845
688.252
687.208
686.724
686.802
687.441
688.638
690.381
692.651
695.421
698.658
702.327
706.39
710.808
715.544
720.56
725.816
731.27
736.867
742.545
748.225
753.811
759.187
764.221
768.77
772.689
775.841
778.116
779.437
779.765
779.093
777.436
774.848
771.417
767.263
762.529
757.359
751.894
746.261
740.568
734.906
729.347
723.95
718.765
713.832
709.191
704.878
700.931
697.387
694.284
691.657
689.537
687.949
686.909
686.426
712.939
713.832
715.496
717.902
721.007
724.759
729.095
733.948
739.249
744.929
750.92
757.158
763.578
770.118
776.709
783.277
789.737
795.99
801.922
807.407
812.313
816.508
819.872
822.307
823.747
824.157
823.529
821.876
819.239
815.692
811.337
806.298
800.708
794.698
788.393
781.904
775.325
768.742
762.225
755.844
749.661
743.741
738.151
732.958
728.232
724.042
720.456
717.533
715.324
713.868
713.189
713.298
714.194
715.861
718.272
721.384
725.143
729.488
734.35
739.66
745.349
751.348
757.592
764.018
770.559
777.148
783.711
790.159
796.394
802.3
807.751
812.614
816.757
820.062
822.433
823.805
824.146
823.45
821.73
819.031
815.426
811.022
805.942
800.32
794.287
787.966
781.466
774.883
768.3
761.786
755.41
749.234
743.322
737.741
732.557
727.84
723.659
720.08
717.164
714.96
713.507
712.83
737.528
738.682
740.826
743.912
747.877
752.64
758.108
764.185
770.769
777.76
785.06
792.576
800.218
807.901
815.54
823.049
830.334
837.291
843.809
849.765
855.037
859.505
863.064
865.628
867.14
867.569
866.909
865.17
862.388
858.627
853.978
848.549
842.462
835.84
828.802
821.459
813.914
806.259
798.58
790.962
783.492
776.262
769.367
762.905
756.978
751.687
747.129
743.393
740.556
738.679
737.802
737.943
739.099
741.246
744.338
748.31
753.08
758.557
764.643
771.235
778.232
785.538
793.058
800.702
808.382
816.015
823.514
830.782
837.716
844.203
850.12
855.345
859.759
863.257
865.755
867.199
867.559
866.828
865.021
862.175
858.355
853.654
848.18
842.056
835.405
828.346
820.989
813.434
805.774
798.094
790.478
783.013
775.789
768.902
762.448
756.53
751.247
746.696
742.967
740.136
738.263
737.387
759.959
761.372
763.992
767.755
772.574
778.343
784.942
792.243
800.114
808.427
817.053
825.87
834.765
843.628
852.357
860.853
869.012
876.725
883.881
890.361
896.05
900.841
904.637
907.363
908.967
909.421
908.718
906.87
903.908
899.89
894.896
889.025
882.387
875.099
867.276
859.033
850.475
841.707
832.83
823.946
815.168
806.612
798.403
790.668
783.54
777.15
771.625
767.081
763.62
761.325
760.251
760.423
761.839
764.463
768.231
773.057
778.834
785.441
792.75
800.63
808.948
817.578
826.397
835.291
844.147
852.866
861.347
869.485
877.171
884.291
890.728
896.368
901.101
904.834
907.493
909.027
909.41
908.636
906.718
903.69
899.611
894.562
888.642
881.963
874.642
866.794
858.53
849.959
841.183
832.301
823.416
814.64
806.089
797.886
790.16
783.04
776.659
771.141
766.604
763.15
760.859
759.786
779.919
781.582
784.659
789.072
794.713
801.452
809.142
817.629
826.753
836.358
846.288
856.395
866.541
876.591
886.43
895.94
905.009
913.521
921.361
928.415
934.572
939.731
943.804
946.723
948.438
948.923
948.17
946.19
943.014
938.697
933.311
926.947
919.709
911.708
903.06
893.881
884.285
874.388
864.306
854.161
844.087
834.229
824.736
815.765
807.474
800.024
793.566
788.245
784.186
781.488
780.224
780.427
782.092
785.174
789.593
795.242
801.988
809.687
818.182
827.313
836.923
846.856
856.963
867.104
877.147
886.972
896.464
905.507
913.988
921.789
928.796
934.9
939.999
944.007
946.857
948.5
948.911
948.085
946.034
942.79
938.408
932.964
926.548
919.266
911.228
902.55
893.347
883.734
873.825
863.735
853.587
843.515
833.661
824.174
815.21
806.928
799.486
793.037
787.724
783.671
780.978
779.716
797.104
798.997
802.496
807.508
813.908
821.542
830.243
839.831
850.124
860.94
872.101
883.436
894.782
905.986
916.913
927.432
937.416
946.744
955.295
962.955
969.615
975.178
979.56
982.695
984.536
985.055
984.245
982.117
978.702
974.052
968.238
961.346
953.477
944.74
935.252
925.133
914.509
903.506
892.257
880.903
869.601
858.515
847.82
837.696
828.326
819.894
812.576
806.538
801.925
798.858
797.419
797.65
799.545
803.049
808.068
814.475
822.118
830.827
840.424
850.724
861.545
872.708
884.041
895.381
906.576
917.487
927.984
937.94
947.233
955.741
963.351
969.955
975.455
979.77
982.833
984.6
985.043
984.157
981.955
978.47
973.753
967.878
960.931
953.014
944.236
934.715
924.57
913.925
902.907
891.649
880.291
868.989
857.906
847.217
837.101
827.74
819.317
812.008
805.978
801.373
798.31
796.873
811.227
813.319
817.187
822.722
829.783
838.2
847.784
858.339
869.661
881.549
893.806
906.243
918.679
930.943
942.882
954.35
965.208
975.324
984.572
992.835
1000
1005.98
1010.68
1014.04
1016.02
1016.57
1015.7
1013.42
1009.75
1004.76
998.51
991.087
982.591
973.134
962.836
951.825
940.235
928.207
915.89
903.442
891.037
878.86
867.103
855.965
845.649
836.358
828.288
821.624
816.53
813.139
811.547
811.803
813.898
817.77
823.313
830.382
838.808
848.402
858.965
870.294
882.188
894.447
906.882
919.311
931.564
943.485
954.929
965.756
975.834
985.037
993.248
1000.36
1006.27
1010.9
1014.19
1016.08
1016.56
1015.61
1013.25
1009.51
1004.45
998.136
990.655
982.108
972.608
962.274
951.233
939.621
927.577
915.249
902.796
890.391
878.217
866.465
855.336
845.029
835.748
827.688
821.033
815.946
812.56
810.971
822.038
824.292
828.456
834.412
842.005
851.05
861.346
872.679
884.831
897.589
910.741
924.085
937.427
950.584
963.386
975.673
987.294
998.107
1007.98
1016.79
1024.42
1030.78
1035.78
1039.35
1041.45
1042.04
1041.11
1038.68
1034.79
1029.48
1022.82
1014.91
1005.85
995.752
984.741
972.952
960.531
947.632
934.417
921.061
907.752
894.685
882.067
870.11
859.032
849.051
840.377
833.21
827.728
824.077
822.362
822.638
824.894
829.063
835.026
842.628
851.683
861.989
873.331
885.491
898.254
911.409
924.751
938.086
951.23
964.014
976.275
987.864
998.637
1008.46
1017.22
1024.79
1031.08
1036.01
1039.5
1041.52
1042.03
1041.02
1038.51
1034.54
1029.15
1022.43
1014.47
1005.35
995.206
984.156
972.336
959.892
946.975
933.75
920.389
907.078
894.015
881.403
869.455
858.387
848.416
839.753
832.595
827.12
823.474
821.763
829.27
831.639
836.013
842.268
850.238
859.729
870.527
882.409
895.149
908.523
922.312
936.306
950.305
964.118
977.563
990.467
1002.67
1014.02
1024.37
1033.61
1041.61
1048.28
1053.52
1057.26
1059.46
1060.07
1059.1
1056.56
1052.47
1046.9
1039.93
1031.64
1022.13
1011.54
999.976
987.597
974.552
961.005
947.133
933.122
919.164
905.465
892.238
879.703
868.087
857.618
848.516
840.992
835.234
831.398
829.595
829.885
832.257
836.636
842.899
850.878
860.378
871.187
883.079
895.827
909.207
922.998
936.99
950.982
964.783
978.209
991.087
1003.25
1014.56
1024.87
1034.05
1041.99
1048.58
1053.75
1057.41
1059.53
1060.06
1059
1056.38
1052.21
1046.57
1039.53
1031.18
1021.62
1010.97
999.374
986.963
973.894
960.33
946.447
932.43
918.472
904.777
891.556
879.03
867.425
856.966
847.875
840.36
834.61
830.779
828.98
832.871
835.3
839.784
846.192
854.355
864.072
875.124
887.281
900.313
913.991
928.094
942.409
956.734
970.878
984.648
997.866
1010.36
1021.99
1032.59
1042.05
1050.24
1057.06
1062.42
1066.25
1068.5
1069.13
1068.13
1065.53
1061.35
1055.65
1048.51
1040.02
1030.29
1019.44
1007.6
994.921
981.558
967.684
953.482
939.145
924.869
910.858
897.329
884.507
872.621
861.904
852.585
844.878
838.978
835.046
833.198
833.495
835.926
840.415
846.831
855.003
864.731
875.793
887.96
901
914.684
928.789
943.102
957.421
971.552
985.304
998.495
1010.96
1022.54
1033.09
1042.49
1050.62
1057.37
1062.65
1066.4
1068.57
1069.11
1068.03
1065.35
1061.09
1055.31
1048.11
1039.56
1029.77
1018.87
1006.99
994.278
980.891
966.999
952.786
938.444
924.167
910.16
896.638
883.825
871.95
861.244
851.935
844.238
838.346
834.419
832.574
)
;

boundaryField
{
    top
    {
        type            calculated;
        value           nonuniform List<scalar> 
102
(
833.144
835.606
840.15
846.64
854.902
864.732
875.906
888.193
901.358
915.172
929.411
943.863
958.327
972.616
986.529
999.884
1012.51
1024.26
1034.98
1044.54
1052.81
1059.71
1065.13
1069.01
1071.28
1071.92
1070.91
1068.27
1064.05
1058.29
1051.07
1042.49
1032.65
1021.68
1009.72
996.906
983.404
969.387
955.041
940.565
926.151
912.004
898.34
885.384
873.371
862.534
853.105
845.303
839.326
835.341
833.467
833.769
836.234
840.783
847.281
855.552
865.392
876.577
888.874
902.048
915.868
930.11
944.56
959.019
973.295
987.189
1000.52
1013.11
1024.82
1035.48
1044.98
1053.2
1060.02
1065.37
1069.16
1071.35
1071.9
1070.81
1068.09
1063.78
1057.95
1050.66
1042.02
1032.12
1021.11
1009.1
996.259
982.732
968.697
954.341
939.861
925.447
911.303
897.646
884.7
872.697
861.871
852.453
844.661
838.693
834.713
832.843
)
;
    }
    bottom
    {
        type            calculated;
        value           nonuniform List<scalar> 
102
(
-38.8578
-42.1006
-48.1526
-56.9524
-68.4316
-82.5305
-99.2042
-118.411
-140.082
-164.08
-190.179
-218.038
-247.18
-276.962
-306.514
-334.787
-360.719
-383.415
-402.152
-416.585
-426.974
-433.877
-438.104
-440.476
-441.627
-441.919
-441.454
-440.078
-437.37
-432.649
-425.075
-413.869
-398.536
-378.913
-355.462
-328.944
-300.295
-270.603
-240.895
-211.989
-184.494
-158.856
-135.39
-114.303
-95.7132
-79.682
-66.2497
-55.464
-47.3874
-42.0873
-39.6196
-40.0152
-43.2685
-49.3408
-58.1713
-69.6928
-83.8462
-100.587
-119.874
-141.632
-165.722
-191.91
-219.845
-249.04
-278.835
-308.346
-336.51
-362.267
-384.732
-403.194
-417.352
-427.493
-434.197
-438.283
-440.566
-441.66
-441.912
-441.403
-439.963
-437.153
-432.275
-424.486
-413.023
-397.41
-377.521
-353.853
-327.177
-298.438
-268.721
-239.04
-210.194
-182.78
-157.232
-133.858
-112.857
-94.3445
-78.3779
-64.9974
-54.2514
-46.2036
-40.922
-38.463
)
;
    }
    frontAndBack
    {
        type            empty;
    }
    left_cyc
    {
        type            cyclic;
    }
    right_cyc
    {
        type            cyclic;
    }
}


// ************************************************************************* //
