/*--------------------------------*- C++ -*----------------------------------*\
| =========                 |                                                 |
| \\      /  F ield         | OpenFOAM: The Open Source CFD Toolbox           |
|  \\    /   O peration     | Version:  2.3.0                                 |
|   \\  /    A nd           | Web:      www.OpenFOAM.org                      |
|    \\/     M anipulation  |                                                 |
\*---------------------------------------------------------------------------*/
FoamFile
{
    version     2.0;
    format      ascii;
    class       volScalarField;
    location    "20000";
    object      p_rgh;
}
// * * * * * * * * * * * * * * * * * * * * * * * * * * * * * * * * * * * * * //

dimensions      [0 2 -2 0 0 0 0];

internalField   nonuniform List<scalar> 
765
(
-71.5686
-85.4901
-110.986
-146.852
-191.416
-242.202
-295.364
-345.786
-389.681
-424.966
-447.016
-455.96
-458.293
-456.886
-449.929
-431.507
-398.453
-356.468
-307.23
-254.225
-202.46
-156.156
-118.044
-89.9348
-73.123
-68.4983
-76.3781
-96.2555
-127.125
-167.579
-215.619
-268.181
-320.643
-368.342
-408.114
-438.101
-452.815
-457.869
-458.328
-454.81
-443.295
-417.141
-379.621
-333.736
-282.178
-229.157
-179.629
-137.041
-103.622
-80.9052
-70.0022
-113.916
-124.706
-144.047
-170.755
-203.576
-241.119
-282.029
-325.693
-367.102
-397.986
-418.982
-430.679
-434.097
-431.97
-422.617
-403.479
-375.133
-335.718
-291.8
-250.05
-211.561
-177.464
-149.163
-127.93
-114.959
-111.319
-117.495
-132.744
-155.947
-185.891
-221.272
-260.666
-303.156
-346.967
-383.729
-409.399
-426.315
-433.295
-434.015
-429.015
-414.658
-391.481
-357.692
-314.724
-271.595
-231.423
-194.918
-163.494
-138.504
-121.179
-112.681
-61.246
-72.7701
-93.2164
-121.213
-155.441
-194.731
-238.051
-284.642
-330.15
-365.857
-390.818
-403.691
-407.553
-405.029
-394.843
-372.343
-339.211
-295.262
-248.266
-204.098
-163.755
-128.217
-98.6096
-76.2143
-62.4008
-58.4673
-65.115
-81.3159
-105.736
-137.017
-173.915
-215.343
-260.436
-307.465
-349.033
-379.405
-398.873
-406.425
-407.324
-401.863
-385.752
-358.118
-319.453
-272.887
-226.971
-184.561
-146.425
-113.629
-87.3775
-69.0168
-59.9058
7.76043
-5.61397
-29.0599
-60.709
-98.817
-141.938
-188.864
-238.487
-287.341
-330.961
-362.216
-376.247
-380.339
-377.737
-366.713
-339.395
-297.633
-249.664
-199.731
-152.122
-108.027
-68.6264
-35.2932
-9.70544
6.27807
10.8748
3.11745
-15.5753
-43.3772
-78.4559
-119.214
-164.351
-212.718
-262.668
-309.399
-348.397
-371.081
-379.273
-380.18
-374.265
-356.239
-320.869
-275.585
-226.022
-176.934
-130.84
-88.8445
-52.1919
-22.4044
-1.27871
9.32818
65.5129
49.6912
22.3888
-13.6417
-55.9614
-102.875
-153.519
-207.672
-262.488
-312.998
-350.696
-368.549
-374.135
-370.478
-356.345
-323.004
-274.335
-219.992
-165.21
-113.886
-66.1116
-22.6198
15.0909
44.7334
63.5823
69.0463
59.8266
37.8629
5.83834
-33.5891
-78.3272
-127.118
-179.46
-234.522
-287.923
-333.786
-361.869
-372.498
-373.797
-365.955
-343.285
-301.178
-249.063
-193.987
-140.66
-90.8891
-45.0036
-4.05126
30.0687
54.7902
67.3746
118.494
98.9192
65.5915
22.6664
-26.1912
-78.6055
-133.757
-192.144
-251.647
-308.059
-354.137
-380.667
-389.318
-383.853
-361.986
-319.633
-264.717
-205.467
-146.535
-90.798
-37.7963
12.0061
56.6087
92.6085
115.879
122.642
111.214
84.1784
45.5191
-0.737112
-51.518
-105.257
-161.895
-221.173
-279.771
-332.397
-369.867
-386.819
-388.695
-376.204
-344.24
-294.605
-236.948
-177.45
-119.885
-65.3936
-13.7239
33.9465
74.8802
105.199
120.793
168.238
143.53
101.862
49.2901
-8.78753
-68.8596
-129.693
-191.873
-254.31
-313.863
-364.433
-397.61
-409.765
-402.087
-373.656
-326.275
-268.087
-205.961
-143.647
-82.6479
-22.4495
36.2578
90.5314
135.357
164.697
173.218
158.792
124.772
76.8758
21.0155
-38.2711
-98.6678
-159.999
-222.413
-283.925
-340.085
-383.247
-406.177
-408.8
-391.445
-353.16
-299.569
-238.898
-176.4
-114.621
-53.9602
5.8117
62.9446
113.388
151.433
171.127
218.389
187.292
135.276
70.6644
0.913679
-69.0107
-136.95
-202.43
-266.017
-325.861
-377.064
-412.412
-426.457
-417.5
-386.648
-338.365
-279.951
-216.99
-152.001
-84.8216
-15.3729
54.6495
121.028
176.811
213.697
224.419
206.249
163.554
104.174
36.247
-33.891
-102.843
-169.302
-233.784
-295.873
-352.285
-396.746
-422.201
-425.279
-405.57
-365.52
-311.531
-250.46
-186.405
-120.471
-51.9197
18.226
87.2936
149.579
197.215
222.019
271.546
233.158
169.793
92.1491
9.7038
-70.8407
-145.873
-214.425
-278.26
-336.796
-386.507
-421.484
-435.963
-426.676
-395.905
-348.975
-292.063
-229.341
-162.034
-88.7583
-9.46184
72.8925
152.378
220.115
265.502
278.869
256.28
203.918
132.059
51.044
-30.954
-108.844
-180.285
-246.291
-307.686
-362.49
-405.857
-431.52
-434.726
-414.611
-375.296
-322.901
-262.877
-198.001
-128.136
-51.5356
29.9521
111.993
187.117
245.348
276.081
330.309
285.107
211.605
122.449
28.5535
-62.043
-144.247
-216.34
-280.706
-337.708
-385.143
-418.536
-432.638
-423.567
-394.118
-349.45
-294.396
-231.738
-161.66
-82.1053
6.68949
100.275
191.37
269.724
322.945
338.912
312.047
250.889
167.99
75.3259
-17.6069
-104.324
-181.01
-248.95
-309.692
-362.385
-403.624
-428.297
-431.438
-411.965
-374.525
-324.366
-265.483
-199.436
-125.317
-40.588
51.4849
145.14
231.601
299.373
335.745
397.005
347.333
267.589
171.422
70.2102
-27.4542
-115.454
-191.267
-256.946
-313.171
-358.716
-390.421
-403.918
-395.228
-367.293
-324.616
-270.728
-207.321
-134.098
-49.2187
46.4672
147.379
245.593
330.432
388.696
406.483
376.682
309.963
220.354
120.466
20.2237
-73.1365
-154.558
-224.992
-285.905
-337.092
-376.344
-399.773
-402.787
-384.221
-348.642
-300.216
-241.659
-173.711
-95.3587
-4.36326
94.9323
195.874
289.212
362.925
403.083
473.498
423.833
344.997
250.239
150.065
52.383
-36.7885
-114.356
-180.948
-236.773
-280.981
-311.32
-324.261
-315.932
-289.265
-248.051
-194.864
-130.864
-56.0254
30.2707
126.288
226.383
323.202
406.947
465.001
483.009
452.957
386.69
298.341
199.785
100.093
6.07849
-76.9669
-148.831
-209.994
-260.208
-297.95
-320.302
-323.192
-305.435
-271.311
-224.055
-165.56
-96.3709
-16.1424
75.6935
174.667
274.37
366.329
439.35
479.672
561.383
518.341
450.899
370.258
284.612
199.708
119.743
47.5412
-15.3007
-67.9212
-109.242
-137.393
-149.436
-141.689
-116.986
-78.5673
-28.5331
31.8889
101.856
180.038
264
349.82
432.227
503.721
553.844
569.65
543.378
486.375
411.09
327.157
241.386
158.597
82.4659
14.9632
-42.7961
-89.9372
-125.042
-145.744
-148.432
-131.946
-100.241
-55.9587
-0.72893
64.507
138.831
220.325
305.826
390.839
469.107
531.724
566.821
661.817
633.579
590.432
539.864
486.598
433.091
380.107
328.737
282.475
243.016
211.71
190.218
180.916
186.906
205.786
234.929
272.544
317.24
367.471
420.295
473.611
527.014
578.509
623.991
656.666
667.23
649.771
612.863
565.253
512.985
459.546
406.483
353.835
304.864
261.905
226.362
199.682
183.821
181.74
194.427
218.585
252.069
293.351
341.109
393.487
446.428
499.899
552.744
602
642.29
665.468
776.6
771.443
765.322
760.348
757.108
754.806
751
744.054
736.676
729.639
723.432
718.683
716.375
717.889
722.152
728.054
734.902
742.192
749.256
753.987
756.299
759.154
763.686
769.645
775.303
777.492
774
768
762.324
758.302
755.833
753.437
747.565
740.328
733.115
726.469
720.919
717.238
716.701
719.753
724.942
731.402
738.568
745.971
752.736
755.58
757.852
761.446
766.791
772.929
777.377
)
;

boundaryField
{
    top
    {
        type            fixedFluxPressure;
        gradient        nonuniform List<scalar> 
51
(
1974.1
2417.65
3107.29
3929.31
4812.19
5728.19
6703.99
7744.77
8723.14
9577.38
10259.6
10723.3
10918.9
10793.7
10387.8
9752.72
8935.31
7982.75
6952.27
5951.1
5027.17
4136.42
3295.45
2565.24
2049.61
1885.85
2157.63
2742.65
3510.28
4367.68
5264.7
6196.41
7226.48
8244.23
9166.42
9940.97
10521.5
10860.6
10903.8
10634.8
10111.3
9381.33
8491.02
7488.85
6440.81
5493.65
4589.05
3718.35
2921.2
2280.04
1917.73
)
;
        value           nonuniform List<scalar> 
51
(
842.404
852.031
868.899
891.325
917.515
945.746
974.466
1002.21
1027.45
1048.89
1065.42
1076.13
1080.34
1077.68
1068.41
1053.14
1032.75
1008.28
980.999
952.357
923.871
897.035
873.534
855.153
843.624
840.354
845.92
859.421
879.334
903.891
931.323
959.984
988.448
1015.14
1038.66
1057.83
1071.63
1079.26
1080.16
1074.24
1061.98
1044.11
1021.6
995.6
967.43
938.702
910.821
885.391
864.165
848.931
841.301
)
;
    }
    bottom
    {
        type            fixedFluxPressure;
        gradient        uniform 0;
        value           nonuniform List<scalar> 
51
(
-71.5686
-85.4901
-110.986
-146.852
-191.416
-242.202
-295.364
-345.786
-389.681
-424.966
-447.016
-455.96
-458.293
-456.886
-449.929
-431.507
-398.453
-356.468
-307.23
-254.225
-202.46
-156.156
-118.044
-89.9348
-73.123
-68.4983
-76.3781
-96.2555
-127.125
-167.579
-215.619
-268.181
-320.643
-368.342
-408.114
-438.101
-452.815
-457.869
-458.328
-454.81
-443.295
-417.141
-379.621
-333.736
-282.178
-229.157
-179.629
-137.041
-103.622
-80.9052
-70.0022
)
;
    }
    frontAndBack
    {
        type            empty;
    }
    left_cyc
    {
        type            cyclic;
    }
    right_cyc
    {
        type            cyclic;
    }
}


// ************************************************************************* //
