/*--------------------------------*- C++ -*----------------------------------*\
| =========                 |                                                 |
| \\      /  F ield         | OpenFOAM: The Open Source CFD Toolbox           |
|  \\    /   O peration     | Version:  2.3.0                                 |
|   \\  /    A nd           | Web:      www.OpenFOAM.org                      |
|    \\/     M anipulation  |                                                 |
\*---------------------------------------------------------------------------*/
FoamFile
{
    version     2.0;
    format      ascii;
    class       surfaceScalarField;
    location    "20000";
    object      phi;
}
// * * * * * * * * * * * * * * * * * * * * * * * * * * * * * * * * * * * * * //

dimensions      [0 3 -1 0 0 0 0];

internalField   nonuniform List<scalar> 
1464
(
0.308005
0.00238799
0.313021
-0.00501566
0.327147
-0.0141266
0.350261
-0.0231134
0.378361
-0.0281002
0.401293
-0.0229317
0.401792
-0.000499688
0.357771
0.0440212
0.248425
0.109345
0.0693311
0.179094
-0.138226
0.207557
-0.295214
0.156988
-0.380404
0.0851904
-0.406451
0.0260465
-0.395848
-0.0106028
-0.369328
-0.0265199
-0.341993
-0.0273354
-0.321678
-0.0203146
-0.310767
-0.0109113
-0.308536
-0.00223073
-0.312997
0.00446043
-0.322054
0.00905758
-0.334332
0.0122776
-0.349203
0.0148715
-0.366687
0.017484
-0.387397
0.0207097
-0.412525
0.0251281
-0.443424
0.030899
-0.479867
0.0364425
-0.515302
0.035435
-0.527694
0.0123925
-0.487004
-0.0406902
-0.395815
-0.0911894
-0.270869
-0.124946
-0.123284
-0.147585
0.028663
-0.151947
0.179919
-0.151256
0.321486
-0.141567
0.434744
-0.113258
0.510123
-0.0753782
0.527032
-0.016909
0.502094
0.0249377
0.464991
0.0371032
0.430636
0.0343545
0.402218
0.0284182
0.379022
0.0231959
0.359679
0.0193431
0.343226
0.016453
0.329279
0.0139466
0.318041
0.0112386
0.0076479
0.547127
-0.00582238
0.562097
-0.019986
0.584155
-0.0361847
0.6112
-0.050158
0.636895
-0.0537957
0.648681
-0.0347176
0.626464
0.0217173
0.542687
0.127799
0.369963
0.282069
0.101858
0.447199
-0.203811
0.513227
-0.441813
0.394989
-0.581559
0.224937
-0.640747
0.0852347
-0.648223
-0.00312734
-0.629562
-0.0451812
-0.602205
-0.0546917
-0.576327
-0.0461925
-0.556559
-0.0306801
-0.543969
-0.0148206
-0.537711
-0.00179733
-0.536043
0.00738976
-0.536837
0.0130719
-0.537992
0.0160264
-0.537428
0.0169195
-0.532895
0.0161763
-0.521786
0.0140193
-0.500978
0.0100914
-0.466885
0.00234972
-0.415769
-0.0156808
-0.344833
-0.0585441
-0.260095
-0.125428
-0.178181
-0.173103
-0.109311
-0.193815
-0.0499607
-0.206935
0.0108645
-0.212772
0.0711443
-0.211536
0.132564
-0.202987
0.20722
-0.187914
0.292694
-0.160852
0.374088
-0.0983027
0.43762
-0.0385943
0.481914
-0.00719122
0.510495
0.00577332
0.52716
0.0117538
0.535365
0.0149909
0.538029
0.0166793
0.537599
0.0168822
0.536227
0.0153186
0.535962
0.0115035
0.00469399
0.578365
-0.0204173
0.595958
-0.0375791
0.615667
-0.0558938
0.634682
-0.0691731
0.647196
-0.0663099
0.643093
-0.0306145
0.606507
0.0583033
0.515665
0.218641
0.347228
0.450506
0.0948475
0.69958
-0.189884
0.797958
-0.415827
0.620933
-0.555383
0.364493
-0.624691
0.154543
-0.647691
0.0198726
-0.644558
-0.0483145
-0.628872
-0.0703781
-0.609089
-0.0659747
-0.589846
-0.0499236
-0.573183
-0.0314831
-0.559499
-0.0154813
-0.548192
-0.00391769
-0.537794
0.00267393
-0.526197
0.00442943
-0.510737
0.00145976
-0.488227
-0.00633382
-0.455129
-0.0190784
-0.408414
-0.0366245
-0.347477
-0.0585871
-0.277784
-0.0853737
-0.215089
-0.121239
-0.17002
-0.170497
-0.129424
-0.213699
-0.0846158
-0.238623
-0.0385026
-0.253049
0.00827598
-0.259551
0.0548829
-0.258143
0.100745
-0.248849
0.144116
-0.231285
0.183849
-0.200585
0.236833
-0.151287
0.305017
-0.106778
0.372728
-0.074902
0.428363
-0.0498615
0.469486
-0.0293694
0.49799
-0.0135129
0.517274
-0.00260468
0.530781
0.00337485
0.541496
0.00460412
0.551868
0.0011314
-0.00720815
0.517294
-0.0335537
0.530076
-0.0503612
0.540987
-0.0668052
0.547301
-0.0754874
0.54458
-0.0635889
0.525978
-0.0120123
0.481493
0.102788
0.398159
0.301976
0.262064
0.5866
0.0706752
0.890969
-0.141054
1.00969
-0.315416
0.795295
-0.432234
0.481311
-0.500624
0.222933
-0.534917
0.0541649
-0.547161
-0.03607
-0.546166
-0.0713734
-0.537857
-0.0742833
-0.526027
-0.0617537
-0.51295
-0.0445603
-0.499801
-0.0286302
-0.48689
-0.0168289
-0.473749
-0.0104664
-0.459061
-0.0102585
-0.44067
-0.0169316
-0.415671
-0.0313324
-0.380752
-0.0539981
-0.333297
-0.0840796
-0.273715
-0.118169
-0.20912
-0.149969
-0.155787
-0.174571
-0.121949
-0.204335
-0.0933413
-0.242307
-0.062622
-0.269343
-0.0289792
-0.286692
0.00618273
-0.294713
0.0409588
-0.292919
0.0735642
-0.281454
0.102969
-0.26069
0.131908
-0.229524
0.173731
-0.193109
0.23364
-0.166688
0.297801
-0.139063
0.35306
-0.10512
0.39544
-0.0717495
0.426082
-0.0441548
0.448073
-0.0245965
0.464642
-0.013194
0.478422
-0.0091758
0.491262
-0.011708
-0.0201039
0.409261
-0.0403056
0.41322
-0.05432
0.412835
-0.0664207
0.406028
-0.0686801
0.390057
-0.0476183
0.361327
0.016718
0.315543
0.148573
0.248117
0.369402
0.15554
0.679177
0.0408267
1.00568
-0.0805619
1.13108
-0.189316
0.904049
-0.273512
0.565507
-0.333284
0.282705
-0.372928
0.0938086
-0.396978
-0.0120191
-0.409521
-0.0588306
-0.413871
-0.0699334
-0.412548
-0.0630767
-0.407457
-0.0496517
-0.399978
-0.0361091
-0.39097
-0.0258368
-0.380706
-0.0207303
-0.368732
-0.0222321
-0.353752
-0.0319118
-0.333605
-0.0514794
-0.305539
-0.0820641
-0.267111
-0.122508
-0.218164
-0.167115
-0.16351
-0.204623
-0.115421
-0.22266
-0.0849627
-0.234794
-0.0632611
-0.264009
-0.0422305
-0.290373
-0.0196083
-0.309314
0.00410767
-0.318429
0.027537
-0.316348
0.0495191
-0.303437
0.0703186
-0.28149
0.093566
-0.252771
0.130847
-0.23039
0.18376
-0.219601
0.237371
-0.192674
0.28261
-0.150358
0.316905
-0.106045
0.341612
-0.0688621
0.359467
-0.0424518
0.373065
-0.0267914
0.384253
-0.0203638
0.394008
-0.0214632
-0.028605
0.266847
-0.0391018
0.26149
-0.0489624
0.25088
-0.0558108
0.233923
-0.0517237
0.209624
-0.0233184
0.17736
0.0489814
0.137542
0.188391
0.0924422
0.414502
0.0476848
0.723935
0.0111193
1.04225
-0.0202702
1.16247
-0.0609348
0.944713
-0.107346
0.611918
-0.151549
0.326907
-0.189247
0.131507
-0.21899
0.0177244
-0.240778
-0.0370426
-0.25548
-0.0552314
-0.264179
-0.0543778
-0.267997
-0.0458337
-0.268022
-0.0360841
-0.265223
-0.0286363
-0.260318
-0.0256353
-0.253577
-0.0289728
-0.244606
-0.0408824
-0.232198
-0.0638876
-0.214407
-0.0998558
-0.189101
-0.147813
-0.155369
-0.200847
-0.115425
-0.244568
-0.0763648
-0.26172
-0.0514354
-0.259723
-0.0369834
-0.278461
-0.0245617
-0.302795
-0.0114848
-0.322391
0.00233035
-0.332244
0.0159419
-0.32996
0.0286402
-0.316135
0.0415696
-0.294419
0.0594193
-0.270621
0.0900114
-0.260982
0.130436
-0.260025
0.168348
-0.230587
0.198885
-0.180895
0.221161
-0.12832
0.236717
-0.0844186
0.247695
-0.0534295
0.255784
-0.0348804
0.261882
-0.0264619
0.266121
-0.0257023
-0.0305349
0.100852
-0.0308776
0.0882414
-0.0363522
0.0707875
-0.038357
0.0483622
-0.0292984
0.0214595
0.00358434
-0.00799979
0.0784407
-0.0359123
0.216303
-0.0543741
0.432964
-0.0508357
0.720396
-0.015437
1.00685
0.0334974
1.11353
0.0572733
0.920937
0.0509062
0.618286
0.0274266
0.350387
-0.00206976
0.161003
-0.0312098
0.0468645
-0.0568093
-0.011443
-0.0776097
-0.0344311
-0.0934143
-0.0385732
-0.104497
-0.0347506
-0.111411
-0.0291708
-0.114908
-0.0251395
-0.115832
-0.0247113
-0.114901
-0.0299037
-0.11243
-0.0433528
-0.10811
-0.0682076
-0.100972
-0.106995
-0.089678
-0.159107
-0.0733617
-0.217164
-0.0527192
-0.26521
-0.0310369
-0.283402
-0.0185527
-0.272207
-0.0131609
-0.283853
-0.00902909
-0.306927
-0.00438855
-0.327031
0.000819395
-0.337452
0.0058664
-0.335007
0.0101908
-0.320459
0.0146389
-0.298867
0.0231989
-0.279181
0.0397092
-0.277493
0.0606623
-0.280978
0.0792566
-0.249181
0.0934435
-0.195082
0.103048
-0.137924
0.109103
-0.0904744
0.112793
-0.0571196
0.114825
-0.0369115
0.115256
-0.0268935
0.113602
-0.0240479
-0.0260088
-0.0720914
-0.0182204
-0.0887618
-0.0196818
-0.109396
-0.0177229
-0.133316
-0.00537836
-0.1586
0.0288684
-0.181077
0.100918
-0.193215
0.228441
-0.182684
0.422433
-0.133428
0.67114
-0.0372678
0.910688
0.0771295
0.999134
0.157358
0.840709
0.190861
0.584783
0.191358
0.349889
0.174167
0.178195
0.149895
0.0711363
0.124635
0.0138169
0.101624
-0.0114206
0.0822412
-0.0191899
0.0668929
-0.0194022
0.0554696
-0.0177475
0.0474738
-0.0171437
0.04209
-0.0193275
0.0383721
-0.0261859
0.0355267
-0.0405074
0.0330833
-0.0657642
0.0308595
-0.104771
0.0287846
-0.157032
0.0266296
-0.215009
0.0241569
-0.262737
0.0212944
-0.28054
0.015902
-0.266815
0.00994558
-0.277896
0.00553059
-0.302512
0.0022126
-0.323713
-0.000571002
-0.334668
-0.00349773
-0.33208
-0.00721615
-0.316741
-0.012236
-0.293848
-0.0187445
-0.272672
-0.0234157
-0.272822
-0.026557
-0.277837
-0.0291021
-0.246636
-0.0311117
-0.193073
-0.0330197
-0.136016
-0.0350685
-0.0884256
-0.0373981
-0.05479
-0.0402976
-0.034012
-0.0443524
-0.0228387
-0.0504249
-0.0179755
-0.0169994
-0.233436
-0.00410938
-0.251299
-0.00181946
-0.272473
0.0034517
-0.29542
0.0175685
-0.316653
0.0501012
-0.329757
0.114022
-0.324184
0.222868
-0.285043
0.383293
-0.196266
0.582363
-0.053682
0.768104
0.108957
0.836495
0.234197
0.715468
0.304012
0.514968
0.329375
0.324525
0.32679
0.18078
0.309782
0.0881439
0.287295
0.0363037
0.264596
0.0112791
0.244367
0.0010391
0.227692
-0.0027273
0.214749
-0.00480496
0.205126
-0.00751996
0.19791
-0.0121121
0.191881
-0.020157
0.185809
-0.0344354
0.178502
-0.0584565
0.168569
-0.0948377
0.154302
-0.142765
0.133899
-0.194606
0.106994
-0.235832
0.0764705
-0.250016
0.0509726
-0.241317
0.0335078
-0.260432
0.0204662
-0.28947
0.00899917
-0.312246
-0.00206705
-0.323602
-0.0132308
-0.320917
-0.0251095
-0.304862
-0.0397326
-0.279224
-0.0630167
-0.249388
-0.0917682
-0.24407
-0.12084
-0.248766
-0.144824
-0.222651
-0.162223
-0.175674
-0.174229
-0.12401
-0.182657
-0.0799981
-0.18909
-0.0483564
-0.194801
-0.0283012
-0.200944
-0.0166956
-0.208742
-0.0101782
-0.00641565
-0.365426
0.00915548
-0.382338
0.0150923
-0.402056
0.0231697
-0.422187
0.0377
-0.437872
0.0657861
-0.440742
0.116891
-0.418276
0.200402
-0.354917
0.319934
-0.236815
0.46426
-0.064258
0.595547
0.128152
0.644085
0.284068
0.559553
0.38237
0.416666
0.429827
0.277068
0.441853
0.168755
0.433298
0.096699
0.415249
0.054353
0.394763
0.0317645
0.375737
0.0200655
0.359942
0.0130673
0.347843
0.00729452
0.339043
0.00128007
0.332386
-0.00545521
0.326168
-0.0139389
0.318596
-0.0268631
0.307757
-0.0476184
0.291231
-0.078311
0.266151
-0.117686
0.229672
-0.158126
0.181225
-0.187386
0.12688
-0.195671
0.0844174
-0.198855
0.0586153
-0.234629
0.0372472
-0.268102
0.0166842
-0.291683
-0.0039472
-0.302971
-0.0245909
-0.300273
-0.0453589
-0.284094
-0.0685986
-0.255985
-0.101008
-0.216978
-0.149019
-0.196059
-0.202482
-0.195303
-0.246531
-0.178602
-0.278186
-0.144019
-0.299472
-0.102725
-0.313333
-0.0661371
-0.322526
-0.039163
-0.329252
-0.0215753
-0.335297
-0.0106502
-0.342417
-0.00305887
0.00332896
-0.449588
0.0201685
-0.463708
0.0292123
-0.479865
0.0393264
-0.495246
0.0530812
-0.504296
0.0748359
-0.49778
0.110376
-0.462693
0.165315
-0.384283
0.241524
-0.251582
0.33156
-0.0682096
0.412174
0.13349
0.442385
0.302247
0.390796
0.416282
0.302631
0.478551
0.214798
0.502311
0.144994
0.502208
0.0968022
0.490093
0.0664684
0.473898
0.0479591
0.458141
0.0358229
0.444941
0.0262676
0.434954
0.0172809
0.427884
0.00835025
0.422455
-2.65947e-05
0.416515
-0.00799855
0.407786
-0.0181336
0.393776
-0.0336089
0.371377
-0.0559123
0.337408
-0.0837161
0.289082
-0.109801
0.226357
-0.12466
0.16335
-0.132665
0.119629
-0.155133
0.0877549
-0.202755
0.0573837
-0.237731
0.0259402
-0.26024
-0.00625202
-0.270778
-0.0383015
-0.268223
-0.0694536
-0.252942
-0.100019
-0.225419
-0.132095
-0.184903
-0.183153
-0.145001
-0.25084
-0.127616
-0.309278
-0.120164
-0.352148
-0.101148
-0.381523
-0.07335
-0.400404
-0.0472558
-0.412097
-0.0274705
-0.419507
-0.0141653
-0.424953
-0.00520419
-0.430672
0.00266045
0.0112324
-0.466625
0.0279426
-0.475753
0.0383401
-0.485394
0.0489674
-0.493188
0.060876
-0.494259
0.0759065
-0.480372
0.0964888
-0.440027
0.12497
-0.360602
0.162099
-0.233636
0.204593
-0.0636843
0.242223
0.122023
0.256679
0.280259
0.23256
0.39157
0.19132
0.45689
0.149478
0.487016
0.114868
0.494722
0.0890962
0.490594
0.0705965
0.481717
0.0568354
0.472027
0.0455138
0.463265
0.035029
0.455946
0.0245997
0.449926
0.0143706
0.44431
0.00558974
0.437343
-0.0010322
0.426856
-0.0076458
0.409998
-0.0167512
0.383297
-0.0292117
0.344497
-0.0449163
0.294659
-0.0599625
0.239333
-0.0693348
0.192414
-0.0857452
0.15939
-0.122109
0.121986
-0.165352
0.0806559
-0.196401
0.0365904
-0.216174
-0.00880449
-0.225384
-0.0538802
-0.223148
-0.0970425
-0.20978
-0.136601
-0.185861
-0.171466
-0.150038
-0.209867
-0.1066
-0.261021
-0.0764622
-0.314871
-0.0663142
-0.360728
-0.0552918
-0.394901
-0.0391769
-0.417597
-0.0245598
-0.431747
-0.0133205
-0.440686
-0.00522591
-0.44693
0.0010399
-0.452486
0.00821639
0.0175971
-0.410476
0.0305651
-0.41112
0.0389843
-0.409589
0.0474361
-0.40487
0.0561578
-0.394356
0.0653921
-0.373199
0.0753319
-0.33426
0.0860302
-0.269397
0.0972367
-0.172927
0.108123
-0.0475871
0.116883
0.0889419
0.12015
0.206744
0.114758
0.293115
0.104949
0.348834
0.0937596
0.381076
0.0826263
0.398025
0.0721472
0.406182
0.0624386
0.409633
0.0533846
0.41038
0.044767
0.409071
0.0363376
0.405796
0.0278747
0.400778
0.019389
0.394687
0.0116806
0.388149
0.00550631
0.380495
8.38503e-06
0.369459
-0.00571543
0.352116
-0.0118693
0.325955
-0.0187548
0.293424
-0.0274313
0.263492
-0.0394031
0.236235
-0.0584878
0.201891
-0.0877658
0.156209
-0.119669
0.103635
-0.143827
0.0470838
-0.159623
-0.0113159
-0.166984
-0.06927
-0.165194
-0.124544
-0.154505
-0.174848
-0.135557
-0.216735
-0.108151
-0.247919
-0.0754156
-0.274234
-0.0501475
-0.305923
-0.0346251
-0.337075
-0.0241396
-0.359931
-0.0163217
-0.374708
-0.00978241
-0.384234
-0.00379427
-0.391263
0.00180295
-0.397599
0.00737561
-0.403383
0.0140008
0.0220671
-0.355462
0.0187761
-0.339333
0.0228554
-0.318895
0.0269978
-0.294012
0.0312752
-0.264349
0.0357287
-0.229343
0.0403264
-0.188234
0.0449207
-0.140204
0.0492069
-0.0848048
0.0527234
-0.0228825
0.054961
0.0416975
0.0555696
0.101997
0.0544579
0.155162
0.0517847
0.200955
0.047967
0.240052
0.0435293
0.273301
0.038898
0.301412
0.0343278
0.324872
0.0299244
0.343948
0.0256909
0.358715
0.0215703
0.369096
0.0174944
0.374967
0.0135171
0.376657
0.00999149
0.375086
0.00707718
0.370785
0.00430908
0.363596
0.00147343
0.353169
-0.00144214
0.339155
-0.0047405
0.321222
-0.00949873
0.299315
-0.017496
0.271664
-0.0308365
0.233024
-0.049126
0.181692
-0.0683368
0.121334
-0.0834696
0.0553318
-0.0936206
-0.0132714
-0.0983806
-0.0812438
-0.0972211
-0.145429
-0.0903202
-0.202756
-0.0782297
-0.249603
-0.061304
-0.283375
-0.0416435
-0.308282
-0.0252409
-0.328754
-0.0141533
-0.3453
-0.00759279
-0.358048
-0.00357429
-0.36734
-0.000489993
-0.373523
0.00238805
-0.376923
0.00520331
-0.377523
0.00797571
-0.374565
0.0110428
0.014753
-0.343236
-0.32588
-0.304123
-0.277769
-0.246577
-0.210327
-0.168939
-0.122653
-0.0722329
-0.0190737
0.0348562
0.0873862
0.136676
0.181516
0.221324
0.255982
0.285634
0.310521
0.330875
0.346869
0.358615
0.366284
0.370373
0.371537
0.370058
0.366069
0.359765
0.351164
0.339501
0.322553
0.296175
0.256168
0.201583
0.135597
0.0621036
-0.0148779
-0.0910085
-0.162063
-0.224114
-0.273338
-0.307692
-0.330014
-0.344726
-0.355191
-0.363029
-0.368622
-0.371828
-0.372471
-0.370413
-0.365252
)
;

boundaryField
{
    top
    {
        type            calculated;
        value           nonuniform List<scalar> 
51
(
0.00569512
0.00549948
0.00524041
0.00492164
0.00453692
0.00407577
0.00353261
0.00292192
0.00230279
0.00180181
0.00163968
0.00192797
0.00249519
0.00312631
0.00372185
0.00423971
0.00467532
0.00503761
0.00533674
0.00557623
0.005749
0.00584813
0.00590233
0.005913
0.00578803
0.00546217
0.00486265
0.00386047
0.00216443
-0.00054889
-0.00445762
-0.00911945
-0.0137512
-0.0174835
-0.0201277
-0.0213991
-0.0210905
-0.0192659
-0.0161786
-0.0120804
-0.00728929
-0.00291852
0.000558361
0.00287221
0.00426417
0.00510235
0.00559451
0.00584616
0.00591761
0.005882
0.00581805
)
;
    }
    bottom
    {
        type            calculated;
        value           uniform 0;
    }
    frontAndBack
    {
        type            empty;
        value           nonuniform 0();
    }
    left_cyc
    {
        type            cyclic;
        value           nonuniform List<scalar> 
15
(
-0.310393
-0.538916
-0.56377
-0.504157
-0.402509
-0.268051
-0.109076
0.0594343
0.219325
0.352161
0.438575
0.458851
0.407853
0.367251
0.356317
)
;
    }
    right_cyc
    {
        type            cyclic;
        value           nonuniform List<scalar> 
15
(
0.310393
0.538916
0.56377
0.504157
0.402509
0.268051
0.109076
-0.0594343
-0.219325
-0.352161
-0.438575
-0.458851
-0.407853
-0.367251
-0.356317
)
;
    }
}


// ************************************************************************* //
