/*--------------------------------*- C++ -*----------------------------------*\
| =========                 |                                                 |
| \\      /  F ield         | OpenFOAM: The Open Source CFD Toolbox           |
|  \\    /   O peration     | Version:  2.3.0                                 |
|   \\  /    A nd           | Web:      www.OpenFOAM.org                      |
|    \\/     M anipulation  |                                                 |
\*---------------------------------------------------------------------------*/
FoamFile
{
    version     2.0;
    format      ascii;
    class       surfaceScalarField;
    location    "20000";
    object      phi;
}
// * * * * * * * * * * * * * * * * * * * * * * * * * * * * * * * * * * * * * //

dimensions      [0 3 -1 0 0 0 0];

internalField   nonuniform List<scalar> 
5988
(
0.00942277
-0.00871446
0.0178628
-0.00844007
0.0257765
-0.00791368
0.0329177
-0.00714119
0.0390538
-0.00613604
0.0439823
-0.00492857
0.0475622
-0.00357984
0.0497576
-0.00219539
0.050678
-0.000920455
0.0505676
0.000110434
0.0497215
0.000846038
0.0483635
0.00135807
0.0465755
0.00178793
0.044315
0.00226052
0.0414827
0.00283231
0.0380094
0.00347336
0.0339012
0.00410815
0.0292185
0.00468266
0.0241372
0.00508133
0.0190119
0.00512534
0.0141966
0.00481528
0.00996241
0.00423418
0.00643216
0.00353026
0.00354765
0.00288451
0.00110369
0.00244396
-0.00118718
0.00229086
-0.00363748
0.00245031
-0.00653311
0.00289563
-0.0100757
0.00354256
-0.0143179
0.00424223
-0.0191314
0.00481352
-0.0242412
0.0051098
-0.0292909
0.00504971
-0.0339298
0.00463886
-0.037987
0.00405725
-0.0414028
0.00341579
-0.0441732
0.00277035
-0.046369
0.00219588
-0.0480866
0.00171753
-0.049361
0.00127444
-0.0501016
0.000740614
-0.0500801
-2.15494e-05
-0.0490071
-0.00107295
-0.0466526
-0.00235455
-0.0429212
-0.00373139
-0.03786
-0.00506119
-0.0316174
-0.00624258
-0.0243999
-0.00721747
-0.0164429
-0.00795708
-0.00799426
-0.0084486
0.000691996
-0.00868625
0.00935908
-0.00866708
0.0177505
-0.00839142
0.025613
-0.00786252
0.0326998
-0.0070868
0.0387786
-0.00607874
0.043649
-0.00487042
0.0471744
-0.00352546
0.0493265
-0.00215209
0.0502223
-0.000895768
0.050108
0.000114311
0.0492717
0.000836318
0.0479239
0.00134773
0.0461354
0.00178851
0.043857
0.00227844
0.0409905
0.00286646
0.0374744
0.00351612
0.033323
0.00415137
0.0286044
0.00471859
0.0235161
0.00508836
0.0184236
0.00509248
0.0136738
0.00474981
0.00952465
0.00414915
0.00607962
0.00344503
0.00326121
0.00281841
0.0008516
0.00240961
-0.00144208
0.00229368
-0.00393195
0.00248987
-0.00689752
0.00296557
-0.0105266
0.00362912
-0.0148521
0.00432543
-0.0197268
0.0048747
-0.0248642
0.00513742
-0.0299011
0.00503693
-0.0345016
0.00460049
-0.0385151
0.00401347
-0.0418884
0.00337331
-0.044626
0.00273764
-0.0468059
0.00217987
-0.0485241
0.00171821
-0.0498085
0.00128438
-0.0505561
0.000747563
-0.0505258
-3.02689e-05
-0.0494226
-0.00110324
-0.0470196
-0.00240291
-0.04323
-0.00378969
-0.0381077
-0.00512221
-0.0318058
-0.00630193
-0.0245325
-0.00727329
-0.0165233
-0.00800921
-0.00802551
-0.00849782
-0.00873382
0.00781749
-0.015942
0.0149048
-0.0155274
0.021732
-0.0147409
0.0282014
-0.0136106
0.0342512
-0.0121858
0.0398671
-0.0105445
0.0450869
-0.00879964
0.0499818
-0.00709037
0.0546045
-0.0055431
0.0589227
-0.00420778
0.0627885
-0.00301974
0.0659773
-0.00183069
0.0682471
-0.000481886
0.0693538
0.00115376
0.0690381
0.00314803
0.0670378
0.00547364
0.0631899
0.00795605
0.0575022
0.0103704
0.0502036
0.0123799
0.0418334
0.0134955
0.0330452
0.0136035
0.0244799
0.0127995
0.0165898
0.0114204
0.00950294
0.00997134
0.00303205
0.00891485
-0.00321286
0.00853578
-0.0096884
0.00892584
-0.0167807
0.00998791
-0.0246694
0.0114313
-0.0332163
0.0127891
-0.0419611
0.0135583
-0.0502602
0.013409
-0.0574614
0.0122508
-0.0630355
0.010213
-0.0667644
0.00778613
-0.0686478
0.00529918
-0.0688545
0.0029771
-0.0676479
0.000989294
-0.065288
-0.00064238
-0.0620209
-0.00199273
-0.05809
-0.00319023
-0.0537185
-0.00439304
-0.0490472
-0.00574424
-0.0441021
-0.00729967
-0.0388299
-0.00900361
-0.0331625
-0.0107286
-0.0270675
-0.0123376
-0.0205641
-0.0137209
-0.0137185
-0.0148027
-0.00663099
-0.0155361
0.000576959
-0.0158942
0.00777511
-0.0158652
0.0148338
-0.0154501
0.0216339
-0.0146626
0.0280792
-0.0135321
0.0341098
-0.0121093
0.0397138
-0.0104744
0.0449308
-0.00874244
0.0498307
-0.00705205
0.0544597
-0.00552476
0.0587755
-0.00420146
0.0626216
-0.00300981
0.0657696
-0.00180022
0.0679749
-0.000416846
0.0689904
0.00126295
0.0685533
0.00330355
0.0664059
0.0056636
0.0624008
0.00815638
0.056565
0.0105545
0.0491577
0.0124956
0.040745
0.0135052
0.0319827
0.0135121
0.0235006
0.0126312
0.0157196
0.011226
0.00872885
0.00980918
0.00231102
0.00882744
-0.00393824
0.00854294
-0.0104743
0.00902598
-0.0176667
0.010158
-0.0256631
0.0116255
-0.0342861
0.0129484
-0.0430462
0.0136349
-0.0512927
0.0133839
-0.058376
0.0121202
-0.0637979
0.0100224
-0.0673685
0.00758406
-0.0691059
0.00511073
-0.069194
0.00282576
-0.0678987
0.000884573
-0.0654765
-0.00070402
-0.0621704
-0.00202169
-0.0582217
-0.00320117
-0.0538488
-0.00440319
-0.0491835
-0.00576855
-0.0442417
-0.00734468
-0.0389644
-0.00906698
-0.033283
-0.0108037
-0.0271669
-0.012418
-0.020638
-0.0138022
-0.0137643
-0.0148829
-0.0066476
-0.0156145
-0.0159714
0.00744897
-0.022829
0.0142378
-0.0223163
0.0208459
-0.021349
0.0272063
-0.019971
0.0332717
-0.0182512
0.0390128
-0.0162856
0.0444068
-0.0141936
0.0494168
-0.0121003
0.0539718
-0.0100982
0.0579689
-0.0082049
0.0613016
-0.00635244
0.0638942
-0.00442321
0.0657161
-0.00230383
0.0667816
8.82389e-05
0.0671314
0.00279822
0.0667578
0.0058473
0.0654472
0.00926662
0.0627638
0.0130539
0.0582233
0.0169204
0.0515073
0.0202115
0.042843
0.0222677
0.0331033
0.0225392
0.0231796
0.0213442
0.0135892
0.0195617
0.00440152
0.0181025
-0.00461739
0.0175547
-0.0138012
0.0181096
-0.0233787
0.0195654
-0.0332705
0.021323
-0.0429477
0.0224664
-0.0515151
0.0221257
-0.0581145
0.0200084
-0.0625439
0.0166802
-0.0651327
0.0128018
-0.0663664
0.00901983
-0.0666753
0.00560805
-0.0662619
0.00256372
-0.0651289
-0.000143704
-0.063236
-0.00253527
-0.0605717
-0.00465701
-0.0571699
-0.00659205
-0.0531096
-0.00845337
-0.0484985
-0.0103553
-0.0434388
-0.0123594
-0.0379998
-0.0144426
-0.0322186
-0.0165098
-0.0261194
-0.0184368
-0.019734
-0.0201062
-0.0131123
-0.0214244
-0.00632312
-0.0223253
0.000550071
-0.0227674
0.00741635
-0.0227315
0.0141854
-0.0222191
0.0207754
-0.0212527
0.0271202
-0.0198769
0.0331729
-0.018162
0.0389037
-0.0162053
0.0442881
-0.0141268
0.0492855
-0.0120495
0.0538211
-0.0100604
0.0577897
-0.00817005
0.0610858
-0.00630592
0.0636364
-0.00435082
0.0654144
-0.00219481
0.0664371
0.00024026
0.0667452
0.00299543
0.066318
0.00609083
0.0649148
0.00955958
0.0620857
0.0133835
0.0573518
0.0172296
0.0504322
0.0204247
0.0416368
0.0223076
0.0318703
0.0223977
0.0219939
0.0211024
0.0124716
0.0193316
0.00332713
0.0179719
-0.0056953
0.0175654
-0.0149276
0.0182583
-0.0245731
0.0198035
-0.0345044
0.0215568
-0.0441399
0.0225838
-0.0525601
0.022055
-0.058952
0.0197758
-0.0631922
0.0163604
-0.065642
0.0124723
-0.0667891
0.00873109
-0.0670467
0.00536841
-0.066591
0.00237
-0.0654139
-0.000292521
-0.063476
-0.00264191
-0.0607692
-0.0047285
-0.0573306
-0.00663975
-0.0532419
-0.00849186
-0.0486116
-0.0103989
-0.0435391
-0.0124172
-0.0380899
-0.0145163
-0.0322973
-0.0165962
-0.0261842
-0.0185311
-0.0197823
-0.0202042
-0.0131417
-0.0215235
-0.00633218
-0.022424
-0.0228655
0.00713857
-0.0294292
0.0136629
-0.0288406
0.0200461
-0.0277322
0.0262313
-0.0261561
0.0321686
-0.0241886
0.0378107
-0.0219276
0.0431014
-0.0194843
0.0479649
-0.0169638
0.052305
-0.0144383
0.0560212
-0.0119211
0.0590339
-0.0093651
0.0612989
-0.00668824
0.0628046
-0.00380952
0.0635614
-0.000668525
0.063588
0.00277155
0.0629024
0.00653292
0.0615357
0.0106333
0.0595254
0.0150642
0.0566865
0.0197593
0.0523536
0.0245444
0.0458379
0.0287833
0.0370603
0.0313168
0.0268336
0.0315709
0.0160842
0.0303112
0.00528083
0.0289059
-0.00549335
0.0283289
-0.0162817
0.028898
-0.026996
0.0302796
-0.0371573
0.0314844
-0.0458362
0.0311453
-0.0522434
0.0285328
-0.056486
0.024251
-0.0592612
0.0194555
-0.0612195
0.0147601
-0.0625311
0.0103315
-0.0631571
0.00623398
-0.0630672
0.00247387
-0.0622443
-0.000966648
-0.0606701
-0.00410944
-0.0583359
-0.00699127
-0.0552555
-0.00967237
-0.0514761
-0.0122328
-0.0470795
-0.0147519
-0.0421669
-0.017272
-0.0368341
-0.0197754
-0.0311564
-0.0221876
-0.0251901
-0.0244031
-0.018984
-0.0263123
-0.0125889
-0.0278195
-0.0060632
-0.028851
0.000527399
-0.029358
0.00711264
-0.0293167
0.0136227
-0.0287292
0.0199927
-0.0276227
0.0261656
-0.0260498
0.0320913
-0.0240877
0.037721
-0.0218349
0.042996
-0.0194019
0.047838
-0.0168915
0.0521489
-0.0143713
0.0558289
-0.0118501
0.0588005
-0.00927751
0.0610219
-0.00657224
0.0624832
-0.00365604
0.0631954
-0.000471968
0.063177
0.0030138
0.0624457
0.0068222
0.0610354
0.0109699
0.0589757
0.0154431
0.0560362
0.0201691
0.0515146
0.0249464
0.044762
0.0290602
0.0358001
0.0313596
0.025503
0.0313995
0.0147543
0.0300803
0.00396523
0.0287609
-0.00681009
0.0283407
-0.0176128
0.029061
-0.0283209
0.0305116
-0.0383961
0.031632
-0.0468754
0.0310631
-0.0530466
0.0282263
-0.0571108
0.0238401
-0.0597961
0.0190457
-0.061707
0.0143832
-0.0629739
0.00999797
-0.0635532
0.00594777
-0.0634176
0.00223433
-0.0625491
-0.00116098
-0.0609295
-0.00426156
-0.0585507
-0.00710725
-0.0554287
-0.00976176
-0.0516128
-0.0123078
-0.0471871
-0.0148245
-0.0422531
-0.0173512
-0.0369045
-0.0198649
-0.0312139
-0.0222869
-0.0252354
-0.0245096
-0.0190164
-0.0264231
-0.0126075
-0.0279323
-0.00606718
-0.0289644
-0.0294711
0.0067969
-0.035713
0.0130152
-0.0350589
0.0191093
-0.0338264
0.0250236
-0.0320704
0.0307031
-0.0298681
0.0360891
-0.0273137
0.0411126
-0.0245077
0.0456899
-0.0215411
0.0497272
-0.0184756
0.053135
-0.0153289
0.0558453
-0.0120754
0.0578202
-0.00866322
0.0590488
-0.00503803
0.0595375
-0.00115723
0.0593036
0.00300542
0.0583742
0.00746228
0.0567909
0.0122166
0.0545957
0.0172595
0.0517972
0.0225577
0.0483149
0.0280267
0.0436864
0.0334118
0.0369628
0.0380404
0.0278518
0.0406819
0.0171406
0.0410224
0.00571179
0.0403347
-0.00590111
0.0399418
-0.0173032
0.0403
-0.027957
0.0409335
-0.0369782
0.0405056
-0.0436049
0.037772
-0.0481626
0.0330905
-0.0515971
0.0276854
-0.0543507
0.0222091
-0.0564983
0.0169077
-0.0580295
0.0118627
-0.0589017
0.00710619
-0.0590744
0.00264657
-0.0585216
-0.00151942
-0.0572272
-0.00540385
-0.055186
-0.00903252
-0.052411
-0.0124473
-0.0489424
-0.0157014
-0.0448503
-0.018844
-0.0402253
-0.021897
-0.0351612
-0.0248395
-0.0297413
-0.0276075
-0.0240348
-0.0301095
-0.018101
-0.0322461
-0.0119954
-0.0339251
-0.00577452
-0.0350719
0.000502662
-0.0356352
0.00677521
-0.0355893
0.0129824
-0.0349364
0.0190656
-0.0337058
0.0249686
-0.0319528
0.0306359
-0.029755
0.0360071
-0.0272062
0.0410113
-0.024406
0.045563
-0.0214432
0.0495679
-0.0183762
0.0529372
-0.0152194
0.055605
-0.0119453
0.0575354
-0.00850266
0.0587185
-0.0048392
0.0591617
-0.000915127
0.0588824
0.00329315
0.0579084
0.00779617
0.0562824
0.0125959
0.0540442
0.0176813
0.0511979
0.0230154
0.0476418
0.0285025
0.0428428
0.0338592
0.0358625
0.0383399
0.0265406
0.0407213
0.015729
0.0408918
0.00426759
0.0402224
-0.00734269
0.039951
-0.0187044
0.0404227
-0.0292431
0.0410503
-0.0380378
0.0404267
-0.0444127
0.0374381
-0.048817
0.0326305
-0.0521835
0.0272065
-0.0548899
0.0217521
-0.0569943
0.0164876
-0.0584818
0.0114854
-0.0593084
0.00677435
-0.0594347
0.00236062
-0.0588354
-0.00176026
-0.0574947
-0.00560229
-0.055408
-0.00919394
-0.0525899
-0.0125799
-0.0490825
-0.0158151
-0.0449579
-0.0189491
-0.0403074
-0.0220017
-0.035224
-0.0249483
-0.0297891
-0.0277218
-0.02407
-0.0302286
-0.0181247
-0.0323685
-0.0120078
-0.0340492
-0.00577555
-0.0351966
-0.0357597
0.00640991
-0.0416383
0.0122728
-0.0409218
0.018016
-0.0395696
0.0235823
-0.0376366
0.0289124
-0.0351983
0.0339423
-0.0323435
0.0385992
-0.0291646
0.0428018
-0.0257437
0.0464655
-0.0221394
0.0495137
-0.018377
0.0518885
-0.0144502
0.0535569
-0.0103316
0.0545074
-0.00598855
0.0547441
-0.0013939
0.054281
0.00346845
0.0531411
0.0086022
0.0513583
0.0139994
0.0489787
0.0196391
0.0460554
0.025481
0.0426202
0.0314619
0.0385649
0.0374671
0.0333991
0.0432063
0.0261702
0.0479108
0.0166474
0.0505452
0.00565112
0.051331
-0.005804
0.0513969
-0.0167621
0.0512582
-0.0262119
0.0503832
-0.0333565
0.0476503
-0.0384615
0.042877
-0.0424767
0.0371056
-0.0458755
0.0310842
-0.048759
0.0250927
-0.0510936
0.0192423
-0.0528264
0.0135955
-0.0539119
0.00819167
-0.0543169
0.00305161
-0.0540197
-0.00181668
-0.053007
-0.00641652
-0.0512762
-0.0107633
-0.0488403
-0.0148832
-0.0457345
-0.0188073
-0.0420181
-0.0225604
-0.037769
-0.0261461
-0.0330722
-0.0295363
-0.0280092
-0.0326706
-0.0226525
-0.0354662
-0.0170669
-0.0378317
-0.0113119
-0.03968
-0.00544544
-0.0409384
0.000474854
-0.0415555
0.00639076
-0.0415052
0.0122441
-0.0407897
0.0179773
-0.039439
0.0235324
-0.0375079
0.0288493
-0.0350719
0.0338624
-0.0322193
0.0384978
-0.0290414
0.042673
-0.0256184
0.0463033
-0.0220065
0.0493128
-0.0182289
0.0516455
-0.014278
0.0532698
-0.0101269
0.0541753
-0.00574472
0.0543666
-0.00110645
0.0538582
0.00380159
0.0526734
0.00898101
0.0508472
0.0144221
0.0484268
0.0201016
0.0454653
0.0259769
0.0419867
0.0319811
0.0378552
0.0379907
0.032516
0.043679
0.0250272
0.0482102
0.0152967
0.0506223
0.00420642
0.0513127
-0.0072411
0.0513985
-0.0180885
0.0512701
-0.0273148
0.0502766
-0.0342031
0.047315
-0.0391526
0.0423876
-0.0430985
0.0365764
-0.0464551
0.0305632
-0.0492997
0.0245966
-0.0515924
0.0187804
-0.0532809
0.0131739
-0.0543205
0.00781399
-0.0546793
0.00271936
-0.0543358
-0.00210377
-0.0532772
-0.00666086
-0.0515015
-0.0109697
-0.0490229
-0.0150585
-0.0458781
-0.0189599
-0.0421281
-0.0226991
-0.0378516
-0.0262782
-0.0331334
-0.0296666
-0.0280535
-0.0328016
-0.0226834
-0.0355987
-0.0170864
-0.0379655
-0.0113212
-0.0398144
-0.00544507
-0.0410728
-0.0416894
0.00596833
-0.0471541
0.0114215
-0.0463749
0.0167538
-0.0449018
0.021906
-0.0427888
0.0268168
-0.0401091
0.0314208
-0.0369475
0.0356473
-0.0333911
0.0394219
-0.0295183
0.042671
-0.0253884
0.0453297
-0.0210358
0.0473495
-0.01647
0.0487013
-0.0116834
0.0493739
-0.0066611
0.0493697
-0.00138969
0.0487013
0.00413683
0.04739
0.00991353
0.0454663
0.0159231
0.0429709
0.0221344
0.0399522
0.0284997
0.0364597
0.0349544
0.0325108
0.041416
0.0279589
0.0477582
0.0222297
0.05364
0.0145452
0.0582297
0.00504188
0.0608342
-0.00514468
0.0615834
-0.0146044
0.0607179
-0.0222229
0.0580017
-0.0278977
0.0533251
-0.0324156
0.0473949
-0.0363355
0.0410255
-0.039796
0.0345447
-0.0427776
0.0280743
-0.0452309
0.0216956
-0.047108
0.0154725
-0.0483686
0.00945232
-0.0489831
0.00366605
-0.0489309
-0.00186883
-0.0482005
-0.00714691
-0.0467906
-0.0121733
-0.0447137
-0.0169601
-0.0420006
-0.0215203
-0.0387014
-0.0258596
-0.0348818
-0.0299656
-0.0306162
-0.0338019
-0.0259792
-0.0373075
-0.021042
-0.0404034
-0.0158702
-0.0430035
-0.0105258
-0.0450244
-0.00506833
-0.0463959
0.00044332
-0.0470671
0.00595057
-0.0470124
0.0113948
-0.046234
0.0167172
-0.0447614
0.0218578
-0.0426486
0.0267545
-0.0399685
0.0313406
-0.0368055
0.0355447
-0.0332454
0.0392914
-0.0293652
0.0425074
-0.0252225
0.0451287
-0.0208502
0.0471079
-0.0162571
0.048417
-0.0114361
0.0490459
-0.0063736
0.0489976
-0.00105812
0.048285
0.00451414
0.04693
0.010336
0.0449639
0.0163882
0.0424283
0.0226373
0.0393719
0.0290333
0.0358431
0.03551
0.0318507
0.0419831
0.0272138
0.0483159
0.0212996
0.0541244
0.0133835
0.0585384
0.00373793
0.0609582
-0.00643659
0.061573
-0.0157336
0.0605672
-0.023118
0.0576609
-0.0286226
0.0528195
-0.0330642
0.0468292
-0.0369425
0.0404547
-0.0403664
0.033987
-0.0433094
0.0275397
-0.0457215
0.0211925
-0.0475553
0.0150076
-0.0487714
0.0090301
-0.0493408
0.0032888
-0.0492437
-0.00220088
-0.0484688
-0.00743573
-0.0470155
-0.012423
-0.0448974
-0.0171766
-0.0421464
-0.0217109
-0.0388139
-0.0260316
-0.0349665
-0.0301256
-0.0306784
-0.0339547
-0.0260236
-0.0374564
-0.021072
-0.0405503
-0.0158886
-0.0431489
-0.0105341
-0.0451688
-0.00506764
-0.0465393
-0.0472096
0.00547303
-0.0522103
0.0104654
-0.0513673
0.0153342
-0.0497707
0.0200194
-0.047474
0.0244592
-0.0445489
0.0285898
-0.0410782
0.0323455
-0.0371468
0.03566
-0.0328328
0.0384708
-0.0281992
0.0407242
-0.0232892
0.0423802
-0.018126
0.0434145
-0.0127178
0.0438177
-0.0070643
0.0435924
-0.00116437
0.0427507
0.00497851
0.0413131
0.0113511
0.0393081
0.0179281
0.0367724
0.0246701
0.0337495
0.0315226
0.0302864
0.0384176
0.0264247
0.0452776
0.0221631
0.0520198
0.017313
0.0584901
0.0113416
0.0642012
0.00398086
0.068195
-0.0040238
0.0695881
-0.0113503
0.0680444
-0.0172812
0.0639326
-0.0221036
0.0581475
-0.0263437
0.051635
-0.0301816
0.0448633
-0.0336161
0.0379793
-0.0366056
0.0310637
-0.0391031
0.0241931
-0.0410657
0.0174351
-0.0424571
0.0108438
-0.0432496
0.00445851
-0.0434234
-0.00169506
-0.0429672
-0.00760313
-0.0418793
-0.0132611
-0.0401705
-0.0186689
-0.0378664
-0.0238245
-0.0350081
-0.0287179
-0.0316504
-0.0333233
-0.0278566
-0.0375957
-0.0236935
-0.0414706
-0.0192274
-0.0448696
-0.0145226
-0.0477083
-0.00964124
-0.0499058
-0.00464429
-0.0513928
0.000408107
-0.0521195
0.00545602
-0.0520604
0.0104395
-0.0512174
0.0152983
-0.0496202
0.0199715
-0.0473218
0.0243965
-0.0443936
0.0285088
-0.0409178
0.0322419
-0.0369785
0.0355291
-0.0326525
0.0383082
-0.0280016
0.0405261
-0.023068
0.0421437
-0.0178748
0.0431379
-0.0124302
0.0434998
-0.00673552
0.0432327
-0.00079107
0.0423493
0.00539753
0.0408705
0.0118149
0.0388254
0.0184332
0.0362516
0.0252111
0.0331927
0.0320922
0.0296957
0.039007
0.0258005
0.0458782
0.0214946
0.0526219
0.0165525
0.0590665
0.0104224
0.0646685
0.00293157
0.068449
-0.00506089
0.0695655
-0.0122439
0.0677501
-0.0180212
0.0634383
-0.0227611
0.0575594
-0.0269595
0.0510276
-0.0307637
0.044259
-0.0341638
0.0373871
-0.0371164
0.0304923
-0.0395749
0.023651
-0.0414966
0.0169294
-0.042846
0.0103796
-0.043596
0.00403874
-0.0437272
-0.00206963
-0.043229
-0.00793399
-0.0421002
-0.0135518
-0.0403525
-0.0189243
-0.0380124
-0.024051
-0.0351221
-0.0289218
-0.0317371
-0.0335106
-0.0279207
-0.0377712
-0.0237392
-0.0416379
-0.0192582
-0.0450312
-0.0145413
-0.0478659
-0.00964984
-0.0500603
-0.00464396
-0.0515451
-0.0522703
0.0049283
-0.056761
0.00941426
-0.0558532
0.0137753
-0.0541318
0.0179514
-0.0516501
0.0218823
-0.0484798
0.0255077
-0.0447036
0.0287679
-0.040407
0.0316055
-0.0356704
0.0339682
-0.030562
0.0358128
-0.0251337
0.0371074
-0.0194207
0.0378336
-0.013444
0.0379852
-0.0072159
0.0375668
-0.000745933
0.0365917
0.00595362
0.0350809
0.0128619
0.0330626
0.0199464
0.030572
0.0271607
0.0276505
0.0344441
0.024345
0.0417231
0.0207069
0.0489158
0.0167875
0.0559391
0.0125981
0.0626796
0.00799172
0.0688076
0.0027774
0.0734093
-0.00276335
0.0751289
-0.00796302
0.0732441
-0.0125545
0.0685241
-0.0167325
0.0623256
-0.0206378
0.0555402
-0.0242569
0.0484824
-0.0275382
0.0412606
-0.0304306
0.0339562
-0.0328879
0.0266503
-0.0348687
0.019416
-0.0363386
0.0123137
-0.0372699
0.00538975
-0.0376421
-0.00132283
-0.0374427
-0.00780254
-0.036668
-0.0140359
-0.035325
-0.0200118
-0.0334336
-0.0257159
-0.0310264
-0.0311251
-0.0281478
-0.0362019
-0.024851
-0.0408926
-0.0211939
-0.0451276
-0.0172371
-0.0488264
-0.0130415
-0.0519039
-0.00866796
-0.0542793
-0.00417736
-0.0558834
0.000369506
-0.0566664
0.00491183
-0.0566027
0.00938878
-0.0556944
0.0137396
-0.053971
0.0179034
-0.0514856
0.0218194
-0.0483096
0.0254266
-0.044525
0.0286648
-0.0402167
0.0314765
-0.0354641
0.0338095
-0.0303346
0.0356211
-0.0248796
0.0368803
-0.019134
0.0375695
-0.0131194
0.0376832
-0.00684921
0.0372266
-0.000334416
0.0362134
0.00641067
0.0346653
0.013363
0.032611
0.0204876
0.0300861
0.027736
0.0271326
0.0350456
0.0237979
0.0423417
0.0201337
0.0495425
0.0161901
0.0565655
0.0119674
0.0632892
0.00729715
0.0693388
0.00201884
0.0737273
-0.00351512
0.0750994
-0.00864551
0.0728805
-0.0131768
0.0679696
-0.0173238
0.0617065
-0.0212045
0.0549082
-0.0247967
0.0478512
-0.028048
0.0406383
-0.0309077
0.033352
-0.0333298
0.0260731
-0.0352738
0.0188733
-0.0367056
0.0118113
-0.037598
0.00493119
-0.0379313
-0.00173636
-0.0376933
-0.00817202
-0.0368809
-0.0143641
-0.035502
-0.0203032
-0.0335772
-0.0259758
-0.03114
-0.031359
-0.0282353
-0.0364153
-0.0249163
-0.0410902
-0.0212409
-0.0453133
-0.0172691
-0.049003
-0.0130612
-0.0520738
-0.00867734
-0.0544442
-0.0041777
-0.0560448
-0.0568256
0.00433979
-0.0607655
0.0082799
-0.0597933
0.0120963
-0.0579481
0.0157303
-0.0552842
0.0191249
-0.0518743
0.0222243
-0.047803
0.0249758
-0.0431584
0.0273304
-0.038025
0.0292457
-0.0324773
0.0306878
-0.0265758
0.0316332
-0.020366
0.0320696
-0.0138803
0.0319954
-0.00714169
0.0314185
-0.000169094
0.0303552
0.00701697
0.0288286
0.0143885
0.0268687
0.0219063
0.0245119
0.0295175
0.0218015
0.0371545
0.0187886
0.044736
0.0155351
0.0521693
0.0121216
0.0593526
0.0086489
0.0661523
0.00519674
0.0722597
0.00175427
0.0768517
-0.00169794
0.0785811
-0.00514213
0.0766883
-0.00859653
0.0719785
-0.0120679
0.065797
-0.0154739
0.0589462
-0.0187138
0.0517223
-0.0217078
0.0442546
-0.0243946
0.036643
-0.0267235
0.0289793
-0.0286517
0.0213442
-0.0301432
0.0138052
-0.0311685
0.00641508
-0.0317049
-0.000786424
-0.0317369
-0.00777055
-0.0312573
-0.0145155
-0.0302685
-0.0210006
-0.0287837
-0.0272008
-0.0268273
-0.0330814
-0.0244344
-0.0385948
-0.0216482
-0.0436787
-0.0185184
-0.0482574
-0.0150988
-0.052246
-0.0114457
-0.0555571
-0.00761721
-0.0581078
-0.00367264
-0.059828
0.000327903
-0.0606669
0.00432393
-0.0605987
0.00825497
-0.0596254
0.012061
-0.057777
0.015683
-0.0551075
0.0190629
-0.0516895
0.0221448
-0.0476069
0.0248755
-0.0429473
0.027206
-0.0377946
0.0290941
-0.0322228
0.0305064
-0.0262919
0.0314199
-0.0200476
0.0318232
-0.0135227
0.0317153
-0.00674132
0.0311048
0.000276113
0.0300083
0.00750718
0.0284496
0.0149217
0.0264592
0.022478
0.0240741
0.0301211
0.0213382
0.0377815
0.0183037
0.0453762
0.0150339
0.0528122
0.0116121
0.0599873
0.00814029
0.066761
0.00469074
0.0727883
0.00124651
0.0771716
-0.002205
0.0785509
-0.00564714
0.0763226
-0.0091042
0.0714267
-0.0125749
0.0651772
-0.0159709
0.0583042
-0.0191932
0.0510735
-0.0221646
0.0436097
-0.024825
0.0360125
-0.0271248
0.0283729
-0.0290217
0.0207703
-0.0304804
0.0132699
-0.0314718
0.00592262
-0.0319738
-0.00123437
-0.0319714
-0.00817439
-0.0314581
-0.0148775
-0.0304369
-0.0213244
-0.0289218
-0.0274909
-0.0269379
-0.0333429
-0.0245206
-0.0388326
-0.0217134
-0.0438973
-0.018566
-0.0484607
-0.0151316
-0.0524374
-0.0114663
-0.0557392
-0.0076274
-0.058283
-0.00367372
-0.0599985
-0.0608346
0.00371315
-0.0641883
0.00707366
-0.0631538
0.0103148
-0.0611893
0.0133812
-0.0583505
0.0162197
-0.0547128
0.0187805
-0.0503638
0.0210179
-0.0453958
0.0228914
-0.0398986
0.0243676
-0.0339535
0.0254213
-0.0276295
0.0260369
-0.0209817
0.0262087
-0.0140521
0.0259403
-0.00687333
0.0252442
0.000527055
0.0241402
0.0081209
0.0226553
0.0158734
0.0208227
0.0237389
0.0186822
0.031658
0.0162812
0.0395555
0.0136771
0.04734
0.0109424
0.054904
0.00817458
0.0621205
0.00550907
0.0688178
0.00310086
0.0746679
0.00101073
0.0789419
-0.000928967
0.0805208
-0.00302892
0.0787882
-0.00544821
0.0743978
-0.00811935
0.0684681
-0.0108858
0.0617126
-0.0136128
0.0544493
-0.0162038
0.0468456
-0.0185871
0.0390263
-0.0207059
0.031098
-0.022513
0.0231513
-0.023969
0.0152612
-0.0250411
0.0074872
-0.025703
-0.000124597
-0.025935
-0.00753848
-0.0257256
-0.0147249
-0.0250717
-0.0216545
-0.0239799
-0.0282926
-0.0224666
-0.0345946
-0.020558
-0.0405035
-0.0182884
-0.0459483
-0.0156992
-0.0508466
-0.012837
-0.0551083
-0.00975253
-0.0586415
-0.00649984
-0.0613605
-0.00313517
-0.0631927
0.000283686
-0.0640858
0.00369816
-0.0640132
0.00704977
-0.062977
0.0102809
-0.0610081
0.0133355
-0.0581622
0.0161602
-0.0545142
0.0187047
-0.0501514
0.020923
-0.0451656
0.0227747
-0.0396464
0.0242266
-0.0336747
0.025254
-0.0273193
0.0258419
-0.0206354
0.0259851
-0.0136659
0.025688
-0.00644421
0.0249635
0.00100058
0.0238323
0.00863842
0.0223216
0.0164323
0.0204654
0.0243342
0.0183041
0.0322824
0.0158861
0.0401995
0.0132701
0.0479922
0.0105305
0.0555518
0.00776882
0.062749
0.00512517
0.0694046
0.00275252
0.075161
0.000691873
0.0792322
-0.00125033
0.0804931
-0.00338201
0.0784543
-0.00583533
0.07388
-0.00852553
0.0678674
-0.0112959
0.0610745
-0.0140165
0.0537942
-0.0165943
0.0461875
-0.0189596
0.0383778
-0.0210568
0.03047
-0.0228395
0.022553
-0.024269
0.0146994
-0.0253131
0.00696668
-0.0259459
-0.000601572
-0.0261485
-0.00797174
-0.0259099
-0.0151161
-0.0252277
-0.0220066
-0.0241091
-0.0286095
-0.0225712
-0.0348808
-0.0206405
-0.0407633
-0.0183516
-0.0461862
-0.0157458
-0.0510665
-0.0128696
-0.0553136
-0.00977334
-0.0588354
-0.00651053
-0.0615458
-0.00313689
-0.0633721
-0.0642618
0.00305345
-0.0669988
0.00580555
-0.0659059
0.00844621
-0.0638299
0.0109246
-0.0608289
0.0131931
-0.0569814
0.0152084
-0.0523791
0.016932
-0.0471194
0.0183317
-0.0412983
0.0193824
-0.0350042
0.0200671
-0.0283143
0.0203776
-0.0212922
0.0203145
-0.013989
0.0198871
-0.00644592
0.0191126
0.00130163
0.0180152
0.00921827
0.0166259
0.0172627
0.0149817
0.0253831
0.0131265
0.0335133
0.0111119
0.0415701
0.00900046
0.0494515
0.00687008
0.0570344
0.00482283
0.0641677
0.00299374
0.0706469
0.00153071
0.0761309
0.000478462
0.0799941
-0.000383853
0.0813831
-0.00144814
0.0798525
-0.00292581
0.0758754
-0.00476504
0.0703073
-0.00681614
0.0637637
-0.00894453
0.0565777
-0.011049
0.04895
-0.013052
0.0410294
-0.0148918
0.0329378
-0.0165169
0.0247764
-0.0178838
0.0166281
-0.0189559
0.00855924
-0.0197025
0.000622055
-0.0200999
-0.00714116
-0.0201312
-0.0146936
-0.0197879
-0.0219978
-0.0190701
-0.0290104
-0.0179868
-0.035678
-0.0165558
-0.0419344
-0.0148032
-0.047701
-0.0127621
-0.0528878
-0.0104717
-0.0573986
-0.00797666
-0.0611366
-0.00532532
-0.0640118
-0.00256943
-0.0659485
0.000237206
-0.0668924
0.00303974
-0.0668157
0.00578342
-0.0657207
0.00841466
-0.0636394
0.0108822
-0.0606297
0.0131381
-0.0567701
0.0151386
-0.0521519
0.0168453
-0.0468723
0.0182259
-0.041027
0.0192557
-0.0347044
0.019918
-0.0279816
0.0202052
-0.0209226
0.0201185
-0.0135792
0.0196679
-0.00599354
0.018871
0.00179748
0.0177528
0.00975656
0.0163449
0.0178402
0.0146849
0.0259942
0.0128174
0.0341499
0.0107951
0.0422218
0.00868178
0.0501055
0.00655776
0.0576758
0.00452852
0.0647783
0.00273313
0.0712
0.00131681
0.0765773
0.000301901
0.0802471
-0.000563735
0.0813588
-0.00166864
0.0795592
-0.00319175
0.0754031
-0.00506201
0.0697376
-0.00712889
0.0631414
-0.00926198
0.0559273
-0.0113633
0.0482888
-0.0133576
0.0403721
-0.0151841
0.0322966
-0.0167925
0.0241614
-0.0181401
0.016047
-0.0191906
0.0080172
-0.0199142
0.000122052
-0.0202876
-0.00759835
-0.0202948
-0.0151089
-0.0199277
-0.0223737
-0.019187
-0.0293502
-0.0180824
-0.0359854
-0.016632
-0.0422137
-0.0148621
-0.0479561
-0.012806
-0.0531226
-0.0105029
-0.0576167
-0.00799682
-0.0613415
-0.00533597
-0.0642067
-0.0025716
-0.0661365
-0.0670764
0.00236505
-0.0691703
0.004484
-0.0680249
0.00650303
-0.065849
0.00837739
-0.0627033
0.0100661
-0.0586701
0.0115328
-0.0538458
0.0127467
-0.0483333
0.0136836
-0.0422351
0.014326
-0.0356467
0.0146645
-0.0286528
0.0146975
-0.0213252
0.0144318
-0.0137232
0.0138817
-0.00589582
0.0130691
0.00211426
0.0120224
0.0102649
0.0107764
0.0185087
0.00937141
0.0267881
0.00785429
0.0350304
0.00627928
0.0431451
0.00471023
0.0510205
0.00322415
0.0585204
0.00191586
0.065476
0.000899518
0.0716632
0.000282938
0.0767475
6.86807e-05
0.0802084
3.1099e-05
0.0814207
-0.000194767
0.0800784
-0.000826782
0.0765075
-0.00185596
0.0713365
-0.00317229
0.0650801
-0.00466152
0.058067
-0.00622923
0.0505177
-0.00779882
0.042599
-0.0093068
0.0344458
-0.0106992
0.0261688
-0.0119295
0.0178584
-0.0129575
0.00958721
-0.0137488
0.00141337
-0.0142753
-0.00661469
-0.0145155
-0.0144533
-0.0144557
-0.0220576
-0.0140896
-0.0293764
-0.0134196
-0.036348
-0.012456
-0.0428981
-0.0112168
-0.0489401
-0.00972738
-0.0543772
-0.00801942
-0.0591065
-0.00613018
-0.0630258
-0.00410159
-0.0660404
-0.00197924
-0.0680709
0.000188759
-0.0690604
0.00235306
-0.06898
0.00446444
-0.0678321
0.00647508
-0.06565
0.00833985
-0.0624945
0.0100175
-0.0584477
0.0114714
-0.0536058
0.012671
-0.0480718
0.0135918
-0.0419479
0.014217
-0.0353296
0.0145373
-0.028302
0.0145519
-0.0209372
0.0142678
-0.0132952
0.0137003
-0.00542601
0.0128717
0.00262606
0.0118112
0.010817
0.010554
0.0190974
0.00914128
0.027407
0.00762051
0.0356707
0.00604691
0.0437954
0.00448561
0.0516668
0.00301544
0.059146
0.00173364
0.0660601
0.000756306
0.0721774
0.000186771
0.0771468
7.37483e-06
0.0804265
-3.33083e-05
0.0813995
-0.000297524
0.0798234
-0.000976142
0.0760817
-0.00204237
0.0708039
-0.00338329
0.0644823
-0.00488688
0.0574308
-0.00646108
0.049863
-0.00803101
0.041942
-0.0095344
0.0338
-0.0109182
0.0255452
-0.0121365
0.0172653
-0.0131499
0.00903057
-0.0139246
0.000896716
-0.014433
-0.00708995
-0.0146544
-0.0148875
-0.0145754
-0.0224526
-0.0141908
-0.0297348
-0.0135031
-0.0366731
-0.0125231
-0.0431937
-0.0112692
-0.0492099
-0.00976686
-0.054625
-0.00804765
-0.059336
-0.00614868
-0.0632405
-0.00411158
-0.0662438
-0.00198159
-0.0682665
-0.0692516
0.00165162
-0.0706795
0.00311609
-0.0694894
0.00449568
-0.0672286
0.00575311
-0.0639607
0.00685503
-0.059772
0.00777291
-0.0547636
0.00848379
-0.0490442
0.0089709
-0.0427222
0.00922423
-0.0359
0.00924091
-0.0286694
0.00902544
-0.0211097
0.0085897
-0.0132875
0.00795269
-0.00525882
0.00714016
0.00292679
0.006184
0.0112211
0.00512155
0.0195712
0.00399539
0.0279142
0.00285352
0.0361723
0.00174997
0.0442486
0.000745975
0.0520245
-8.84508e-05
0.0593549
-0.000673632
0.0660612
-0.000924988
0.0719146
-0.00078063
0.0766032
-0.000276416
0.0797042
0.000377327
0.0807669
0.000871131
0.0795846
0.00100044
0.0763782
0.000734721
0.0716022
0.000138268
0.0656765
-0.000703723
0.058909
-0.00171158
0.0515256
-0.00281547
0.0437029
-0.00395434
0.0355846
-0.00507435
0.0272888
-0.00612768
0.0189118
-0.00707191
0.0105314
-0.00786988
0.00221135
-0.00848999
-0.00599458
-0.00890685
-0.0140364
-0.00910187
-0.0218626
-0.00906369
-0.0294146
-0.00878842
-0.0366232
-0.00827961
-0.0434069
-0.00754803
-0.0496717
-0.00661125
-0.055314
-0.00549312
-0.0602247
-0.00422305
-0.0642959
-0.00283525