/*--------------------------------*- C++ -*----------------------------------*\
| =========                 |                                                 |
| \\      /  F ield         | OpenFOAM: The Open Source CFD Toolbox           |
|  \\    /   O peration     | Version:  2.3.0                                 |
|   \\  /    A nd           | Web:      www.OpenFOAM.org                      |
|    \\/     M anipulation  |                                                 |
\*---------------------------------------------------------------------------*/
FoamFile
{
    version     2.0;
    format      ascii;
    class       volScalarField;
    location    "20000";
    object      T;
}
// * * * * * * * * * * * * * * * * * * * * * * * * * * * * * * * * * * * * * //

dimensions      [0 0 0 1 0 0 0];

internalField   nonuniform List<scalar> 
3060
(
34.1826
34.1939
34.2145
34.2441
34.2822
34.3283
34.382
34.443
34.5112
34.5865
34.6691
34.759
34.8559
34.9576
35.0619
35.1689
35.2784
35.3894
35.5002
35.608
35.7098
35.8017
35.8798
35.9395
35.9767
35.9878
35.9712
35.929
35.8651
35.7838
35.6895
35.5862
35.4774
35.3663
35.2554
35.1462
35.0397
34.9356
34.8344
34.7388
34.6504
34.5693
34.4956
34.429
34.3696
34.3178
34.2736
34.2377
34.2104
34.1922
34.1836
34.185
34.1963
34.2171
34.2468
34.285
34.3313
34.3853
34.4466
34.5152
34.591
34.674
34.7645
34.8619
34.964
35.0686
35.176
35.2858
35.397
35.5077
35.6153
35.7166
35.8077
35.8847
35.943
35.9784
35.9875
35.969
35.9251
35.8599
35.7776
35.6825
35.5788
35.4698
35.3588
35.248
35.1392
35.033
34.9293
34.8285
34.7335
34.6456
34.565
34.4916
34.4254
34.3664
34.3148
34.2709
34.2351
34.2079
34.1898
34.1812
29.6832
29.7147
29.7724
29.855
29.9613
30.0903
30.2412
30.4133
30.6066
30.8212
31.0574
31.3156
31.596
31.8976
32.211
32.5319
32.8605
33.1937
33.5256
33.8485
34.1531
34.4289
34.6637
34.8444
34.9574
34.9913
34.9405
34.8125
34.6196
34.3752
34.0925
33.7831
33.4574
33.1244
32.7915
32.464
32.1444
31.8315
31.5338
31.2578
31.0041
30.7725
30.5626
30.3741
30.2069
30.0613
29.9378
29.8375
29.7613
29.7105
29.6864
29.6903
29.7219
29.7798
29.8628
29.9696
30.0993
30.2509
30.424
30.6183
30.8342
31.0718
31.3316
31.6136
31.9169
32.2312
32.5532
32.8826
33.2163
33.5482
33.8704
34.1735
34.447
34.6785
34.8548
34.9626
34.9904
34.9338
34.8008
34.6038
34.3564
34.0715
33.7609
33.4347
33.1017
32.7694
32.4429
32.1244
31.8125
31.5165
31.2422
30.99
30.7598
30.5511
30.3637
30.1974
30.0525
29.9296
29.8297
29.7539
29.7033
29.6793
25.4938
25.5431
25.6333
25.7627
25.9294
26.1318
26.3689
26.64
26.9447
27.2832
27.6559
28.0632
28.5052
28.9809
29.4874
30.0108
30.5493
31.0965
31.642
32.1725
32.6732
33.1272
33.5152
33.8151
34.0041
34.0611
33.9756
33.7621
33.4422
33.0388
32.5735
32.065
31.5299
30.9827
30.4361
29.8999
29.3799
28.8773
28.4076
27.9724
27.5722
27.2068
26.8757
26.5787
26.3155
26.0867
25.8931
25.7358
25.6165
25.537
25.4993
25.5055
25.5549
25.6456
25.7755
25.943
26.1464
26.3848
26.6573
26.9637
27.3042
27.6791
28.0888
28.5334
29.0117
29.5203
30.0457
30.5857
31.1338
31.6792
32.2085
32.7068
33.1571
33.5397
33.8326
34.0127
34.0596
33.9644
33.7426
33.416
33.0077
32.539
32.0285
31.4925
30.9454
30.3998
29.8652
29.3472
28.847
28.3799
27.9473
27.5495
27.1863
26.8571
26.5617
26.3
26.0724
25.8796
25.7231
25.6044
25.5252
25.4877
21.7637
21.8284
21.9468
22.1164
22.335
22.6006
22.9117
23.2672
23.6667
24.1101
24.5978
25.1303
25.708
26.3302
26.9948
27.692
28.4165
29.1579
29.9
30.6234
31.3067
31.9267
32.4577
32.8699
33.1308
33.21
33.0915
32.7969
32.3577
31.806
31.1707
30.4769
29.7475
29.0033
28.2636
27.5433
26.8517
26.1946
25.5808
25.0122
24.4889
24.0107
23.577
23.1875
22.8424
22.5422
22.2881
22.0818
21.9254
21.8211
21.7716
21.7797
21.8446
21.9635
22.1339
22.3536
22.6205
22.9332
23.2906
23.6923
24.1382
24.6288
25.1645
25.7455
26.3711
27.039
27.7391
28.466
29.2087
29.9509
30.6727
31.3527
31.9676
32.4914
32.8939
33.1428
33.2079
33.0759
32.7699
32.3218
31.7634
31.1235
30.4269
29.6963
28.9525
28.2143
27.4965
26.8074
26.1542
25.544
24.9788
24.4586
23.9831
23.5519
23.1646
22.8213
22.5226
22.2698
22.0645
21.9088
21.805
21.7557
18.5852
18.6629
18.8051
19.0088
19.2711
19.5894
19.9616
20.3862
20.8625
21.3902
21.9698
22.602
23.2874
24.026
24.816
25.6534
26.5301
27.433
28.3425
29.2341
30.079
30.8464
31.5039
32.0152
32.3399
32.4388
32.291
31.9247
31.3801
30.6971
29.9109
29.0534
28.1552
27.2444
26.3448
25.4746
24.6459
23.8653
23.1371
22.4624
21.8413
21.2728
20.7564
20.2918
19.8793
19.52
19.2155
18.968
18.7801
18.6548
18.5952
18.6049
18.683
18.8258
19.0305
19.294
19.6138
19.988
20.4149
20.8938
21.4245
22.0075
22.6433
23.3327
24.0755
24.8697
25.7108
26.5907
27.4955
28.4053
29.2953
30.1362
30.8972
31.5457
32.0452
32.355
32.4362
32.2715
31.8911
31.3355
30.6442
29.8523
28.9915
28.0922
27.1822
26.2849
25.418
24.5933
23.8168
23.0927
22.422
21.8044
21.2392
20.7257
20.2637
19.8534
19.4959
19.1929
18.9465
18.7595
18.6348
18.5755
15.9846
16.0735
16.2363
16.4689
16.7679
17.1297
17.5517
18.0317
18.5683
19.1611
19.8106
20.5178
21.2839
22.11
22.995
23.9393
24.9332
25.9615
27.0028
28.0291
29.0064
29.8967
30.6595
31.2522
31.6286
31.7433
31.5719
31.1474
30.516
29.7235
28.8118
27.8208
26.7881
25.7466
24.7229
23.7375
22.8042
21.9305
21.1165
20.3624
19.6673
19.03
18.4495
17.9257
17.4591
17.0515
16.705
16.4227
16.208
16.0646
15.9964
16.0076
16.0969
16.2603
16.494
16.7944
17.158
17.5822
18.0646
18.6041
19.2003
19.8535
20.5648
21.3354
22.1662
23.0561
24.0049
25.0025
26.0334
27.0753
28.1
29.0729
29.9558
30.7081
31.287
31.6461
31.7403
31.5493
31.1083
30.4641
29.662
28.7437
27.7492
26.7156
25.6753
24.6546
23.6733
22.7453
21.8757
21.0662
20.3164
19.6253
18.9916
18.4143
17.8933
17.4292
17.0236
16.6788
16.3978
16.1841
16.0414
15.9735
13.9313
14.0304
14.2116
14.4701
14.8013
15.2007
15.6643
16.1891
16.773
17.4153
18.1162
18.8772
19.7005
20.5881
21.5409
22.5613
23.639
24.7578
25.8951
27.0204
28.0964
29.0797
29.9231
30.577
30.991
31.1167
30.9287
30.4616
29.7647
28.8884
27.8819
26.7918
25.6605
24.5239
23.4109
22.343
21.3348
20.3955
19.5211
18.7107
17.9622
17.2738
16.6443
16.0736
15.5629
15.1145
14.7317
14.4187
14.18
14.0203
13.9443
13.9567
14.0562
14.2382
14.4979
14.8306
15.2319
15.6978
16.2253
16.8123
17.4581
18.1629
18.9284
19.7566
20.6494
21.6076
22.633
23.7149
24.8366
25.9748
27.0986
28.17
29.1453
29.9769
30.6155
31.0102
31.1134
30.9038
30.4185
29.7072
28.8203
27.8067
26.7129
25.5807
24.4457
23.3361
22.2728
21.2699
20.3358
19.4664
18.6606
17.9164
17.2319
16.6057
16.038
15.5299
15.0837
14.7027
14.3912
14.1535
13.9946
13.919
12.3555
12.4647
12.6641
12.9478
13.3098
13.7441
14.2452
14.8088
15.4317
16.1125
16.8514
17.6501
18.5117
19.4395
20.4367
21.5061
22.6374
23.8147
25.0143
26.2045
27.3456
28.3907
29.2875
29.9813
30.4184
30.5503
30.3529
29.8592
29.1192
28.1874
27.1182
25.9627
24.7668
23.5686
22.3981
21.2773
20.2211
19.2385
18.3244
17.4758
16.6895
15.9629
15.2945
14.6847
14.1353
13.6499
13.2331
12.8906
12.6284
12.4526
12.3689
12.3826
12.4922
12.6925
12.9774
13.341
13.7773
14.2808
14.8472
15.4733
16.1578
16.9008
17.7041
18.5707
19.504
20.507
21.5817
22.7177
23.8981
25.0989
26.2876
27.424
28.4606
29.3448
30.0221
30.4387
30.5469
30.3266
29.8134
29.0579
28.1147
27.0381
25.8789
24.6823
23.4858
22.319
21.2031
20.1523
19.1754
18.2667
17.423
16.6411
15.9185
15.2536
14.6469
14.1002
13.6171
13.2022
12.8613
12.6002
12.4252
12.3419
11.1688
11.2888
11.5076
11.8181
12.2123
12.6824
13.2209
13.8216
14.48
15.1936
15.9621
16.7876
17.6738
18.6255
19.648
20.7436
21.9029
23.1102
24.3422
25.5663
26.7415
27.8184
28.742
29.4547
29.9012
30.035
29.8345
29.3295
28.5689
27.609
26.5073
25.3177
24.0881
22.858
21.6579
20.5096
19.4274
18.4197
17.4814
16.6076
15.7938
15.0366
14.3346
13.6887
13.1019
12.5793
12.1275
11.754
11.4668
11.2738
11.1819
11.1969
11.3173
11.5371
11.8488
12.2448
12.7169
13.2578
13.8614
14.523
15.2403
16.013
16.8431
17.7344
18.6918
19.7202
20.8214
21.9854
23.1961
24.4294
25.6521
26.8224
27.8905
28.8011
29.4965
29.9219
30.0315
29.8077
29.2824
28.5057
27.534
26.4246
25.2312
24.0009
22.7727
21.5764
20.4332
19.3566
18.3548
17.4221
16.5533
15.7439
14.9907
14.2923
13.6495
13.0655
12.5452
12.0954
11.7235
11.4376
11.2454
11.1539
10.2807
10.4128
10.6535
10.9939
11.424
11.9335
12.5123
13.1521
13.8465
14.5914
15.3861
16.2323
17.1344
18.0985
19.1316
20.2351
21.401
22.6146
23.853
25.0839
26.2656
27.3478
28.2743
28.9869
29.431
29.563
29.3648
28.8619
28.1009
27.1375
26.0302
24.834
23.5977
22.3611
21.1548
19.9997
18.9092
17.8902
16.9386
16.0477
15.2117
14.4269
13.6922
13.0094
12.383
11.82
11.3294
10.9214
10.6063
10.3939
10.2927
10.3092
10.4418
10.6834
11.0252
11.4571
11.9686
12.55
13.1926
13.8902
14.6388
15.4375
16.2883
17.1955
18.1652
19.2042
20.3134
21.484
22.701
23.9408
25.1703
26.347
27.4203
28.3335
29.0286
29.4514
29.5596
29.3381
28.815
28.0375
27.0621
25.9469
24.7468
23.5099
22.2753
21.0728
19.9228
18.8379
17.8248
16.8787
15.9928
15.1612
14.3804
13.6492
12.9695
12.3458
11.7852
11.2967
10.8904
10.5766
10.3651
10.2643
9.60962
9.75554
10.0211
10.3957
10.8666
11.4206
12.0449
12.7282
13.4618
14.24
15.0608
15.9256
16.839
17.808
18.8409
19.9384
21.094
22.2945
23.518
24.733
25.898
26.963
27.8725
28.5692
29.0011
29.1287
28.9369
28.4472
27.7024
26.7562
25.6659
24.4863
23.2658
22.0439
20.8502
19.7046
18.619
17.5986
16.6405
15.7364
14.8798
14.067
13.2974
12.5739
11.9032
11.2947
10.7603
10.313
9.966
9.73159
9.61986
9.63802
9.78447
10.0511
10.427
10.8997
11.4559
12.0827
12.7688
13.5056
14.2873
15.1121
15.9813
16.8997
17.8741
18.9129
20.0158
21.1761
22.3799
23.6047
24.8181
25.9781
27.0342
27.9305
28.6098
29.0209
29.1255
28.911
28.4014
27.6403
26.6821
25.5839
24.4003
23.1791
21.9591
20.7691
19.6284
18.5483
17.5337
16.5809
15.6816
14.8294
14.0204
13.2542
12.5339
11.8659
11.2598
10.7275
10.2819
9.93628
9.70279
9.5915
9.08798
9.24938
9.54301
9.95603
10.473
11.0774
11.753
12.4855
13.2632
14.0785
14.9279
15.8119
16.7352
17.7051
18.7305
19.8118
20.9444
22.1168
23.3085
24.4892
25.6188
26.6488
27.5254
28.1941
28.6066
28.7279
28.5454
28.0772
27.3616
26.4489
25.3939
24.2495
23.0629
21.8721
20.7054
19.5814
18.5102
17.4951
16.5339
15.6176
14.7394
13.8957
13.087
12.3178
11.5971
10.9372
10.3532
9.86155
9.47867
9.21949
9.09594
9.116
9.27795
9.57262
9.98711
10.5059
11.1125
11.7907
12.5259
13.3067
14.1255
14.9786
15.8669
16.7948
17.77
18.8008
19.8872
21.0243
22.1998
23.3926
24.5717
25.6963
26.7174
27.581
28.2329
28.6254
28.7248
28.5207
28.0333
27.3019
26.3773
25.3145
24.1662
22.9787
21.7896
20.6265
19.5071
18.4411
17.4315
16.4753
15.5636
14.6895
13.8495
13.0441
12.2779
11.5599
10.9025
10.3206
9.83074
9.44927
9.19104
9.06797
8.66335
8.84173
9.16618
9.62159
10.1894
10.8496
11.5822
12.3694
13.1966
14.0537
14.9354
15.841
16.7748
17.7443
18.7573
19.8156
20.9163
22.0497
23.1969
24.3294
25.4093
26.3906
27.2226
27.8547
28.2427
28.3563
28.1851
27.7442
27.0672
26.2002
25.1943
24.0995
22.9604
21.813
20.6839
19.5899
18.5392
17.5335
16.5703
15.6407
14.7381
13.8595
13.0068
12.1865
11.4102
10.6933
10.0545
9.5139
9.09151
8.8051
8.66863
8.69075
8.8697
9.19522
9.65215
10.2219
10.8843
11.6194
12.4093
13.2395
14.0999
14.9851
15.8947
16.8329
17.8072
18.8252
19.8882
20.993
22.1292
23.2773
24.4081
25.483
26.4556
27.2751
27.8911
28.2603
28.3534
28.1621
27.7029
27.0108
26.1323
25.1188
24.02
22.8799
21.7339
20.608
19.5183
18.4724
17.4716
16.5131
15.5878
14.6891
13.814
12.9644
12.1471
11.3734
10.659
10.0223
9.4836
9.06266
8.77725
8.64128
8.29687
8.49334
8.85069
9.35143
9.97374
10.6938
11.4878
12.3345
13.2159
14.1194
15.0374
15.9679
16.9141
17.883
18.8814
19.9128
20.9761
22.0634
23.1573
24.2317
25.2515
26.1744
26.9537
27.5434
27.9039
28.0091
27.8503
27.4403
26.808
25.9952
25.0483
24.0134
22.9316
21.8361
20.7513
19.6925
18.6659
17.6715
16.7056
15.7605
14.8301
13.9124
13.0111
12.135
11.2983
10.5201
9.82244
9.2295
8.76485
8.4494
8.29917
8.32348
8.52054
8.87901
9.38132
10.0056
10.7279
11.5244
12.3737
13.258
14.1646
15.0859
16.0201
16.9702
17.9435
18.9464
19.982
21.0489
22.1386
23.2331
24.3056
25.3205
26.235
27.0026
27.5771
27.9201
28.0064
27.829
27.402
26.7555
25.9318
24.9776
23.9386
22.8556
21.7612
20.6792
19.6241
18.6018
17.6117
16.6502
15.709
14.7821
13.8678
12.9694
12.0962
11.2622
10.4863
9.7909
9.19986
8.73672
8.42232
8.2726
7.96068
8.17589
8.56733
9.115
9.79375
10.5759
11.4341
12.343
13.2819
14.2353
15.1934
16.1519
17.1129
18.0822
19.0659
20.0689
21.0919
22.1297
23.1649
24.1743
25.127
25.9848
26.7063
27.2507
27.5831
27.68
27.5336
27.1553
26.5713
25.818
24.9369
23.969
22.951
21.9123
20.8751
19.8539
18.8528
17.8699
16.8998
15.9365
14.9749
14.0144
13.0611
12.126
11.2262
10.384
9.62539
8.97823
8.46983
8.12429
7.9598
7.98638
8.2022
8.5948
9.14409
9.82483
10.6093
11.4699
12.3815
13.3232
14.2794
15.2405
16.2024
17.1669
18.14
19.1275
20.1342
21.1603
22.2002
23.2354
24.2428
25.1906
26.0405
26.7511
27.2815
27.5979
27.6776
27.5141
27.1203
26.5231
25.7597
24.8715
23.8996
22.8802
21.842
20.8072
19.7894
18.7919
17.8128
16.8465
15.8867
14.9282
13.9708
13.0202
12.0879
11.1907
10.351
9.59459
8.94937
8.44254
8.09808
7.93414
7.63522
7.86935
8.29503
8.88964
9.62471
10.469
11.3913
12.3631
13.3605
14.3655
15.3665
16.3558
17.3339
18.3053
19.2754
20.2502
21.2318
22.2157
23.189
24.1312
25.0149
25.8065
26.4697
26.9688
27.2733
27.362
27.2277
26.8811
26.3453
25.6523
24.8382
23.9391
22.9873
22.009
21.023
20.0404
19.0642
18.0914
17.1154
16.1315
15.1361
14.13
13.1231
12.1281
11.1649
10.2587
9.43925
8.73795
8.18575
7.80994
7.63103
7.65991
7.89469
8.32156
8.91784
9.65495
10.5015
11.4263
12.4007
13.4007
14.4086
15.4122
16.4044
17.3855
18.3601
19.3334
20.3113
21.2953
22.2808
23.2539
24.1939
25.073
25.8573
26.5104
26.9968
27.2867
27.3598
27.2101
26.8493
26.3015
25.5991
24.7784
23.8754
22.922
21.944
20.9598
19.9799
19.0068
18.0371
17.0643
16.0833
15.0906
14.0874
13.0832
12.0909
11.1302
10.2265
9.40928
8.70997
8.15939
7.78471
7.60638
7.30681
7.55968
8.01868
8.65848
9.4474
10.3508
11.3344
12.3666
13.4206
14.4756
15.5174
16.5376
17.5342
18.5094
19.4682
20.4175
21.36
22.2929
23.2061
24.0826
24.8987
25.6256
26.2319
26.687
26.9643
27.0452
26.9227
26.6067
26.1177
25.4834
24.7349
23.9032
23.0161
22.096
21.1585
20.212
19.2582
18.2931
17.3097
16.3041
15.275
14.226
13.1671
12.1143
11.0902
10.1231
9.24549
8.49235
7.89788
7.49248
7.2992
7.33042
7.58396
8.04419
8.6857
9.47669
10.3825
11.3685
12.4032
13.4597
14.5173
15.5616
16.5843
17.5835
18.5612
19.5226
20.4742
21.4187
22.3525
23.2653
24.1395
24.9512
25.6713
26.2685
26.7122
26.9764
27.0432
26.9068
26.5781
26.0783
25.4354
24.6808
23.8453
22.9565
22.0363
21.1
20.1556
19.2042
18.2417
17.2609
16.2577
15.2311
14.1846
13.1282
12.078
11.0564
10.0917
9.21642
8.46533
7.87254
7.46831
7.27563
6.96505
7.23544
7.72489
8.40533
9.24222
10.1982
11.2364
12.3227
13.4282
14.5298
15.6112
16.6621
17.6782
18.6591
19.61
20.5377
21.4457
22.3325
23.1903
24.0053
24.7578
25.4237
25.9765
26.3901
26.6418
26.7152
26.6037
26.3167
25.8718
25.2929
24.6061
23.8376
23.0109
22.1443
21.2504
20.3356
19.4001
18.4397
17.4471
16.4192
15.3571
14.2667
13.1597
12.0546
10.976
9.95461
9.02546
8.22604
7.59342
7.16084
6.95402
6.98749
7.25856
7.74926
8.43144
9.27044
10.2288
11.2694
12.3582
13.4661
14.5702
15.6538
16.7069
17.725
18.7079
19.6608
20.5903
21.4996
22.3869
23.2439
24.0566
24.805
25.4646
26.0091
26.4125
26.6526
26.7134
26.5895
26.2911
25.8366
25.2499
24.5574
23.7853
22.9567
22.0897
21.1966
20.2832
19.3496
18.3911
17.4005
16.3747
15.3147
14.2265
13.122
12.0193
10.9432
9.92426
8.99744
8.20012
7.5692
7.13783
6.93162
6.60175
6.88697
7.40176
8.11563
8.99175
9.9907
11.0737
12.2052
13.3545
14.4969
15.614
16.6937
17.7292
18.7178
19.6644
20.5755
21.4548
22.3017
23.1107
23.8708
24.5659
25.1764
25.6804
26.0561
26.2843
26.3508
26.2496
25.9889
25.5844
25.0557
24.4249
23.7135
22.9405
22.1208
21.2642
20.3753
19.4535
18.4945
17.4914
16.4417
15.349
14.2215
13.0729
11.9235
10.7997
9.73382
8.76254
7.92526
7.26116
6.80586
6.58752
6.62292
6.90882
7.42489
8.14053
9.01877
10.0201
11.1055
12.2395
13.3911
14.5357
15.6549
16.7365
17.7737
18.7637
19.7118
20.6241
21.5042
22.3512
23.1592
23.9169
24.6081
25.2128
25.7093
26.076
26.2939
26.3492
26.2369
25.9663
25.5531
25.0174
24.3814
23.6664
22.8914
22.071
21.2147
20.3267
19.4062
18.4486
17.447
16.399
15.3082
14.1827
13.0364
11.8894
10.7681
9.70464
8.73571
7.90053
7.23817
6.7841
6.56638
6.21106
6.50717
7.04017
7.77767
8.68126
9.71033
10.8252
11.9894
13.1715
14.3454
15.4915
16.5956
17.6487
18.6456
19.5909
20.4904
21.3473
22.1618
22.9298
23.6429
24.2883
24.8505
25.3115
25.6537
25.8612
25.9216
25.8293
25.5921
25.223
24.7385
24.1565
23.4942
22.7669
21.9864
21.16
20.291
19.3783
18.4182
17.4045
16.3355
15.2172
14.06
12.8795
11.6973
10.541
9.44363
8.44285
7.57901
6.8926
6.42089
6.19402
6.23088
6.52767
7.06196
7.80121
8.70692
9.73834
10.8556
12.0223
13.2067
14.3828
15.5308
16.6365
17.6909
18.6889
19.6352
20.5354
21.3927
22.2068
22.9736
23.6842
24.3259
24.8828
25.3371
25.6713
25.8697
25.9202
25.8182
25.5721
25.1953
24.7045
24.1176
23.4519
22.7226
21.941
21.1145
20.2458
19.334
18.3748
17.3623
16.2946
15.178
14.0227
12.8444
11.6646
10.5107
9.41577
8.41735
7.55562
6.87095
6.40047
6.17423
5.78885
6.09078
6.63294
7.38169
8.29798
9.34095
10.471
11.6517
12.8515
14.044
15.2084
16.3292
17.3951
18.3989
19.3444
20.236
21.0762
21.8654
22.6004
23.275
23.8792
24.4007
24.8255
25.1393
25.329
25.3841
25.2995
25.0822
24.7432
24.2959
23.7547
23.1331
22.4432
21.6939
20.8909
20.0364
19.1297
18.1676
17.1457
16.0628
14.9274
13.7518
12.553
11.3535
10.181
9.06883
8.05449
7.17832
6.48114
6.00105
5.76955
5.80723
6.10984
6.65325
7.40375
8.32214
9.36744
10.4999
11.683
12.8851
14.0797
15.2459
16.3681
17.4352
18.4397
19.3858
20.2777
21.1179
21.9064
22.64
23.312
23.9127
24.4294
24.8481
25.1548
25.3365
25.3828
25.2897
25.0645
24.7186
24.2657
23.7199
23.0951
22.403
21.6524
20.8489
19.9945
19.0881
18.1267
17.1055
16.0237
14.8899
13.7161
12.5195
11.3222
10.1522
9.04247
8.03047
7.1564
6.46094
5.98208
5.7512
5.33227
5.63391
6.17435
6.91961
7.83089
8.86818
9.9929
11.1698
12.3679
13.5613
14.7288
15.8539
16.924
17.9296
18.8736
19.7585
20.5857
21.355
22.0641
22.7079
23.2789
23.7674
24.1626
24.453
24.6281
24.6788
24.6005
24.3996
24.0852
23.6683
23.1601
22.5713
21.911
21.1863
20.4015
19.5586
18.6573
17.6957
16.6714
15.5844
14.445
13.2669
12.068
10.8707
9.70262
8.596
7.58728
6.71578
6.02165
5.54282
5.31136
5.3491
5.65141
6.19308
6.94003
7.85338
8.89296
10.0201
11.1993
12.3997
13.5951
14.7643
15.8908
16.9619
17.968
18.9124
19.7973
20.6241
21.3925
22.1
22.7413
23.3089
23.793
24.1827
24.4667
24.6347
24.6777
24.5918
24.3839
24.0634
23.6413
23.1289
22.5369
21.8744
21.1482
20.3626
19.5195
18.6182
17.6571
16.6333
15.5473
14.4093
13.233
12.0362
10.8412
9.67553
8.57133
7.56491
6.69548
6.00303
5.5254
5.29455
4.83945
5.13379
5.66009
6.38495
7.27091
8.27979
9.37508
10.5235
11.6959
12.8674
14.0174
15.1291
16.189
17.1865
18.1225
18.9975
19.8113
20.563
21.2503
21.8689
22.4128
22.8747
23.2458
23.5173
23.6805
23.7277
23.6545
23.4668
23.1724
22.78
22.2985
21.7363
21.1005
20.3966
19.6285
18.7981
17.9062
16.9525
15.9369
14.8608
13.736
12.5767
11.4008
10.2302
9.091
8.01377
7.03287
6.18558
5.51027
5.04375
4.81774
4.85465
5.14961
5.6771
6.40359
7.29154
8.30263
9.40025
10.551
11.7256
12.8991
14.0507
15.1636
16.2244
17.2224
18.1588
19.0336
19.8469
20.5975
21.283
21.8991
22.4398
22.8975
23.2637
23.5295
23.6863
23.7266
23.6467
23.4528
23.1529
22.7558
22.2704
21.7051
21.067
20.3615
19.5924
18.7616
17.8695
16.9161
15.9009
14.8259
13.7024
12.5449
11.371
10.2027
9.0659
7.99103
7.01236
6.16705
5.49335
5.02798
4.80256
4.30941
4.5887
5.08723
5.77312
6.61128
7.56636
8.60486
9.69643
10.8144
11.936
13.0418
14.1159
15.1449
16.1177
17.0329
17.8885
18.6827
19.4135
20.0782
20.6729
21.1926
21.6311
21.9817
22.2371
22.3902
22.4344
22.3655
22.189
21.9116
21.5403
21.0823
20.5443
19.932
19.2503
18.5028
17.6919
16.8197
15.8879
14.8986
13.8552
12.7697
11.6562
10.5316
9.41634
8.33437
7.3135
6.38515
5.58358
4.94444
4.50237
4.28777
4.32287
4.60275
5.10237
5.7898
6.62983
7.587
8.62772
9.72152
10.8416
11.9651
13.0725
14.1478
15.1774
16.151
17.0666
17.922
18.7155
19.4452
20.1081
20.7004
21.2169
21.6517
21.9977
22.248
22.3955
22.4335
22.3585
22.1765
21.8941
21.5185
21.0569
20.5159
19.9014
19.218
18.4694
17.658
16.7856
15.8539
14.8651
13.8228
12.7386
11.6269
10.5043
9.39126
8.31156
7.29294
6.3667
5.567
4.92938
4.48837
4.27433
3.74193
3.998
4.45437
5.08171
5.84821
6.72226
7.67421
8.67737
9.70837
10.7472
11.7767
12.7826
13.7525
14.6765
15.55
16.3687
17.1293
17.8285
18.4631
19.0289
19.5215
19.9356
20.2654
20.505
20.6484
20.6897
20.625
20.4594
20.1988
19.849
19.4161
18.9055
18.3224
17.6712
16.9557
16.1793
15.3452
14.457
13.5193
12.5373
11.5222
10.4869
9.44652
8.41901
7.4254
6.49008
5.64071
4.9077
4.32303
3.91818
3.72131
3.75356
4.01016
4.46752
5.09625
5.86446
6.74044
7.69445
8.69968
9.73269
10.7733
11.8045
12.8116
13.7822
14.7071
15.5808
16.3994
17.1593
17.8574
18.4902
19.0538
19.5434
19.954
20.2798
20.5148
20.6531
20.6888
20.6187
20.4482
20.1831
19.8294
19.3931
18.8798
18.2945
17.6417
16.9251
16.1481
15.3139
14.4259
13.4888
12.5079
11.4942
10.4606
9.42215
8.39672
7.40524
6.47199
5.62455
4.89324
4.30994
3.90607
3.7097
3.13753
3.36214
3.76186
4.31085
4.98151
5.74672
6.58131
7.46286
8.37187
9.29172
10.2083
11.1098
11.986
12.829
13.6313
14.3867
15.0905
15.7386
16.3268
16.851
17.3066
17.6889
17.9929
18.2134
18.3452
18.3831
18.3235
18.1711
17.931
17.6084
17.2083
16.7358
16.1955
15.5918
14.9289
14.2109
13.4422
12.6279
11.7745
10.8891
9.98089
9.06043
8.14024
7.23514
6.36257
5.54291
4.79947
4.15812
3.64638
3.29167
3.1189
3.14723
3.37229
3.77287
4.32308
4.99523
5.76214
6.59855
7.48196
8.39281
9.31439
10.2325
11.1353
12.0125
12.8563
13.6588
14.4142
15.1174
15.7644
16.351
16.8731
17.3261
17.7053
18.0056
18.222
18.3494
18.3824
18.318
18.1611
17.9171
17.591
17.1879
16.7129
16.1706
15.5655
14.9016
14.1831
13.4143
12.6003
11.7477
10.8634
9.95656
9.03772
8.11931
7.21608
6.34541
5.52758
4.78583
4.14597
3.63541
3.28154
3.10922
2.49742
2.68265
3.01184
3.46355
4.01516
4.64467
5.33191
6.05909
6.81097
7.57474
8.33977
9.09736
9.84041
10.5637
11.2575
11.9148
12.5299
13.098
13.6148
14.0759
14.4769
14.8133
15.0807
15.2747
15.3906
15.4239
15.3714
15.2372
15.0259
14.742
14.3898
13.974
13.4988
12.9686
12.3879
11.7611
11.0932
10.3903
9.66021
8.91118
8.14931
7.38214
6.61889
5.87082
5.15141
4.47668
3.86514
3.33762
2.91646
2.62424
2.48171
2.5051
2.6907
3.02059
3.4733
4.02613
4.65704
5.34579
6.07454
6.82799
7.59327
8.35971
9.11858
9.86275
10.5868
11.2809
11.9382
12.5528
13.12
13.6355
14.0947
14.4935
14.8272
15.0916
15.282
15.3941
15.4233
15.3667
15.2287
15.0141
14.7271
14.3724
13.9544
13.4775
12.9461
12.3646
11.7374
11.0696
10.3671
9.6379
8.88998
8.1294
7.36365
6.60194
5.85544
5.13761
4.46439
3.85425
3.32793
2.90775
2.61622
2.47404
1.82338
1.96208
2.20829
2.54578
2.95757
3.42734
3.94026
4.48343
5.04599
5.61902
6.19549
6.7701
7.33926
7.90085
8.44445
8.96285
9.45053
9.90288
10.3157
10.6849
11.0066
11.2768
11.4918
11.6478
11.7411
11.7679
11.7255
11.6175
11.4475
11.2193
10.9364
10.6029
10.2226
9.79942
9.3375
8.84115
8.31522
7.76567
7.20052
6.62838
6.05159
5.47421
4.90202
4.34259
3.80537
3.30182
2.84544
2.45155
2.13682
1.91819
1.81141
1.82895
1.96793
2.21466
2.55288
2.96558
3.43639
3.95044
4.4948
5.05855
5.63278
6.21041
6.78613
7.35638
7.91867
8.46264
8.98106
9.46844
9.92011
10.3319
10.6997
11.0196
11.2878
11.5003
11.6536
11.7439
11.7674
11.7218
11.6109
11.4382
11.2076
10.9228
10.5876
10.2059
9.78182
9.31931
8.82273
8.29693
7.74788
7.18367
6.61252
6.0368
5.46055
4.88954
4.3313
3.79526
3.29284
2.83749
2.4445
2.13048
1.91236
1.80584
1.11751
1.2038
1.35678
1.56617
1.82132
2.11203
2.42911
2.76468
3.11223
3.4666
3.82404
4.18225
4.54078
4.90071
5.2525
5.59027
5.90977
6.20747
6.4802
6.72491
6.93867
7.11861
7.26198
7.3661
7.42841
7.4463
7.418
7.34584
7.23238
7.08019
6.89194
6.67043
6.41852
6.13918
5.8355
5.51074
5.16861
4.81375
4.45289
4.09361
3.73464
3.37694
3.02321
2.67761
2.34568
2.03432
1.75181
1.50767
1.31232
1.17643
1.10998
1.1209
1.20736
1.36066
1.5705
1.8262
2.11754
2.43532
2.77162
3.11992
3.47505
3.83325
4.19226
4.55166
4.91215
5.26425
5.60209
5.92143
6.21874
6.49082
6.73464
6.94727
7.12584
7.26761
7.36993
7.43025
7.44597
7.41555
7.34144
7.22623
7.0725
6.88294
6.66035
6.40761
6.12769
5.82367
5.49881
5.15684
4.80242
4.44237
4.08383
3.72557
3.36859
3.01559
2.67073
2.33951
2.02884
1.74696
1.50337
1.30846
1.17288
1.10659
0.381916
0.411499
0.463856
0.535364
0.622263
0.720972
0.828287
0.941486
1.05836
1.17723
1.297
1.41733
1.53922
1.6655
1.79036
1.91111
2.026
2.13361
2.23264
2.32185
2.40003
2.46603
2.51872
2.55704
2.57998
2.58657
2.57615
2.54957
2.50783
2.45192
2.38292
2.30196
2.21021
2.10888
1.99924
1.88262
1.76052
1.63489
1.50908
1.38747
1.26702
1.14716
1.02844
0.912133
0.800067
0.6946
0.598597
0.515388
0.448636
0.402107
0.379319
0.383067
0.412706
0.465168
0.536825
0.623907
0.722824
0.830367
0.943803
1.06092
1.18004
1.30008
1.42071
1.54303
1.66956
1.79456
1.91536
2.03021
2.13769
2.2365
2.3254
2.40318
2.46868
2.52078
2.55844
2.58066
2.58645
2.57525
2.54796
2.50557
2.4491
2.37963
2.29828
2.20624
2.10472
1.99498
1.87835
1.75633
1.63091
1.50554
1.38422
1.26402
1.14438
1.0259
0.909834
0.798002
0.692759
0.596963
0.513935
0.447329
0.400904
0.378169
)
;

boundaryField
{
    top
    {
        type            fixedValue;
        value           uniform 0;
    }
    bottom
    {
        type            fixedValue;
        value           uniform 36.5;
    }
    frontAndBack
    {
        type            empty;
    }
    left_cyc
    {
        type            cyclic;
    }
    right_cyc
    {
        type            cyclic;
    }
}


// ************************************************************************* //
