/*--------------------------------*- C++ -*----------------------------------*\
| =========                 |                                                 |
| \\      /  F ield         | OpenFOAM: The Open Source CFD Toolbox           |
|  \\    /   O peration     | Version:  2.3.0                                 |
|   \\  /    A nd           | Web:      www.OpenFOAM.org                      |
|    \\/     M anipulation  |                                                 |
\*---------------------------------------------------------------------------*/
FoamFile
{
    version     2.0;
    format      ascii;
    class       volScalarField;
    location    "20000";
    object      T;
}
// * * * * * * * * * * * * * * * * * * * * * * * * * * * * * * * * * * * * * //

dimensions      [0 0 0 1 0 0 0];

internalField   nonuniform List<scalar> 
3060
(
34.197
34.2081
34.2285
34.2577
34.2953
34.3407
34.3937
34.454
34.5215
34.5962
34.6783
34.7678
34.8644
34.9658
35.0699
35.1765
35.2856
35.3961
35.5062
35.6134
35.7145
35.806
35.8837
35.9433
35.9805
35.9916
35.9752
35.9335
35.87
35.7893
35.6956
35.5929
35.4849
35.3744
35.264
35.1552
35.0489
34.9451
34.844
34.7486
34.6605
34.58
34.5067
34.4408
34.3821
34.3309
34.2874
34.2519
34.2249
34.207
34.1984
34.1998
34.211
34.2315
34.2608
34.2985
34.3442
34.3975
34.4582
34.5261
34.6013
34.6839
34.7741
34.8713
34.9732
35.0776
35.1846
35.294
35.4047
35.5148
35.6217
35.7223
35.8128
35.8893
35.9472
35.9824
35.9913
35.9727
35.929
35.864
35.7821
35.6876
35.5845
35.4762
35.3658
35.2556
35.1472
35.0413
34.9379
34.8373
34.7425
34.655
34.575
34.5023
34.4367
34.3784
34.3275
34.2842
34.2489
34.222
34.2041
34.1957
29.7236
29.7547
29.8118
29.8935
29.9986
30.1262
30.2755
30.446
30.6376
30.8506
31.0854
31.3424
31.6216
31.9223
32.2349
32.5548
32.882
33.2134
33.5434
33.8643
34.1673
34.4416
34.6755
34.8556
34.9685
35.0027
34.9526
34.8257
34.6342
34.3914
34.1105
33.8031
33.4795
33.1484
32.8171
32.4908
32.172
31.8597
31.5628
31.2876
31.0349
30.8045
30.596
30.409
30.2433
30.0991
29.9769
29.8776
29.8022
29.7519
29.728
29.7319
29.7631
29.8204
29.9025
30.0082
30.1365
30.2866
30.4582
30.651
30.8655
31.1019
31.3607
31.6419
31.9444
32.2581
32.5791
32.9073
33.2392
33.5691
33.8893
34.1905
34.4622
34.6923
34.8674
34.9744
35.0017
34.945
34.8123
34.6162
34.37
34.0866
33.7778
33.4536
33.1226
32.7919
32.4667
32.1491
31.8379
31.5429
31.2697
31.0187
30.79
30.5829
30.3971
30.2324
30.089
29.9675
29.8686
29.7936
29.7435
29.7198
25.5559
25.6047
25.6942
25.8224
25.9877
26.1885
26.4237
26.6927
26.9953
27.3317
27.7024
28.1078
28.5481
29.0222
29.5272
30.0489
30.5852
31.1296
31.6718
32.199
32.6967
33.1483
33.5344
33.8333
34.0219
34.0794
33.9953
33.7837
33.4661
33.0656
32.6034
32.0984
31.5668
31.0227
30.4787
29.9444
29.4257
28.9243
28.4558
28.0219
27.6232
27.2595
26.9302
26.6349
26.3736
26.1464
25.9542
25.7981
25.6797
25.6008
25.5633
25.5694
25.6184
25.7084
25.8373
26.0034
26.2053
26.4419
26.7125
27.0171
27.3557
27.729
28.1372
28.5805
29.0575
29.5649
30.0888
30.6268
31.1721
31.7141
32.24
32.735
33.1823
33.5623
33.8531
34.0317
34.0777
33.9825
33.7614
33.4363
33.0302
32.5642
32.0568
31.5241
30.9802
30.4372
29.9047
29.3882
28.8895
28.424
27.9931
27.5972
27.2359
26.9088
26.6155
26.3557
26.1299
25.9387
25.7835
25.6657
25.5871
25.5498
21.8422
21.9063
22.024
22.1926
22.4099
22.6739
22.9832
23.3367
23.7341
24.1754
24.661
25.1914
25.767
26.3871
27.0496
27.7443
28.4658
29.2035
29.9415
30.6605
31.3396
31.9559
32.484
32.8943
33.1546
33.2344
33.1178
32.8261
32.3905
31.843
31.2124
30.5234
29.7985
29.0584
28.322
27.6042
26.9144
26.259
25.6468
25.0797
24.558
24.0815
23.6494
23.2616
22.9181
22.6194
22.3666
22.1614
22.0057
21.9019
21.8526
21.8606
21.9251
22.0433
22.2128
22.4313
22.6968
23.0079
23.3636
23.7635
24.2077
24.6966
25.2306
25.81
26.434
27.1001
27.7981
28.5223
29.2615
29.9994
30.7167
31.392
32.0024
32.5223
32.9217
33.1683
33.2321
33.1001
32.7954
32.3496
31.7946
31.1587
30.4665
29.7402
29.0004
28.2658
27.5506
26.8636
26.2128
25.6047
25.0414
24.5232
24.0498
23.6206
23.2353
22.8938
22.5968
22.3455
22.1413
21.9865
21.8832
21.8342
18.6744
18.7517
18.8934
19.0963
19.3575
19.6746
20.0454
20.4685
20.9431
21.4691
22.0468
22.677
23.3603
24.0967
24.8841
25.7184
26.5915
27.49
28.3946
29.2808
30.1203
30.8829
31.5365
32.0452
32.3689
32.4685
32.3232
31.9607
31.4209
30.7433
29.9631
29.1117
28.219
27.3131
26.4173
25.5501
24.7237
23.945
23.2183
22.5451
21.9253
21.3581
20.8429
20.3795
19.9682
19.6099
19.3062
19.0594
18.872
18.747
18.6876
18.6972
18.775
18.9174
19.1213
19.384
19.7028
20.0758
20.5015
20.9791
21.5085
22.09
22.7245
23.4123
24.1534
24.9454
25.7841
26.6607
27.5613
28.4661
29.3504
30.1854
30.9406
31.5841
32.0793
32.386
32.4656
32.301
31.9225
31.3701
30.6833
29.8965
29.0412
28.1472
27.2421
26.3489
25.4854
24.6634
23.8895
23.1675
22.4987
21.883
21.3196
20.8077
20.3472
19.9383
19.5821
19.2801
19.0346
18.8482
18.7239
18.6648
16.0796
16.1683
16.3307
16.5629
16.8612
17.2225
17.6437
18.1228
18.6583
19.25
19.8982
20.6038
21.3682
22.192
23.0743
24.0152
25.005
26.0284
27.0641
28.0841
29.0551
29.9394
30.6974
31.2869
31.6619
31.7774
31.609
31.1891
30.5635
29.7777
28.8732
27.8893
26.8629
25.8268
24.8075
23.8254
22.8947
22.0227
21.21
20.4569
19.7627
19.126
18.5461
18.0228
17.5567
17.1494
16.8032
16.5211
16.3065
16.1633
16.0951
16.1062
16.1953
16.3585
16.5919
16.8919
17.2551
17.6788
18.1607
18.6996
19.295
19.9474
20.6578
21.4272
22.2564
23.1442
24.0902
25.0842
26.1103
27.1467
28.1648
29.1307
30.0066
30.7527
31.3265
31.6818
31.7741
31.5833
31.1447
30.5046
29.7078
28.7958
27.8077
26.7802
25.7454
24.7294
23.752
22.827
21.9599
21.1523
20.4042
19.7145
19.0819
18.5057
17.9855
17.5222
17.1172
16.7729
16.4923
16.2789
16.1364
16.0686
14.0281
14.1271
14.3082
14.5667
14.8978
15.2971
15.7607
16.2853
16.869
17.5109
18.2112
18.9714
19.7934
20.6791
21.6293
22.6462
23.7195
24.833
25.964
27.0824
28.1513
29.1279
29.9656
30.6157
31.028
31.1545
30.9699
30.508
29.8178
28.9494
27.9509
26.8687
25.7443
24.6136
23.5053
22.4409
21.4351
20.4974
19.6239
18.8139
18.0655
17.377
16.7472
16.1762
15.6652
15.2164
14.8333
14.52
14.2811
14.1212
14.0452
14.0575
14.157
14.339
14.5988
14.9317
15.3332
15.7993
16.327
16.9142
17.5601
18.265
19.0302
19.8576
20.7492
21.7055
22.7281
23.8061
24.9228
26.0548
27.1714
28.2349
29.2024
30.0268
30.6594
31.0498
31.1509
30.9416
30.459
29.7525
28.8719
27.8654
26.7788
25.6535
24.5245
23.42
22.3607
21.361
20.429
19.5612
18.7564
18.0129
17.3288
16.7029
16.1353
15.6271
15.1809
14.7999
14.4883
14.2506
14.0915
14.0158
12.4514
12.5606
12.7601
13.0441
13.4065
13.8414
14.3431
14.9073
15.5309
16.2122
16.9513
17.7499
18.6108
19.5372
20.5321
21.5981
22.725
23.8966
25.0896
26.2724
27.4058
28.4435
29.334
30.0236
30.4587
30.5914
30.3976
29.9096
29.1771
28.2538
27.1934
26.0464
24.8579
23.6659
22.5003
21.383
20.3289
19.3475
18.4337
17.5849
16.7979
16.0703
15.4008
14.7899
14.2394
13.7529
13.3352
12.992
12.7292
12.553
12.4691
12.4827
12.5924
12.7929
13.0784
13.4427
13.8798
14.3842
14.9516
15.5788
16.2642
17.008
17.8118
18.6785
19.6111
20.6125
21.6846
22.8166
23.9917
25.1859
26.367
27.4949
28.5229
29.3992
30.0699
30.4817
30.5876
30.3678
29.8577
29.1076
28.1713
27.1024
25.951
24.7617
23.5716
22.41
21.2982
20.2504
19.2753
18.3676
17.5243
16.7423
16.0192
15.3538
14.7463
14.1989
13.715
13.2995
12.958
12.6966
12.5213
12.4378
11.2619
11.3821
11.6013
11.9123
12.3074
12.7786
13.3183
13.9204
14.5802
15.2951
16.0647
16.8909
17.7771
18.728
19.7487
20.8412
21.996
23.1977
24.4228
25.6392
26.8062
27.8752
28.7922
29.5003
29.9447
30.0793
29.8825
29.3836
28.6309
27.68
26.5875
25.4068
24.185
22.9612
21.766
20.621
19.5407
18.5337
17.5951
16.7203
15.905
15.146
14.4421
13.7942
13.2056
12.6814
12.2281
11.8534
11.5654
11.3718
11.2795
11.2944
11.4151
11.6353
11.9479
12.345
12.8185
13.361
13.9663
14.6298
15.3488
16.1232
16.9546
17.8467
18.8039
19.8313
20.9301
22.0903
23.2956
24.522
25.7367
26.8981
27.9572
28.8593
29.5478
29.9681
30.0754
29.8521
29.3302
28.5592
27.5948
26.4936
25.3084
24.0857
22.8641
21.6731
20.5337
19.4598
18.4594
17.5271
16.6579
15.8477
15.0932
14.3933
13.7491
13.1636
12.642
12.191
11.8182
11.5316
11.3389
11.2471
10.3702
10.5026
10.7438
11.0851
11.5164
12.0274
12.6081
13.2499
13.9463
14.6933
15.4898
16.3374
17.2403
18.2042
19.236
20.3368
21.4984
22.7064
23.9379
25.1609
26.3342
27.4083
28.328
29.0357
29.4775
29.6103
29.4159
28.9193
28.1663
27.2123
26.1144
24.9273
23.6989
22.4689
21.2673
20.1153
19.0263
18.0074
17.0549
16.1622
15.324
14.5366
13.7993
13.1138
12.485
11.9198
11.4274
11.0178
10.7016
10.4884
10.3868
10.4032
10.5361
10.7785
11.1213
11.5547
12.068
12.6515
13.2966
13.9967
14.7478
15.549
16.4018
17.3105
18.2807
19.3191
20.4262
21.5933
22.805
24.0378
25.2591
26.4267
27.4906
28.3952
29.083
29.5007
29.6065
29.3857
28.866
28.0944
27.1266
26.0199
24.8282
23.599
22.3711
21.1737
20.0274
18.9447
17.9325
16.9862
16.0991
15.2659
14.4831
13.7497
13.0678
12.4421
11.8797
11.3896
10.9819
10.6672
10.455
10.3539
9.69522
9.84143
10.1077
10.4833
10.9557
11.5116
12.1381
12.8239
13.5602
14.3411
15.1644
16.0313
16.9462
17.9156
18.9477
20.0429
21.1946
22.3896
23.6063
24.8133
25.9698
27.0268
27.9292
28.621
29.0505
29.1788
28.9907
28.5073
27.7708
26.834
25.7533
24.5828
23.3703
22.1547
20.9656
19.8228
18.7382
17.7175
16.7578
15.8513
14.9919
14.1759
13.403
12.6764
12.0027
11.3916
10.855
10.4059
10.0576
9.82224
9.71003
9.72813
9.87495
10.1424
10.5196
10.9941
11.5524
12.1818
12.8709
13.6107
14.3957
15.2235
16.0954
17.0159
17.9915
19.0301
20.1314
21.2883
22.487
23.7049
24.9101
26.0609
27.1076
27.995
28.667
29.0729
29.1752
28.9614
28.4554
27.7003
26.7498
25.6602
24.4851
23.2716
22.0581
20.8731
19.7357
18.6574
17.6432
16.6895
15.7884
14.9339
14.1222
13.3532
12.6301
11.9596
11.3513
10.817
10.3699
10.0231
9.78888
9.67717
9.16971
9.33142
9.62579
10.04
10.5586
11.1651
11.8433
12.5786
13.3595
14.1781
15.0305
15.9172
16.8425
17.8135
18.8385
19.918
21.0471
22.2142
23.3992
24.5721
25.6933
26.7152
27.5848
28.2485
28.6586
28.7804
28.6015
28.1396
27.4322
26.5289
25.4834
24.3481
23.1693
21.9848
20.8224
19.7009
18.6303
17.6145
16.6512
15.7319
14.8503
14.0029
13.1904
12.4177
11.6936
11.0309
10.4444
9.95077
9.56643
9.30626
9.1822
9.20218
9.36453
9.66009
10.076
10.5968
11.2058
11.8868
12.6253
13.4097
14.2322
15.0889
15.9805
16.9111
17.8879
18.919
20.0042
21.1382
22.3088
23.4949
24.6658
25.7813
26.7931
27.6479
28.2925
28.6799
28.7769
28.5737
28.0899
27.3645
26.4477
25.3934
24.2534
23.0736
21.8908
20.7323
19.616
18.5512
17.5415
16.5839
15.6699
14.7929
13.9497
13.1409
12.3716
11.6507
10.9907
10.4067
9.91513
9.53239
9.2733
9.14978
8.74139
8.92008
9.24527
9.7019
10.2715
10.9339
11.6692
12.4595
13.2903
14.151
15.0361
15.945
16.8813
17.8522
18.8654
19.9223
21.0199
22.1484
23.2891
24.4141
25.4858
26.4591
27.2842
27.9112
28.2968
28.4108
28.2431
27.8083
27.1394
26.2816
25.285
24.1991
23.0677
21.9263
20.8012
19.7093
18.6589
17.652
16.6863
15.7534
14.8469
13.9643
13.1075
12.2833
11.5034
10.7835
10.1421
9.59948
9.17555
8.88812
8.75111
8.77315
8.9525
9.27893
9.73731
10.3091
10.974
11.7122
12.5057
13.3398
14.2042
15.0935
16.0068
16.9481
17.9244
18.9432
20.0053
21.1075
22.239
23.3806
24.5034
25.5693
26.5328
27.3437
27.9525
28.3167
28.4076
28.2171
27.7616
27.0755
26.2046
25.1994
24.1088
22.9761
21.8362
20.7147
19.6275
18.5825
17.5811
16.6207
15.6926
14.7905
13.9118
13.0586
12.2378
11.461
10.7438
10.1049
9.56441
9.14214
8.85586
8.71941
8.37143
8.56818
8.92624
9.42818
10.0522
10.7745
11.5713
12.4212
13.3064
14.2137
15.1355
16.0695
17.0185
17.9893
18.9884
20.0188
21.0795
22.1623
23.2499
24.3169
25.3289
26.244
27.0168
27.6013
27.9594
28.065
27.9095
27.5053
26.8811
26.077
25.1391
24.1128
23.0384
21.9488
20.8676
19.8105
18.7839
17.7879
16.8193
15.8706
14.9361
14.0142
13.1085
12.2284
11.3881
10.6067
9.90648
9.31149
8.84532
8.52885
8.37807
8.40229
8.59972
8.95907
9.46281
10.0891
10.8139
11.6136
12.4666
13.355
14.2659
15.1914
16.1295
17.0831
18.0588
19.0628
20.098
21.1626
22.2479
23.3361
24.4008
25.4071
26.3128
27.0721
27.6395
27.9777
28.062
27.8854
27.4621
26.8216
26.0051
25.0589
24.0279
22.9521
21.8635
20.7853
19.7324
18.7106
17.7194
16.7557
15.8114
14.8809
13.9627
13.0605
12.1836
11.3463
10.5677
9.87001
9.27719
8.81274
8.49746
8.34727
8.03194
8.24738
8.63945
9.18822
9.86856
10.6529
11.5137
12.4259
13.3686
14.326
15.2879
16.2501
17.2141
18.1856
19.1703
20.1727
21.1937
22.2276
23.2565
24.2589
25.204
26.0545
26.7697
27.3093
27.6394
27.7367
27.5933
27.2205
26.6438
25.8989
25.0264
24.0667
23.056
22.0232
20.9889
19.9691
18.9676
17.9829
17.0099
16.0429
15.0771
14.1125
13.1547
12.2155
11.3122
10.4669
9.70581
9.05669
8.54683
8.2003
8.03528
8.06175
8.2779
8.6713
9.22193
9.90457
10.6915
11.5552
12.4704
13.4162
14.377
15.3423
16.3081
17.2761
18.2519
19.2409
20.2474
21.2719
22.3076
23.3367
24.3366
25.2762
26.1177
26.8204
27.3443
27.6562
27.734
27.5713
27.1809
26.5893
25.8329
24.9523
23.988
22.9755
21.9433
20.9115
19.8953
18.898
17.9175
16.9487
15.9856
15.0234
14.0621
13.1076
12.1715
11.2712
10.4287
9.67019
9.02329
8.51522
8.16994
8.00553
7.70329
7.93759
8.36378
8.95932
9.69577
10.5419
11.4667
12.4415
13.4426
14.452
15.4563
16.4491
17.4304
18.4042
19.3754
20.3501
21.3298
22.3102
23.2781
24.2138
25.0905
25.8754
26.5326
27.0273
27.3296
27.4187
27.2872
26.9456
26.4166
25.7313
24.9253
24.0338
23.0886
22.1154
21.1323
20.1509
19.1741
18.1994
17.2204
16.2328
15.2335
14.2238
13.2121
12.2132
11.2466
10.3377
9.51594
8.81286
8.25933
7.88261
7.70319
7.73194
7.96698
8.39455
8.992
9.73079
10.5796
11.5072
12.485
13.4891
14.5017
15.509
16.5051
17.4898
18.4671
19.4419
20.4199
21.4024
22.3841
23.3518
24.285
25.1564
25.9328
26.5786
27.059
27.3448
27.4162
27.2672
26.9096
26.367
25.6711
24.8575
23.9615
23.0145
22.0414
21.0603
20.0817
19.1084
18.1372
17.1617
16.1775
15.1813
14.1746
13.1661
12.1702
11.2065
10.3004
9.48128
8.78049
8.2288
7.85337
7.67459
7.37171
7.62468
8.08404
8.72452
9.51449
10.4195
11.4051
12.4398
13.497
14.5556
15.6009
16.6246
17.6244
18.602
19.5622
20.5115
21.4525
22.3823
23.291
24.1617
24.9715
25.6922
26.2932
26.7443
27.0196
27.1008
26.9807
26.6693
26.1865
25.5593
24.8181
23.9933
23.1121
22.1964
21.2615
20.3159
19.3614
18.3943
17.408
16.3989
15.366
14.3132
13.2504
12.1943
11.1673
10.1977
9.31826
8.56362
7.96802
7.56181
7.36804
7.39911
7.65284
8.11363
8.75607
9.54843
10.456
11.4445
12.4822
13.5422
14.6037
15.6518
16.6783
17.681
18.6614
19.6245
20.5764
21.5195
22.4502
23.3582
24.2263
25.031
25.744
26.3345
26.7728
27.0333
27.0985
26.9628
26.637
26.142
25.505
24.7568
23.9276
23.0444
22.1285
21.1949
20.2515
19.2997
18.3355
17.352
16.3456
15.3155
14.2654
13.2056
12.1523
11.1282
10.1615
9.28466
8.53237
7.93867
7.5338
7.3407
7.02665
7.297
7.78655
8.46731
9.30482
10.2618
11.3014
12.3898
13.4978
14.6024
15.6869
16.7411
17.7601
18.7435
19.6959
20.6239
21.5309
22.415
23.269
24.079
24.8261
25.4865
26.0345
26.4446
26.6945
26.7682
26.659
26.376
25.9367
25.364
24.6837
23.9213
23.0997
22.2369
21.3452
20.4309
19.4946
18.5323
17.537
16.5058
15.4402
14.3464
13.2363
12.1284
11.0476
10.0243
9.09376
8.29327
7.65983
7.22664
7.0194
7.05269
7.32382
7.81483
8.49758
9.3375
10.2972
11.3396
12.4308
13.5416
14.6489
15.736
16.7925
17.8139
18.7995
19.7541
20.6841
21.5924
22.477
23.3299
24.1373
24.8795
25.5329
26.0715
26.47
26.7068
26.7662
26.643
26.3472
25.8968
25.3153
24.6286
23.862
23.0381
22.1747
21.2838
20.3711
19.4368
18.4767
17.4835
16.4546
15.3915
14.3002
13.1928
12.0877
11.0097
9.9893
9.0614
8.26328
7.63178
7.19996
6.99342
6.65986
6.94484
7.45941
8.17314
9.04931
10.0486
11.1324
12.2651
13.4162
14.5608
15.6805
16.7629
17.801
18.7918
19.74
20.6516
21.5302
22.3752
23.1811
23.937
24.6276
25.2334
25.7333
26.1059
26.3327
26.3994
26.3001
26.0431
25.6433
25.1201
24.4949
23.7886
23.0199
22.2033
21.3485
20.4599
19.5373
18.5764
17.5709
16.5184
15.4228
14.2925
13.1416
11.9903
10.865
9.79791
8.82584
7.98801
7.32351
6.86788
6.64925
6.68444
6.97021
7.48625
8.202
9.08059
10.0826
11.1692
12.3047
13.4584
14.6055
15.7276
16.8121
17.8521
18.8446
19.7943
20.7072
21.5866
22.4316
23.2362
23.9893
24.6753
25.2747
25.7661
26.1285
26.3435
26.3976
26.2859
26.0175
25.6079
25.0768
24.4455
23.7352
22.9642
22.1467
21.292
20.4044
19.4832
18.5239
17.52
16.4694
15.3759
14.248
13.0996
11.951
10.8285
9.76425
8.79486
7.95942
7.29689
6.84264
6.62472
6.26547
6.56111
7.09349
7.83029
8.73325
9.76189
10.8767
12.0412
13.2241
14.3994
15.5472
16.6533
17.7084
18.7072
19.654
20.5541
21.4106
22.2237
22.9893
23.699
24.3407
24.8991
25.3567
25.6965
25.9027
25.9633
25.8728
25.6386
25.2735
24.7936
24.2162
23.5583
22.8346
22.0565
21.2315
20.3626
19.4492
18.4874
17.4718
16.4006
15.2802
14.1212
12.9392
11.756
10.5991
9.50143
8.50062
7.63687
6.95056
6.47886
6.25187
6.28848
6.58491
7.11876
7.85758
8.76296
9.79428
10.9118
12.0792
13.2646
14.4423
15.5923
16.7003
17.757
18.7569
19.7047
20.6055
21.4624
22.275
23.039
23.7459
24.3833
24.9357
25.3858
25.7164
25.9123
25.9617
25.8602
25.6159
25.2421
24.7551
24.1722
23.5103
22.7841
22.0048
21.1795
20.3111
19.3985
18.4378
17.4233
16.3537
15.2352
14.0783
12.8989
11.7183
10.5642
9.46931
8.47118
7.60983
6.92549
6.45518
6.22891
5.83931
6.14051
6.68158
7.42903
8.34392
9.38558
10.5145
11.6945
12.8941
14.0868
15.2519
16.3737
17.441
18.4461
19.3927
20.2848
21.1248
21.9129
22.6461
23.3181
23.9194
24.4379
24.86
25.1718
25.3605
25.4159
25.3328
25.118
24.7823
24.3388
23.8014
23.1834
22.4963
21.749
20.947
20.0927
19.1854
18.2221
17.1989
16.1147
14.9783
13.8019
12.6028
11.4032
10.2312
9.11973
8.1062
7.23085
6.53435
6.05468
5.82325
5.86065
6.16263
6.70515
7.45459
8.37188
9.4162
10.5479
11.7306
12.9327
14.1278
15.2949
16.4184
17.4869
18.4928
19.4401
20.3325
21.1724
21.9597
22.6911
23.3602
23.9574
24.4704
24.8856
25.1894
25.369
25.4145
25.3216
25.0979
24.7545
24.3046
23.762
23.1402
22.4506
21.7018
20.8991
20.0448
19.1379
18.1753
17.1528
16.0699
14.9352
13.7609
12.5642
11.3673
10.1981
9.08936
8.07849
7.20552
6.51097
6.03269
5.80196
5.3785
5.67914
6.21801
6.9613
7.87039
8.90544
10.028
11.203
12.3997
13.592
14.759
15.884
16.9544
17.9605
18.9051
19.7902
20.6171
21.3856
22.0932
22.735
23.3037
23.7899
24.1829
24.4718
24.6461
24.6972
24.6201
24.4213
24.1097
23.6958
23.1907
22.6047
21.9468
21.2238
20.44
19.5974
18.6959
17.7338
16.709
15.6218
14.4825
13.3049
12.1069
10.9109
9.74439
8.63948
7.63249
6.7626
6.06976
5.5918
5.36064
5.39805
5.69945
6.23973
6.98496
7.8964
8.93405
10.0594
11.237
12.4362
13.6309
14.7998
15.9263
16.9977
18.0045
18.9494
19.8345
20.661
21.4283
22.134
22.7729
23.3377
23.8188
24.2057
24.4874
24.6536
24.6959
24.6102
24.4035
24.085
23.6652
23.1554
22.5657
21.9052
21.1804
20.3957
19.5527
18.6513
17.6896
16.6654
15.5793
14.4416
13.2661
12.0704
10.877
9.71326
8.6111
7.60672
6.73915
6.04822
5.5716
5.34113
4.88117
5.17423
5.69849
6.42074
7.30371
8.30941
9.40151
10.5469
11.7166
12.8857
14.0337
15.144
16.203
17.2
18.1358
19.0103
19.8235
20.5743
21.2602
21.8771
22.4192
22.8792
23.2487
23.519
23.6816
23.7291
23.657
23.471
23.1789
22.789
22.3101
21.7503
21.1166
20.4143
19.6474
18.8178
17.9263
16.9731
15.958
14.883
13.7596
12.6022
11.4285
10.2604
9.12399
8.04952
7.07127
6.22635
5.55297
5.08775
4.86227
4.89883
5.19261
5.71821
6.44232
7.32755
8.33576
9.4305
10.5785
11.7506
12.922
14.0719
15.1836
16.2436
17.2411
18.1772
19.0516
19.8641
20.6135
21.2974
21.9115
22.4498
22.9051
23.269
23.5328
23.6883
23.7279
23.6481
23.4552
23.1568
22.7616
22.2783
21.7149
21.0785
20.3745
19.6063
18.7761
17.8845
16.9315
15.917
14.8431
13.7213
12.5658
11.3945
10.229
9.09518
8.02337
7.04764
6.20496
5.5334
5.06948
4.84465
4.34632
4.62409
5.12015
5.80286
6.63731
7.58837
8.62272
9.71016
10.8242
11.942
13.0446
14.1159
15.1427
16.1137
17.0276
17.8819
18.6749
19.4043
20.0675
20.6605
21.1784
21.6153
21.9645
22.2189
22.3716
22.4161
22.3481
22.1732
21.8977
21.5286
21.073
20.5372
19.9271
19.2472
18.5013
17.692
16.8211
15.8908
14.9034
13.8624
12.7797
11.6694
10.5483
9.43678
8.35859
7.34143
6.41657
5.61809
4.98145
4.54109
4.32725
4.36196
4.6404
5.13772
5.82216
6.65874
7.61217
8.64903
9.73898
10.8554
11.9754
13.0798
14.1524
15.1798
16.1518
17.066
17.9201
18.7123
19.4403
20.1014
20.6917
21.2061
21.6387
21.9827
22.2313
22.3776
22.415
22.3403
22.159
21.8778
21.5039
21.0441
20.505
19.8923
19.2105
18.4634
17.6533
16.7823
15.8522
14.8653
13.8254
12.7443
11.6359
10.5172
9.40808
8.33245
7.31783
6.39534
5.59896
4.96403
4.52487
4.31164
3.77373
4.0281
4.48169
5.10541
5.86768
6.73708
7.68414
8.68231
9.70836
10.7424
11.7675
12.7693
13.7357
14.6567
15.5276
16.344
17.1024
17.7996
18.4321
18.996
19.4867
19.8991
20.2275
20.4662
20.6092
20.6507
20.5869
20.4227
20.1639
19.8163
19.3857
18.8775
18.2969
17.6481
16.935
16.1609
15.3293
14.4439
13.5093
12.5309
11.5199
10.4889
9.45313
8.4303
7.44133
6.51046
5.66522
4.93585
4.35413
3.95134
3.7554
3.78725
4.04222
4.49694
5.12223
5.88643
6.75801
7.70738
8.70789
9.73621
10.7723
11.7991
12.8023
13.7695
14.6915
15.5628
16.379
17.1366
17.8324
18.463
19.0242
19.5116
19.92
20.2439
20.4773
20.6145
20.6497
20.5798
20.41
20.1461
19.7941
19.3597
18.8484
18.2652
17.6146
16.9002
16.1255
15.2937
14.4085
13.4746
12.4974
11.488
10.4589
9.42533
8.40483
7.41824
6.48971
5.64665
4.91919
4.33901
3.9373
3.74191
3.16394
3.38676
3.78355
4.32873
4.99492
5.75517
6.5845
7.4606
8.3641
9.27851
10.1898
11.0863
11.9579
12.7969
13.5955
14.3476
15.0483
15.6935
16.2791
16.8008
17.2542
17.6345
17.937
18.1564
18.2878
18.3258
18.2671
18.116
17.8778
17.5574
17.1599
16.6902
16.1528
15.5521
14.8924
14.1778
13.4126
12.602
11.7528
10.8721
9.96876
9.05345
8.13851
7.23864
6.37119
5.55639
4.81742
4.18001
3.67146
3.31899
3.14727
3.17522
3.39856
3.79633
4.34287
5.01074
5.7729
6.60428
7.48247
8.38803
9.30436
10.2174
11.1154
11.9881
12.8279
13.6268
14.3788
15.0788
15.7228
16.3065
16.8258
17.2762
17.6531
17.9514
18.1662
18.2925
18.325
18.2608
18.1048
17.8621
17.5378
17.1369
16.6643
16.1246
15.5223
14.8615
14.1462
13.3809
12.5707
11.7224
10.8429
9.94112
9.02762
8.11468
7.21691
6.35157
5.53883
4.80176
4.16601
3.65879
3.30726
3.13602
2.51817
2.70167
3.02803
3.47605
4.02333
4.64804
5.33014
6.05197
6.79838
7.55665
8.31624
9.06853
9.80654
10.5251
11.2146
11.8678
12.4791
13.0437
13.5573
14.0154
14.4138
14.748
15.0137
15.2064
15.3218
15.3551
15.3034
15.1707
14.9613
14.6797
14.3304
13.9176
13.4457
12.9192
12.3422
11.7194
11.0558
10.3573
9.63195
8.88794
8.13128
7.36941
6.61147
5.86862
5.15427
4.48432
3.87717
3.35351
2.93551
2.64553
2.50406
2.5271
2.71102
3.03817
3.48731
4.03596
4.66224
5.34604
6.06962
6.81779
7.57774
8.33891
9.09263
9.83188
10.5513
11.2411
11.8942
12.505
13.0686
13.5806
14.0367
14.4326
14.7638
15.026
15.2148
15.3258
15.3544
15.2981
15.1611
14.9479
14.663
14.3107
13.8955
13.4218
12.8938
12.3159
11.6926
11.029
10.3311
9.6067
8.86392
8.1087
7.34843
6.5922
5.85111
5.13852
4.47026
3.86468
3.34237
2.92546
2.63623
2.49515
1.83823
1.97545
2.21922
2.55354
2.96162
3.42729
3.93583
4.47442
5.03227
5.60053
6.17221
6.74205
7.30651
7.86353
8.40277
8.91702
9.4008
9.84951
10.2589
10.6251
10.9441
11.2121
11.4253
11.58
11.6726
11.6994
11.6578
11.5511
11.383
11.157
10.877
10.5465
10.1696
9.75005
9.29199
8.7997
8.27803
7.73288
7.17225
6.60472
6.03259
5.45987
4.89229
4.33737
3.80449
3.30506
2.85247
2.46193
2.14995
1.93329
1.82746
1.84471
1.98224
2.2266
2.56173
2.97083
3.43766
3.94747
4.48738
5.04657
5.61616
6.18913
6.76022
7.32588
7.88369
8.42332
8.9376
9.42102
9.86896
10.2772
10.6418
10.9588
11.2244
11.4349
11.5865
11.6758
11.6988
11.6536
11.5436
11.3725
11.1439
10.8616
10.5292
10.1508
9.73022
9.27149
8.77893
8.25739
7.7128
7.15321
6.58679
6.01585
5.44439
4.87812
4.32453
3.79297
3.2948
2.84336
2.45382
2.14264
1.92654
1.82099
1.12632
1.21157
1.36284
1.57003
1.82261
2.11049
2.42458
2.75704
3.10139
3.45252
3.80667
4.16155
4.51668
4.87315
5.22156
5.55606
5.87244
6.16721
6.4372
6.67943
6.89099
7.06907
7.21094
7.31401
7.37574
7.39359
7.36583
7.29469
7.1827
7.03237
6.84631
6.62727
6.37808
6.10166
5.80105
5.4795
5.14069
4.78922
4.43172
4.07573
3.71999
3.36548
3.01489
2.67236
2.3434
2.03488
1.755
1.5132
1.31979
1.1853
1.11954
1.13026
1.2157
1.36733
1.57502
1.82822
2.11681
2.43167
2.76494
3.11013
3.4621
3.8171
4.17287
4.52898
4.88607
5.23481
5.56938
5.88558
6.17989
6.44916
6.69038
6.90066
7.07719
7.21727
7.31831
7.37781
7.39323
7.36308
7.28976
7.1758
7.02374
6.8362
6.61595
6.36582
6.08874
5.78775
5.46609
5.12744
4.77645
4.41987
4.06469
3.70974
3.35603
3.00626
2.66455
2.33639
2.02863
1.74945
1.50826
1.31534
1.18119
1.1156
0.384712
0.413899
0.46561
0.536291
0.622239
0.719917
0.826153
0.938248
1.05401
1.17176
1.29039
1.40956
1.53019
1.6551
1.77858
1.89797
2.01155
2.1179
2.21575
2.30388
2.3811
2.44627
2.4983
2.53614
2.55882
2.56538
2.55518
2.52904
2.48793
2.43282
2.36477
2.28487
2.19429
2.0942
1.98587
1.87059
1.74985
1.6256
1.5011
1.38066
1.26133
1.14256
1.02494
0.90971
0.798708
0.69427
0.599238
0.516906
0.450889
0.404895
0.382374
0.386049
0.415299
0.467128
0.537975
0.624126
0.722037
0.828526
0.940885
1.05691
1.17494
1.29387
1.41338
1.5345
1.65967
1.7833
1.90274
2.01627
2.12248
2.22009
2.30787
2.38463
2.44924
2.50062
2.53772
2.55958
2.56525
2.55417
2.52724
2.48541
2.42967
2.36108
2.28076
2.18984
2.08954
1.98109
1.86579
1.74515
1.62112
1.49711
1.377
1.25794
1.13943
1.02207
0.907103
0.796361
0.692172
0.59737
0.515238
0.449383
0.403503
0.381039
)
;

boundaryField
{
    top
    {
        type            fixedValue;
        value           uniform 0;
    }
    bottom
    {
        type            fixedValue;
        value           uniform 36.5;
    }
    frontAndBack
    {
        type            empty;
    }
    left_cyc
    {
        type            cyclic;
    }
    right_cyc
    {
        type            cyclic;
    }
}


// ************************************************************************* //
