/*--------------------------------*- C++ -*----------------------------------*\
| =========                 |                                                 |
| \\      /  F ield         | OpenFOAM: The Open Source CFD Toolbox           |
|  \\    /   O peration     | Version:  2.3.0                                 |
|   \\  /    A nd           | Web:      www.OpenFOAM.org                      |
|    \\/     M anipulation  |                                                 |
\*---------------------------------------------------------------------------*/
FoamFile
{
    version     2.0;
    format      ascii;
    class       volScalarField;
    location    "20000";
    object      T;
}
// * * * * * * * * * * * * * * * * * * * * * * * * * * * * * * * * * * * * * //

dimensions      [0 0 0 1 0 0 0];

internalField   nonuniform List<scalar> 
765
(
40.0067
40.0649
40.0157
39.9127
39.8353
39.8875
40.1519
40.4363
40.8207
41.3334
41.6173
41.1431
40.659
40.3079
40.0223
39.8363
39.8422
39.9406
40.0337
40.0518
39.9481
39.7586
39.5123
39.2093
38.8385
38.3809
37.8101
37.0941
36.2016
35.1084
33.7946
32.1762
30.6974
29.5976
28.8299
28.4975
28.5886
29.078
29.982
31.2084
32.8448
34.3306
35.5572
36.5708
37.3914
38.0471
38.5705
38.9919
39.3348
39.6155
39.8416
33.0392
33.2242
33.2964
33.3032
33.3326
33.5101
33.9275
34.7514
36.1095
37.9027
38.8624
37.2687
35.5791
34.4194
33.7667
33.4015
33.2892
33.2804
33.2591
33.1511
32.9228
32.5259
32.0068
31.3904
30.6804
29.8677
28.9287
27.8166
26.4513
24.7155
22.6289
20.6715
19.0699
17.7469
16.7267
16.182
16.3323
17.082
18.2348
19.6553
21.3724
23.4816
25.4435
27.0184
28.2731
29.3109
30.1976
30.9694
31.6438
32.2256
32.7051
28.1402
28.4608
28.7087
28.9126
29.1251
29.4375
30.0042
31.1909
33.1819
35.7953
37.1686
34.8724
32.3861
30.6719
29.7176
29.2826
29.0201
28.8173
28.6009
28.3276
27.976
27.5425
26.9865
26.3219
25.5666
24.7218
23.7911
22.7656
21.6221
20.3511
18.889
17.2582
15.5735
13.99
12.7173
12.0223
12.2109
13.1658
14.5925
16.2411
17.9238
19.501
20.8781
22.0946
23.1854
24.1701
25.0671
25.8767
26.5986
27.2272
27.7378
26.0239
26.399
26.7417
27.0541
27.3465
27.6722
28.2531
29.474
31.6403
34.5782
36.114
33.54
30.759
28.9312
27.9674
27.5295
27.2282
26.9305
26.6067
26.2515
25.8638
25.4437
24.9921
24.5066
23.9914
23.4535
22.8713
22.2
21.3708
20.2906
18.8604
17.075
15.0801
13.1067
11.4938
10.6196
10.8505
12.0582
13.86
15.8843
17.8246
19.4792
20.7612
21.7288
22.4843
23.1124
23.6716
24.2003
24.705
25.1761
25.6161
26.0033
26.3395
26.6697
26.9694
27.2174
27.4518
27.8968
28.9365
31.0073
33.9481
35.4705
32.9125
30.148
28.4619
27.6858
27.3524
27.1289
26.8623
26.5486
26.2135
25.8788
25.5566
25.2509
24.9592
24.6715
24.3643
23.9916
23.4798
22.7257
21.603
19.9923
17.8831
15.4678
13.0434
11.0518
9.98431
10.2594
11.7417
13.9627
16.4341
18.7615
20.6885
22.0966
23.0589
23.7034
24.1493
24.4883
24.7831
25.0696
25.365
25.6762
26.9202
27.1967
27.4647
27.6832
27.8212
27.935
28.1877
29.0255
30.929
33.6964
35.0919
32.735
30.1293
28.6233
28.0521
27.8881
27.7809
27.614
27.3738
27.0991
26.8277
26.583
26.3735
26.1942
26.0256
25.8295
25.5421
25.0693
24.288
23.0585
21.2522
18.8288
15.9981
13.1318
10.7692
9.51163
9.83011
11.5814
14.2122
17.1234
19.8253
22.0182
23.5894
24.6293
25.2755
25.6635
25.9058
26.0847
26.2533
26.4419
26.6641
28.0583
28.2731
28.4563
28.5679
28.5923
28.5988
28.774
29.5299
31.2148
33.6054
34.8165
32.7891
30.5219
29.1715
28.6651
28.6021
28.5933
28.5406
28.4009
28.203
27.9872
27.7854
27.6146
27.4749
27.3469
27.1865
26.9178
26.4313
25.5913
24.2533
22.2827
19.6097
16.4276
13.1728
10.4748
9.03766
9.39875
11.3986
14.3954
17.6923
20.7059
23.1084
24.8217
25.9519
26.6399
27.0287
27.2451
27.3859
27.5145
27.6646
27.848
29.0998
29.2446
29.3416
29.3809
29.3931
29.4062
29.6128
30.28
31.6484
33.5579
34.5781
32.9155
31.1016
29.9808
29.5033
29.3911
29.3886
29.3752
29.3175
29.2028
29.0479
28.8784
28.7147
28.5648
28.417
28.2303
27.9251
27.384
26.4687
25.0382
22.951
20.1149
16.6701
13.1059
10.1254
8.51824
8.92356
11.1459
14.4427
18.0444
21.2862
23.8259
25.6392
26.8534
27.6094
28.0463
28.2958
28.4614
28.6076
28.7631
28.9315
29.9124
30.0243
30.1061
30.1625
30.2009
30.2795
30.5161
31.0765
32.1166
33.5424
34.3679
33.0751
31.7176
30.8435
30.4117
30.245
30.191
30.1488
30.0854
29.9947
29.8733
29.726
29.5599
29.3769
29.166
28.8915
28.4828
27.8354
26.8271
25.3306
23.1909
20.254
16.6209
12.8562
9.67988
7.92704
8.37505
10.7704
14.2655
18.0724
21.4707
24.0806
25.946
27.2372
28.0943
28.6394
28.9887
29.2345
29.4337
29.6112
29.7723
30.4687
30.618
30.7425
30.8483
30.9533
31.0954
31.3426
31.7934
32.5429
33.5427
34.1764
33.2322
32.2739
31.6244
31.2518
31.0488
30.925
30.8227
30.7124
30.5798
30.4219
30.2378
30.0249
29.7747
29.4694
29.0714
28.5173
27.7203
26.5864
25.0125
22.833
19.8408
16.1299
12.3171
9.06882
7.22849
7.7068
10.1893
13.7376
17.5844
21.0573
23.7209
25.6394
27.0294
28.0262
28.7232
29.212
29.5713
29.8544
30.0907
30.2934
30.5054
30.7607
30.9944
31.2118
31.4229
31.6475
31.9217
32.2996
32.8345
33.504
33.9605
33.3167
32.6641
32.1788
31.8393
31.5854
31.3677
31.1555
30.933
30.6921
30.4283
30.1379
29.8165
29.4423
28.9965
28.4404
27.7164
26.7559
25.4946
23.8547
21.651
18.6725
15.0775
11.4101
8.24446
6.39886
6.88664
9.3415
12.7642
16.4418
19.8502
22.536
24.4891
25.969
27.1111
27.9769
28.6329
29.1441
29.561
29.9147
30.2247
29.4229
29.8627
30.2777
30.6736
31.0556
31.4301
31.8091
32.2125
32.6603
33.1366
33.4538
33.0243
32.5406
32.1033
31.7074
31.3296
30.952
30.5647
30.1619
29.7383
29.2878
28.8046
28.2863
27.7371
27.118
26.3961
25.526
24.4529
23.1263
21.48
19.3322
16.5493
13.3332
10.0401
7.14491
5.40845
5.87434
8.15355
11.2565
14.5549
17.6448
20.185
22.1025
23.6104
24.8368
25.8289
26.6397
27.3209
27.9133
28.4473
28.9522
26.1004
26.753
27.3765
27.98
28.5696
29.1475
29.7113
30.2555
30.7676
31.2119
31.4529
31.1187
30.6411
30.1123
29.5575
28.9858
28.4017
27.806
27.1951
26.5615
25.8957
25.1919
24.4549
23.7034
22.9527
22.1326
21.2275
20.2001
18.9886
17.5091
15.6581
13.3776
10.773
8.08836
5.69208
4.21934
4.61993
6.53213
9.08448
11.7647
14.2631
16.3691
18.0592
19.424
20.5564
21.5314
22.3999
23.1912
23.9376
24.6856
25.411
19.2075
19.9164
20.603
21.273
21.9298
22.572
23.193
23.7784
24.3023
24.7134
24.8911
24.6276
24.1715
23.6212
23.0192
22.3877
21.738
21.075
20.3983
19.7034
18.984
18.2368
17.4706
16.7025
15.9432
15.228
14.5051
13.7279
12.8531
11.8128
10.5336
8.99181
7.25003
5.44973
3.82022
2.79558
3.07744
4.39452
6.11864
7.91032
9.58228
11.0181
12.1959
13.1639
13.9951
14.7496
15.4603
16.1859
16.945
17.7115
18.4711
7.71545
8.10765
8.496
8.88191
9.26472
9.64034
10.0002
10.3304
10.6107
10.812
10.8868
10.77
10.541
10.2416
9.8988
9.53125
9.1513
8.76601
8.37827
7.98782
7.593
7.19436
6.79903
6.41465
6.04064
5.67943
5.3409
5.02099
4.69139
4.32387
3.89118
3.37623
2.7809
2.13559
1.51989
1.11466
1.22786
1.74004
2.37845
3.00783
3.57191
4.05215
4.45605
4.80487
5.12595
5.44672
5.79529
6.15964
6.53545
6.92239
7.31873
)
;

boundaryField
{
    top
    {
        type            fixedValue;
        value           uniform 0;
    }
    bottom
    {
        type            fixedValue;
        value           uniform 43.8;
    }
    frontAndBack
    {
        type            empty;
    }
    left_cyc
    {
        type            cyclic;
    }
    right_cyc
    {
        type            cyclic;
    }
}


// ************************************************************************* //
