/*--------------------------------*- C++ -*----------------------------------*\
| =========                 |                                                 |
| \\      /  F ield         | OpenFOAM: The Open Source CFD Toolbox           |
|  \\    /   O peration     | Version:  2.3.0                                 |
|   \\  /    A nd           | Web:      www.OpenFOAM.org                      |
|    \\/     M anipulation  |                                                 |
\*---------------------------------------------------------------------------*/
FoamFile
{
    version     2.0;
    format      ascii;
    class       volScalarField;
    location    "17000";
    object      p;
}
// * * * * * * * * * * * * * * * * * * * * * * * * * * * * * * * * * * * * * //

dimensions      [0 2 -2 0 0 0 0];

internalField   nonuniform List<scalar> 
192
(
-1662.36
-1671.2
-1679.86
-1689.04
-1699.64
-1712.62
-1728.49
-1746.62
-1764.91
-1779.47
-1784.45
-1775.27
-1758.91
-1497.19
-1505.7
-1514.46
-1523.81
-1534.07
-1545.46
-1557.87
-1570.77
-1582.59
-1591.19
-1594.17
-1588.72
-1578.85
-1359.52
-1366.58
-1374.06
-1382.02
-1390.47
-1399.36
-1408.47
-1417.07
-1423.94
-1428.16
-1429.61
-1426.98
-1421.9
-1236.97
-1241.96
-1247.25
-1252.76
-1258.4
-1264.1
-1269.63
-1274.21
-1277
-1277.91
-1278.14
-1277.72
-1276.33
-1118.03
-1120.84
-1123.77
-1126.71
-1129.64
-1132.52
-1135.14
-1136.89
-1137.16
-1136.17
-1135.62
-1136.59
-1137.32
-996.824
-997.813
-998.761
-999.639
-1000.45
-1001.16
-1001.6
-1001.38
-1000.11
-998.052
-997.076
-998.823
-1000.75
-871.262
-870.861
-870.356
-869.763
-869.084
-868.227
-867.069
-865.382
-862.997
-860.255
-859.09
-861.239
-863.977
-741.095
-739.697
-738.189
-736.574
-734.806
-732.77
-730.347
-727.433
-724.101
-720.915
-719.689
-722.007
-725.348
-606.971
-604.815
-602.532
-600.078
-597.364
-594.286
-590.731
-586.732
-582.6
-579.13
-577.879
-580.261
-584.043
-469.833
-466.923
-463.863
-460.555
-456.887
-452.749
-448.095
-443.089
-438.237
-434.509
-433.213
-435.649
-439.831
-331.342
-327.428
-323.353
-318.972
-314.149
-308.786
-302.91
-296.805
-291.136
-287.011
-285.605
-288.17
-292.887
-195.375
-189.942
-184.397
-178.545
-172.215
-165.309
-157.896
-150.357
-143.502
-138.61
-136.953
-139.867
-145.499
-68.0749
-60.1932
-52.0865
-43.5918
-34.5795
-25.0067
-15.0259
-5.13206
3.70841
9.99968
12.147
8.5013
23.5665
33.1883
42.9296
52.9901
63.6392
75.1186
87.4708
100.259
112.251
121.186
124.373
119.12
73.9901
69.197
63.4402
56.7234
48.9143
39.8297
29.3915
17.8867
6.391
-2.83878
-5.86892
-0.598879
)
;

boundaryField
{
    top
    {
        type            calculated;
        value           nonuniform List<scalar> 
12
(
-9.81
-9.81
-9.81
-9.81
-9.81
-9.81
-9.81
-9.81
-9.81
-9.81
-9.81
-9.81
)
;
    }
    bottom
    {
        type            calculated;
        value           nonuniform List<scalar> 
13
(
-1753.38
-1762.35
-1770.9
-1779.84
-1790.26
-1803.36
-1819.83
-1838.61
-1857.78
-1873.51
-1879.14
-1868.88
-1851.41
)
;
    }
    frontAndBack
    {
        type            empty;
    }
    left_cyc
    {
        type            cyclic;
    }
    right_cyc
    {
        type            cyclic;
    }
    procBoundary0to1
    {
        type            processor;
        value           nonuniform List<scalar> 
16
(
-1740.25
-1566.38
-1414.26
-1272.85
-1136.52
-1001.66
-866.134
-728.576
-588.201
-444.828
-298.809
-152.705
1.26152
1.26152
108.987
9.82866
)
;
    }
    procBoundary0to3throughleft_cyc
    {
        type            processorCyclic;
        value           nonuniform List<scalar> 
15
(
-1652.91
-1488.64
-1352.78
-1232.32
-1115.4
-995.843
-871.557
-742.365
-609.021
-472.671
-335.23
-200.893
-75.9231
14.0827
77.7991
)
;
    }
}


// ************************************************************************* //
