/*--------------------------------*- C++ -*----------------------------------*\
| =========                 |                                                 |
| \\      /  F ield         | OpenFOAM: The Open Source CFD Toolbox           |
|  \\    /   O peration     | Version:  2.3.0                                 |
|   \\  /    A nd           | Web:      www.OpenFOAM.org                      |
|    \\/     M anipulation  |                                                 |
\*---------------------------------------------------------------------------*/
FoamFile
{
    version     2.0;
    format      ascii;
    class       volScalarField;
    location    "17000";
    object      p_rgh;
}
// * * * * * * * * * * * * * * * * * * * * * * * * * * * * * * * * * * * * * //

dimensions      [0 2 -2 0 0 0 0];

internalField   nonuniform List<scalar> 
192
(
-1753.38
-1762.35
-1770.9
-1779.84
-1790.26
-1803.36
-1819.83
-1838.61
-1857.78
-1873.51
-1879.14
-1868.88
-1851.41
-1722.5
-1732.27
-1741.53
-1750.93
-1761.39
-1773.99
-1789.26
-1807.79
-1828.89
-1849.76
-1859.39
-1843.06
-1821.6
-1679.1
-1689.82
-1700.13
-1710.42
-1721.3
-1733.75
-1749.31
-1771.42
-1800.98
-1835.03
-1852.32
-1823.56
-1790.07
-1650.56
-1661.55
-1672.31
-1682.82
-1693.14
-1704.04
-1718.82
-1742.85
-1780.2
-1828.05
-1853.08
-1811.66
-1765.77
-1649.37
-1659.09
-1668.8
-1677.91
-1685.94
-1693.63
-1705.37
-1728.41
-1771.13
-1830.54
-1861.6
-1810.18
-1754.05
-1669.28
-1677.21
-1684.89
-1691.26
-1695.55
-1699.11
-1705.86
-1726.6
-1773.01
-1840.43
-1874.87
-1817.63
-1754.04
-1699.77
-1705.74
-1710.68
-1713.41
-1713.46
-1712.8
-1716.79
-1737.44
-1784.95
-1853.14
-1888.29
-1830.48
-1765.85
-1732.74
-1736.31
-1738.13
-1737.87
-1736.52
-1734.92
-1739.52
-1759.37
-1802.8
-1865
-1899.06
-1844.61
-1785.77
-1762.38
-1764.57
-1765.47
-1765.2
-1763.98
-1763.94
-1769.53
-1787.21
-1823.37
-1875.23
-1906.32
-1858.66
-1809.7
-1785.3
-1788.87
-1791.21
-1792.49
-1793.38
-1795.4
-1801.44
-1815.94
-1843.55
-1883.18
-1909.62
-1871.18
-1833.76
-1787.02
-1795.35
-1802.48
-1808.53
-1813.83
-1819.22
-1826.48
-1838.47
-1858.42
-1886.39
-1907.05
-1878.8
-1852.21
-1732.8
-1750.48
-1766.73
-1781.67
-1795.4
-1808.16
-1820.65
-1834.29
-1850.95
-1871.08
-1886.2
-1866.59
-1846.82
-1549.51
-1578.88
-1606.37
-1632.33
-1656.98
-1680.39
-1702.6
-1723.78
-1744.19
-1763.29
-1775
-1759.61
-1151.47
-1185.55
-1218.14
-1249.39
-1279.23
-1307.35
-1333.28
-1356.6
-1376.93
-1393.38
-1401.24
-1390.3
-427.271
-458.034
-489.505
-521.775
-554.933
-588.892
-623.167
-656.549
-686.617
-709.209
-717.229
-704.259
)
;

boundaryField
{
    top
    {
        type            fixedValue;
        value           uniform 0;
    }
    bottom
    {
        type            fixedFluxPressure;
        gradient        uniform 0;
        value           nonuniform List<scalar> 
13
(
-1753.38
-1762.35
-1770.9
-1779.84
-1790.26
-1803.36
-1819.83
-1838.61
-1857.78
-1873.51
-1879.14
-1868.88
-1851.41
)
;
    }
    frontAndBack
    {
        type            empty;
    }
    left_cyc
    {
        type            cyclic;
    }
    right_cyc
    {
        type            cyclic;
    }
    procBoundary0to1
    {
        type            processor;
        value           nonuniform List<scalar> 
16
(
-1831.96
-1801.18
-1762.82
-1733.03
-1718.51
-1717.01
-1727.81
-1750.52
-1779.86
-1810.53
-1834.83
-1831.05
-1739.6
-1739.6
-1372.34
-678.682
)
;
    }
    procBoundary0to3throughleft_cyc
    {
        type            processorCyclic;
        value           nonuniform List<scalar> 
15
(
-1743.54
-1711.65
-1667.76
-1639.39
-1640.02
-1661.87
-1693.82
-1728.25
-1758.99
-1780.53
-1777.44
-1713.6
-1518
-1115.55
-397.193
)
;
    }
}


// ************************************************************************* //
