/*--------------------------------*- C++ -*----------------------------------*\
| =========                 |                                                 |
| \\      /  F ield         | OpenFOAM: The Open Source CFD Toolbox           |
|  \\    /   O peration     | Version:  2.3.0                                 |
|   \\  /    A nd           | Web:      www.OpenFOAM.org                      |
|    \\/     M anipulation  |                                                 |
\*---------------------------------------------------------------------------*/
FoamFile
{
    version     2.0;
    format      ascii;
    class       surfaceScalarField;
    location    "17000";
    object      phi;
}
// * * * * * * * * * * * * * * * * * * * * * * * * * * * * * * * * * * * * * //

dimensions      [0 3 -1 0 0 0 0];

internalField   nonuniform List<scalar> 
356
(
0.308004
0.00241437
0.312985
-0.0049808
0.327073
-0.0140876
0.350155
-0.023082
0.378252
-0.0280972
0.401238
-0.0229858
0.401873
-0.000635067
0.358082
0.0437912
0.249032
0.109049
0.0701839
0.178849
-0.13744
0.207624
-0.294708
0.157268
0.0854693
0.547083
-0.00577099
0.562024
-0.0199218
0.584055
-0.0361192
0.61109
-0.0501163
0.636813
-0.0538205
0.648694
-0.034867
0.626671
0.0213878
0.543207
0.127256
0.370887
0.281369
0.103112
0.446624
-0.202647
0.513383
-0.441033
0.395654
0.225596
0.5783
-0.0203543
0.595882
-0.0375039
0.615587
-0.0558243
0.634615
-0.0691442
0.647174
-0.0663791
0.643167
-0.0308604
0.606758
0.0577969
0.516189
0.217825
0.348106
0.449452
0.0960116
0.698718
-0.188797
0.798192
-0.415079
0.621935
0.365481
0.517241
-0.0334909
0.530028
-0.0502904
0.540952
-0.0667483
0.547293
-0.0754854
0.544621
-0.0637073
0.526102
-0.0123409
0.481747
0.102151
0.398602
0.300971
0.262742
0.585312
0.0715352
0.889925
-0.140242
1.00997
-0.314824
0.796517
0.48252
0.409241
-0.0402523
0.413214
-0.0542638
0.412851
-0.0663858
0.406076
-0.0687097
0.390149
-0.0477809
0.361479
0.0163299
0.315771
0.147858
0.248441
0.368301
0.155964
0.677789
0.0413111
1.00458
-0.080093
1.13137
-0.188929
0.905352
0.566816
0.266863
-0.0390636
0.261525
-0.0489256
0.250939
-0.0557997
0.234011
-0.0517813
0.209743
-0.0235128
0.177511
0.048562
0.137719
0.18765
0.092628
0.413392
0.0478464
0.72257
0.0112305
1.04119
-0.020148
1.16275
-0.0607694
0.945974
0.613217
0.100898
-0.0308561
0.0883074
-0.0363346
0.0708739
-0.0383662
0.0484682
-0.0293757
0.0215808
0.00337462
-0.00787518
0.078018
-0.035809
0.215584
-0.0543365
0.431919
-0.0509236
0.719157
-0.0156565
1.00593
0.0333064
1.11379
0.0572207
0.922059
0.619479
-0.0720255
-0.0182146
-0.0886794
-0.0196807
-0.109298
-0.0177476
-0.133208
-0.00546612
-0.158493
0.0286605
-0.180995
0.100519
-0.193198
0.227788
-0.182796
0.421517
-0.133735
0.670097
-0.0377522
0.909944
0.0766832
0.999354
0.157107
0.841636
0.585803
-0.233364
-0.00411818
-0.251212
-0.0018329
-0.272375
0.003416
-0.29532
0.0174792
-0.316571
0.0499115
-0.329727
0.113676
-0.32426
0.22232
-0.285294
0.382551
-0.196749
0.581552
-0.0543554
0.76755
0.108326
0.836672
0.233785
0.716178
0.515774
-0.365356
0.00913229
-0.382255
0.0150656
-0.401966
0.0231267
-0.422104
0.0376174
-0.437822
0.0656297
-0.440768
0.116621
-0.418437
0.19999
-0.355279
0.319392
-0.237416
0.463689
-0.0650398
0.595173
0.127415
0.644217
0.283545
0.560048
0.417242
-0.44953
0.0201329
-0.463639
0.029175
-0.479793
0.0392802
-0.495187
0.053012
-0.50428
0.0747227
-0.497854
0.110195
-0.462914
0.16505
-0.384707
0.241186
-0.252231
0.331213
-0.0690138
0.411956
0.132731
0.442472
0.301682
0.391098
0.302986
-0.466585
0.0279015
-0.475709
0.038299
-0.485352
0.0489237
-0.493164
0.0608236
-0.494278
0.0758367
-0.480475
0.0963917
-0.440264
0.124839
-0.361018
0.16194
-0.234239
0.204434
-0.0644096
0.242126
0.12134
0.256722
0.279738
0.2327
-0.410464
0.0305322
-0.411117
0.0389517
-0.409596
0.047403
-0.404896
0.0561232
-0.394414
0.0653552
-0.373315
0.0752923
-0.334464
0.0859882
-0.269719
0.0971946
-0.17337
0.108086
-0.0481072
0.116863
0.0884549
0.12016
0.11479
-0.355509
0.0187605
-0.339397
0.0228397
-0.318975
0.0269817
-0.294111
0.0312586
-0.264467
0.0357114
-0.229484
0.040309
-0.1884
0.0449042
-0.140398
0.0491927
-0.0850252
0.0527135
-0.0231192
0.054957
0.0414691
0.055572
0.0544664
-0.343288
-0.325948
-0.304209
-0.277873
-0.246701
-0.21047
-0.169101
-0.122833
-0.0724243
-0.0192705
0.0346621
)
;

boundaryField
{
    top
    {
        type            calculated;
        value           nonuniform List<scalar> 
12
(
0.00569597
0.0055006
0.00524179
0.00492327
0.00453884
0.00407802
0.00353517
0.00292463
0.00230526
0.00180325
0.00163942
0.00192634
)
;
    }
    bottom
    {
        type            calculated;
        value           uniform 0;
    }
    frontAndBack
    {
        type            empty;
        value           nonuniform 0();
    }
    left_cyc
    {
        type            cyclic;
        value           nonuniform 0();
    }
    right_cyc
    {
        type            cyclic;
        value           nonuniform 0();
    }
    procBoundary0to1
    {
        type            processor;
        value           nonuniform List<scalar> 
16
(
-0.380178
-0.581159
-0.554965
-0.431862
-0.273225
-0.10717
0.0509581
0.190784
0.303814
0.382077
0.415938
0.391238
0.191485
0.206365
0.101793
0.0872021
)
;
    }
    procBoundary0to3throughleft_cyc
    {
        type            processorCyclic;
        value           nonuniform List<scalar> 
15
(
-0.310419
-0.538897
-0.563717
-0.504105
-0.402479
-0.268052
-0.109106
0.059384
0.219267
0.352106
0.438529
0.458816
0.407833
0.36728
0.356352
)
;
    }
}


// ************************************************************************* //
