/*--------------------------------*- C++ -*----------------------------------*\
| =========                 |                                                 |
| \\      /  F ield         | OpenFOAM: The Open Source CFD Toolbox           |
|  \\    /   O peration     | Version:  2.3.0                                 |
|   \\  /    A nd           | Web:      www.OpenFOAM.org                      |
|    \\/     M anipulation  |                                                 |
\*---------------------------------------------------------------------------*/
FoamFile
{
    version     2.0;
    format      ascii;
    class       volScalarField;
    location    "17000";
    object      T;
}
// * * * * * * * * * * * * * * * * * * * * * * * * * * * * * * * * * * * * * //

dimensions      [0 0 0 1 0 0 0];

internalField   nonuniform List<scalar> 
192
(
40.0061
40.0648
40.016
39.9131
39.8354
39.8868
40.1501
40.4346
40.8187
41.3311
41.6181
41.1455
40.6609
33.038
33.2236
33.2962
33.303
33.3321
33.5088
33.9256
34.7473
36.1029
37.8952
38.8649
37.2765
35.5855
28.1385
28.4595
28.7076
28.9116
29.124
29.4356
30.0004
31.1843
33.172
35.7845
37.1721
34.8835
32.3949
26.0222
26.3974
26.7403
27.0528
27.3452
27.6705
28.2495
29.4671
31.6292
34.5661
36.1179
33.5524
30.7687
26.0019
26.3382
26.6684
26.9682
27.2164
27.4506
27.894
28.9303
30.9964
33.936
35.4743
32.925
30.1573
26.9192
27.1956
27.4637
27.6825
27.8208
27.9346
28.1859
29.0201
30.9187
33.6853
35.0953
32.7466
30.1379
28.0576
28.2724
28.4558
28.5677
28.5922
28.5987
28.7724
29.525
31.2059
33.5959
34.8195
32.799
30.5294
29.0993
29.2442
29.3414
29.3809
29.3932
29.4059
29.6112
30.2759
31.6413
33.5504
34.5807
32.9233
31.1075
29.9119
30.024
30.1059
30.1623
30.2008
30.2789
30.5146
31.0733
32.1114
33.5368
34.3702
33.0808
31.722
30.4682
30.6176
30.7421
30.8479
30.9529
31.0948
31.3413
31.7911
32.5394
33.5389
34.1782
33.236
32.2769
30.5044
30.7599
30.9937
31.2111
31.4222
31.6466
31.9206
32.2979
32.8322
33.5018
33.9619
33.3193
32.6662
29.4212
29.8612
30.2763
30.6723
31.0543
31.4289
31.8079
32.2111
32.6589
33.1355
33.4551
33.0261
32.5423
26.0979
26.7507
27.3743
27.9779
28.5676
29.1456
29.7096
30.2539
30.7663
31.2112
31.454
31.1205
19.2049
19.9139
20.6005
21.2707
21.9275
22.5699
23.191
23.7768
24.3011
24.7129
24.8921
24.6293
7.71399
8.10623
8.4946
8.88054
9.2634
9.6391
9.99911
10.3295
10.61
10.8119
10.8872
10.7709
)
;

boundaryField
{
    top
    {
        type            fixedValue;
        value           uniform 0;
    }
    bottom
    {
        type            fixedValue;
        value           uniform 43.8;
    }
    frontAndBack
    {
        type            empty;
    }
    left_cyc
    {
        type            cyclic;
    }
    right_cyc
    {
        type            cyclic;
    }
    procBoundary0to1
    {
        type            processor;
        value           nonuniform List<scalar> 
16
(
40.3094
34.4236
30.6771
28.9369
28.4668
28.6273
29.1752
29.9839
30.8459
31.6262
32.1802
32.1048
30.6431
30.6431
24.1736
10.5421
)
;
    }
    procBoundary0to3throughleft_cyc
    {
        type            processorCyclic;
        value           nonuniform List<scalar> 
15
(
39.8407
32.7031
27.7357
25.6143
25.6749
26.6632
27.8473
28.9309
29.7718
30.2928
30.2237
28.9504
25.4084
18.4683
7.31725
)
;
    }
}


// ************************************************************************* //
