/*--------------------------------*- C++ -*----------------------------------*\
| =========                 |                                                 |
| \\      /  F ield         | OpenFOAM: The Open Source CFD Toolbox           |
|  \\    /   O peration     | Version:  2.3.0                                 |
|   \\  /    A nd           | Web:      www.OpenFOAM.org                      |
|    \\/     M anipulation  |                                                 |
\*---------------------------------------------------------------------------*/
FoamFile
{
    version     2.0;
    format      ascii;
    class       volVectorField;
    location    "17000";
    object      U;
}
// * * * * * * * * * * * * * * * * * * * * * * * * * * * * * * * * * * * * * //

dimensions      [0 1 -1 0 0 0 0];

internalField   nonuniform List<vector> 
192
(
(46.1654 0 0.55921)
(46.2904 0 -0.0237979)
(47.6901 0 -0.799751)
(50.5433 0 -1.66161)
(54.6199 0 -2.32101)
(58.9187 0 -2.28042)
(61.3791 0 -0.934934)
(58.9208 0 2.04151)
(48.0092 0 6.49838)
(25.9311 0 11.2962)
(-5.48735 0 13.3072)
(-34.8157 0 9.80418)
(-52.9602 0 4.88053)
(81.2317 0 0.0923223)
(82.9251 0 -1.62577)
(85.7179 0 -3.67673)
(89.5345 0 -5.60018)
(93.8159 0 -6.47898)
(97.2171 0 -4.8937)
(97.3344 0 0.788627)
(90.4842 0 11.8265)
(72.1957 0 27.9445)
(38.7077 0 45.141)
(-8.20312 0 52.1413)
(-51.9843 0 39.8402)
(-80.0523 0 22.125)
(85.5403 0 -1.93351)
(87.9574 0 -4.42362)
(90.8129 0 -7.18126)
(93.8653 0 -9.39535)
(96.5153 0 -9.57482)
(97.6186 0 -5.47017)
(95.2679 0 5.63564)
(86.6387 0 26.1112)
(68.0961 0 55.8377)
(36.281 0 87.751)
(-7.66874 0 100.545)
(-48.7275 0 77.9181)
(-75.7708 0 45.0691)
(76.595 0 -4.18529)
(78.5753 0 -6.83017)
(80.4283 0 -9.54557)
(81.8519 0 -11.2911)
(82.3307 0 -10.2363)
(81.0383 0 -3.63911)
(76.7316 0 11.8816)
(67.7139 0 39.388)
(51.8342 0 79.048)
(27.094 0 121.72)
(-5.63512 0 138.649)
(-36.4635 0 108.592)
(-58.0711 0 64.6714)
(60.9571 0 -5.79521)
(61.8102 0 -8.17543)
(62.1488 0 -10.3808)
(61.7037 0 -11.242)
(60.117 0 -8.75595)
(56.9122 0 0.0581237)
(51.4849 0 18.8582)
(43.191 0 50.9323)
(31.343 0 96.4434)
(15.6145 0 144.941)
(-3.08963 0 163.912)
(-21.1438 0 130.123)
(-35.6469 0 80.0382)
(40.2521 0 -6.24462)
(39.8034 0 -8.06366)
(38.6521 0 -9.49537)
(36.6296 0 -9.33714)
(33.5716 0 -5.55243)
(29.338 0 4.86075)
(23.8852 0 25.5183)
(17.3944 0 59.5662)
(10.4061 0 106.823)
(4.14066 0 156.203)
(-0.57129 0 175.195)
(-5.77333 0 141.309)
(-12.5672 0 89.975)
(15.9032 0 -5.46927)
(14.3663 0 -6.61285)
(12.1273 0 -7.2521)
(9.13477 0 -6.21476)
(5.39858 0 -1.51993)
(1.06591 0 9.69484)
(-3.44727 0 30.7835)
(-7.31232 0 64.4574)
(-8.96344 0 109.896)
(-6.10681 0 156.003)
(1.62115 0 173.441)
(8.04866 0 142.364)
(9.00264 0 93.9652)
(-9.70806 0 -3.79278)
(-11.8983 0 -4.29968)
(-14.7053 0 -4.27529)
(-18.088 0 -2.61414)
(-21.8839 0 2.52196)
(-25.6741 0 13.713)
(-28.6339 0 33.8994)
(-29.3213 0 65.1105)
(-25.4657 0 105.811)
(-14.4545 0 145.695)
(3.32112 0 160.601)
(19.3852 0 134.186)
(27.6278 0 91.8505)
(-33.8064 0 -1.68454)
(-36.2046 0 -1.61673)
(-39.163 0 -1.05581)
(-42.5573 0 0.975076)
(-46.0483 0 6.08045)
(-48.9334 0 16.4468)
(-49.9828 0 34.4289)
(-47.2674 0 61.3232)
(-38.2411 0 95.189)
(-20.6071 0 127.256)
(4.47114 0 139.169)
(27.7627 0 118.272)
(42.2597 0 83.8623)
(-53.6713 0 0.439519)
(-55.9429 0 1.06291)
(-58.7426 0 2.08156)
(-61.8578 0 4.27113)
(-64.7839 0 8.89556)
(-66.5676 0 17.6499)
(-65.6479 0 32.2461)
(-59.8341 0 53.4086)
(-46.648 0 79.2452)
(-24.4262 0 102.998)
(5.06898 0 111.824)
(32.9226 0 96.5607)
(52.0348 0 70.8344)
(-66.486 0 2.31214)
(-68.3856 0 3.47551)
(-70.7197 0 4.88497)
(-73.2316 0 7.05446)
(-75.3345 0 10.8436)
(-75.9479 0 17.3925)
(-73.3808 0 27.8103)
(-65.4261 0 42.4747)
(-49.8676 0 59.9475)
(-25.6664 0 75.6798)
(5.10839 0 81.5775)
(34.5001 0 71.5634)
(55.8966 0 54.414)
(-69.3562 0 3.60288)
(-70.6356 0 5.13224)
(-72.0942 0 6.71277)
(-73.5276 0 8.60671)
(-74.4319 0 11.2689)
(-73.8463 0 15.3035)
(-70.2605 0 21.2986)
(-61.7377 0 29.4548)
(-46.4336 0 39.001)
(-23.6973 0 47.5291)
(4.52401 0 50.8001)
(31.6718 0 45.3708)
(52.1236 0 36.0558)
(-61.4518 0 5.46103)
(-61.6978 0 7.20544)
(-61.648 0 9.00086)
(-61.241 0 10.8929)
(-60.233 0 12.9625)
(-58.0825 0 15.3123)
(-53.8753 0 18.035)
(-46.3852 0 21.1424)
(-34.3999 0 24.432)
(-17.4638 0 27.282)
(3.18393 0 28.4245)
(23.1499 0 26.5943)
(-54.373 0 3.11029)
(-52.2796 0 3.92072)
(-49.542 0 4.71434)
(-46.1544 0 5.51243)
(-42.0825 0 6.32048)
(-37.2586 0 7.12165)
(-31.5804 0 7.8724)
(-24.921 0 8.50385)
(-17.1631 0 8.9391)
(-8.3016 0 9.14015)
(1.40869 0 9.16322)
(10.9753 0 9.10085)
(-52.6315 0 2.93079)
(-50.3548 0 3.11614)
(-47.4297 0 3.28674)
(-43.8326 0 3.44696)
(-39.529 0 3.59878)
(-34.481 0 3.74079)
(-28.6605 0 3.86788)
(-22.072 0 3.97186)
(-14.7826 0 4.0444)
(-6.95316 0 4.08222)
(1.16748 0 4.0934)
(9.23793 0 4.07589)
)
;

boundaryField
{
    top
    {
        type            directionMixed;
        refValue        uniform (0 0 0);
        refGradient     uniform (0 0 0);
        valueFraction   uniform (0 0 0 0 0 1);
        value           nonuniform List<vector> 
12
(
(-52.6315 0 0)
(-50.3548 0 0)
(-47.4297 0 0)
(-43.8326 0 0)
(-39.529 0 0)
(-34.481 0 0)
(-28.6605 0 0)
(-22.072 0 0)
(-14.7826 0 0)
(-6.95316 0 0)
(1.16748 0 0)
(9.23793 0 0)
)
;
    }
    bottom
    {
        type            fixedValue;
        value           uniform (0 0 0);
    }
    frontAndBack
    {
        type            empty;
    }
    left_cyc
    {
        type            cyclic;
    }
    right_cyc
    {
        type            cyclic;
    }
    procBoundary0to1
    {
        type            processor;
        value           nonuniform List<vector> 
16
(
(-60.6682 0 0.849148)
(-94.0235 0 7.48329)
(-90.5712 0 18.0863)
(-71.418 0 28.6581)
(-46.2878 0 38.5399)
(-19.5694 0 46.5753)
(6.28169 0 51.8005)
(29.5749 0 53.5923)
(48.8196 0 51.6022)
(62.4974 0 45.9248)
(68.7751 0 37.4052)
(65.1229 0 26.7013)
(38.6215 0 23.4701)
(38.6215 0 23.4701)
(19.5223 0 8.83454)
(16.931 0 4.02971)
)
;
    }
    procBoundary0to3throughleft_cyc
    {
        type            processorCyclic;
        value           nonuniform List<vector> 
15
(
(46.9891 0 0.959856)
(80.4652 0 1.33322)
(83.585 0 -0.0508903)
(74.6364 0 -2.11162)
(59.7837 0 -3.85007)
(40.1605 0 -4.69072)
(16.8274 0 -4.45692)
(-8.10651 0 -3.34237)
(-31.9749 0 -1.76818)
(-51.967 0 -0.174248)
(-65.0859 0 1.17407)
(-68.3058 0 2.05525)
(-60.9136 0 3.77589)
(-55.8094 0 2.26897)
(-54.2729 0 2.72799)
)
;
    }
}


// ************************************************************************* //
