/*--------------------------------*- C++ -*----------------------------------*\
| =========                 |                                                 |
| \\      /  F ield         | OpenFOAM: The Open Source CFD Toolbox           |
|  \\    /   O peration     | Version:  2.3.0                                 |
|   \\  /    A nd           | Web:      www.OpenFOAM.org                      |
|    \\/     M anipulation  |                                                 |
\*---------------------------------------------------------------------------*/
FoamFile
{
    version     2.0;
    format      ascii;
    class       volScalarField;
    location    "17000";
    object      p;
}
// * * * * * * * * * * * * * * * * * * * * * * * * * * * * * * * * * * * * * //

dimensions      [0 2 -2 0 0 0 0];

internalField   nonuniform List<scalar> 
191
(
-1740.25
-1722.68
-1707.71
-1695.59
-1685.56
-1676.64
-1667.96
-1658.94
-1649.18
-1638.51
-1626.76
-1613.7
-1599.03
-1566.38
-1553.48
-1541.36
-1530.32
-1520.38
-1511.25
-1502.59
-1494.08
-1485.44
-1476.41
-1466.8
-1456.48
-1445.25
-1414.26
-1405.35
-1396.28
-1387.5
-1379.2
-1371.4
-1364.06
-1357.11
-1350.45
-1343.95
-1337.46
-1330.93
-1324.32
-1272.85
-1267.86
-1262.21
-1256.51
-1250.9
-1245.45
-1240.26
-1235.38
-1230.86
-1226.7
-1222.84
-1219.25
-1215.85
-1136.52
-1134.4
-1131.64
-1128.73
-1125.79
-1122.85
-1119.96
-1117.21
-1114.66
-1112.37
-1110.32
-1108.42
-1106.51
-1001.66
-1001.6
-1001.04
-1000.28
-999.448
-998.548
-997.587
-996.6
-995.641
-994.746
-993.903
-993.029
-991.959
-866.134
-867.613
-868.641
-869.417
-870.066
-870.634
-871.11
-871.479
-871.744
-871.92
-872
-871.931
-871.609
-728.576
-731.315
-733.576
-735.506
-737.214
-738.793
-740.269
-741.627
-742.852
-743.936
-744.868
-745.616
-746.135
-588.201
-592.062
-595.44
-598.383
-600.996
-603.386
-605.622
-607.74
-609.755
-611.68
-613.519
-615.258
-444.828
-449.749
-454.232
-458.203
-461.737
-464.95
-467.948
-470.824
-473.65
-476.502
-479.44
-482.477
-298.809
-304.891
-310.614
-315.795
-320.46
-324.724
-328.73
-332.619
-336.527
-340.617
-345.054
-349.88
-152.705
-160.274
-167.552
-174.273
-180.436
-186.17
-191.659
-197.1
-202.693
-208.687
-215.328
-222.64
1.26152
-8.06588
-18.0806
-27.9784
-37.3875
-46.2334
-54.5966
-62.6214
-70.4786
-78.3833
-86.8607
-96.5791
-107.169
108.987
96.5055
83.7275
71.602
60.3823
49.933
39.9867
30.2847
20.6734
11.2652
2.33171
-5.55923
-11.6849
9.82866
21.5856
32.8758
42.9141
51.5862
59.0331
65.4393
70.9004
75.3732
78.9209
82.4456
85.9784
86.3431
)
;

boundaryField
{
    top
    {
        type            calculated;
        value           nonuniform List<scalar> 
13
(
-9.81
-9.81
-9.81
-9.81
-9.81
-9.81
-9.81
-9.81
-9.81
-9.81
-9.81
-9.81
-9.81
)
;
    }
    bottom
    {
        type            calculated;
        value           nonuniform List<scalar> 
13
(
-1831.96
-1813.73
-1798.33
-1786.23
-1776.42
-1767.71
-1759.08
-1749.82
-1739.63
-1728.4
-1715.95
-1702.05
-1686.34
)
;
    }
    frontAndBack
    {
        type            empty;
    }
    left_cyc
    {
        type            cyclic;
    }
    right_cyc
    {
        type            cyclic;
    }
    procBoundary1to0
    {
        type            processor;
        value           nonuniform List<scalar> 
16
(
-1758.91
-1578.85
-1421.9
-1276.33
-1137.32
-1000.75
-863.977
-725.348
-584.043
-439.831
-292.887
-145.499
-145.499
8.5013
119.12
-0.598879
)
;
    }
    procBoundary1to2
    {
        type            processor;
        value           nonuniform List<scalar> 
16
(
-1582.2
-1432.84
-1317.64
-1212.59
-1104.37
-990.46
-870.891
-746.391
-616.895
-616.895
-485.645
-355.164
-230.682
-117.736
-15.1658
81.9035
)
;
    }
}


// ************************************************************************* //
