/*--------------------------------*- C++ -*----------------------------------*\
| =========                 |                                                 |
| \\      /  F ield         | OpenFOAM: The Open Source CFD Toolbox           |
|  \\    /   O peration     | Version:  2.3.0                                 |
|   \\  /    A nd           | Web:      www.OpenFOAM.org                      |
|    \\/     M anipulation  |                                                 |
\*---------------------------------------------------------------------------*/
FoamFile
{
    version     2.0;
    format      ascii;
    class       surfaceScalarField;
    location    "17000";
    object      phi;
}
// * * * * * * * * * * * * * * * * * * * * * * * * * * * * * * * * * * * * * //

dimensions      [0 3 -1 0 0 0 0];

internalField   nonuniform List<scalar> 
353
(
-0.406422
0.0262443
-0.395925
-0.0104971
-0.369435
-0.02649
-0.342084
-0.0273511
-0.321734
-0.0203495
-0.310786
-0.0109484
-0.308524
-0.00226188
-0.312962
0.00443757
-0.322004
0.00904196
-0.334269
0.0122658
-0.34913
0.0148606
-0.366601
0.0174715
0.0206931
-0.640617
0.0857021
-0.648245
-0.00286917
-0.629651
-0.0450839
-0.602307
-0.0546952
-0.576412
-0.0462441
-0.556616
-0.0307446
-0.543999
-0.0148788
-0.53772
-0.0018417
-0.536039
0.0073605
-0.536828
0.0130552
-0.537987
0.0160194
-0.537435
0.0169201
0.0161835
-0.624507
0.155245
-0.647651
0.0202744
-0.644594
-0.0481406
-0.62894
-0.0703493
-0.609164
-0.0660201
-0.589914
-0.0499948
-0.57324
-0.0315524
-0.559546
-0.0155359
-0.548233
-0.00395298
-0.537836
0.00265877
-0.526251
0.00443421
-0.510816
0.00148509
-0.00628679
-0.500419
0.223801
-0.534824
0.0546798
-0.547138
-0.0358266
-0.546183
-0.0713046
-0.537895
-0.0743078
-0.526074
-0.0618158
-0.512999
-0.0446271
-0.49985
-0.028685
-0.486939
-0.0168639
-0.473803
-0.0104775
-0.459127
-0.0102422
-0.440758
-0.0168838
-0.0312491
-0.333086
0.283662
-0.372801
0.0943946
-0.396905
-0.0117225
-0.409486
-0.0587237
-0.413863
-0.0699312
-0.412558
-0.0631205
-0.407479
-0.0497065
-0.400007
-0.0361563
-0.391005
-0.0258664
-0.380747
-0.0207355
-0.368783
-0.0222063
-0.353819
-0.0318474
-0.0513689
-0.151388
0.32788
-0.189114
0.13212
-0.218887
0.0180513
-0.240704
-0.0369072
-0.255431
-0.055204
-0.264151
-0.0544004
-0.267986
-0.0458717
-0.268024
-0.0361185
-0.265234
-0.0286564
-0.260336
-0.0256332
-0.253603
-0.0289398
-0.244642
-0.0408079
-0.0637612
0.027528
0.351311
-0.00195509
0.161603
-0.0311007
0.047197
-0.056716
-0.0112919
-0.0775352
-0.0343848
-0.0933586
-0.038577
-0.104459
-0.0347713
-0.111387
-0.0291905
-0.114895
-0.0251482
-0.115827
-0.0247012
-0.114902
-0.0298653
-0.112436
-0.0432738
-0.0680748
0.191387
0.350707
0.174248
0.178743
0.149993
0.0714515
0.124731
0.0139701
0.101709
-0.0113632
0.0823115
-0.0191791
0.0669478
-0.0194076
0.0555102
-0.0177529
0.0475028
-0.0171408
0.0421111
-0.0193096
0.0383895
-0.0261437
0.0355434
-0.0404277
0.329328
0.325192
0.326829
0.181242
0.309861
0.0884191
0.287386
0.0364455
0.264682
0.0113411
0.244441
0.00106188
0.227751
-0.00271832
0.214795
-0.00479647
0.20516
-0.00750575
0.197938
-0.0120874
0.191907
-0.0201133
-0.0343592
0.429711
0.277558
0.44185
0.169104
0.433354
0.0969151
0.415327
0.0544722
0.394843
0.0318254
0.375807
0.0200981
0.359998
0.0130904
0.347884
0.00731716
0.339073
0.00130543
0.332411
-0.00542527
0.326195
-0.0138972
-0.0267961
0.47839
0.215106
0.502274
0.14522
0.502239
0.0969492
0.490154
0.0665578
0.473965
0.0480145
0.4582
0.0358625
0.444988
0.0263026
0.434989
0.0173162
0.427909
0.00838533
0.422478
5.82638e-06
0.416544
-0.0079635
-0.0180826
0.456719
0.149626
0.486956
0.114982
0.494726
0.0891788
0.490628
0.0706561
0.481761
0.0568818
0.472069
0.0455547
0.463302
0.0350693
0.455977
0.0246407
0.449953
0.0144095
0.444339
0.00562037
0.437382
-0.00100714
-0.00761468
0.292859
0.104991
0.348682
0.0938026
0.380997
0.0826676
0.39799
0.0721855
0.406172
0.0624741
0.409636
0.0534181
0.410391
0.0447994
0.40909
0.03637
0.405823
0.0279078
0.400811
0.0194216
0.394724
0.011708
0.388188
0.00552879
3.06641e-05
0.154986
0.051798
0.200805
0.0479833
0.239926
0.0435469
0.273196
0.0389157
0.301325
0.034345
0.324802
0.0299409
0.343895
0.0257069
0.358678
0.0215861
0.369076
0.0175102
0.374966
0.0135321
0.37667
0.010004
0.37511
0.00708821
0.00432028
0.136507
0.181366
0.221193
0.255871
0.285542
0.310446
0.330817
0.346828
0.35859
0.366274
0.370376
0.371551
)
;

boundaryField
{
    top
    {
        type            calculated;
        value           nonuniform List<scalar> 
13
(
0.002493
0.00312408
0.00371985
0.00423801
0.00467391
0.00503645
0.0053358
0.00557551
0.00574856
0.00584795
0.00590222
0.00591325
0.00578897
)
;
    }
    bottom
    {
        type            calculated;
        value           uniform 0;
    }
    frontAndBack
    {
        type            empty;
        value           nonuniform 0();
    }
    left_cyc
    {
        type            cyclic;
        value           nonuniform 0();
    }
    right_cyc
    {
        type            cyclic;
        value           nonuniform 0();
    }
    procBoundary1to0
    {
        type            processor;
        value           nonuniform List<scalar> 
16
(
0.380178
0.581159
0.554965
0.431862
0.273225
0.10717
-0.0509581
-0.190784
-0.303814
-0.382077
-0.415938
-0.391238
-0.191485
-0.206365
-0.101793
-0.0872021
)
;
    }
    procBoundary1to2
    {
        type            processor;
        value           nonuniform List<scalar> 
16
(
-0.387295
-0.532926
-0.488346
-0.415796
-0.333699
-0.23225
-0.108122
0.0331015
-0.0656328
0.185839
0.318632
0.407831
0.426914
0.380542
0.37082
0.370082
)
;
    }
}


// ************************************************************************* //
