/*--------------------------------*- C++ -*----------------------------------*\
| =========                 |                                                 |
| \\      /  F ield         | OpenFOAM: The Open Source CFD Toolbox           |
|  \\    /   O peration     | Version:  2.3.0                                 |
|   \\  /    A nd           | Web:      www.OpenFOAM.org                      |
|    \\/     M anipulation  |                                                 |
\*---------------------------------------------------------------------------*/
FoamFile
{
    version     2.0;
    format      ascii;
    class       volScalarField;
    location    "17000";
    object      T;
}
// * * * * * * * * * * * * * * * * * * * * * * * * * * * * * * * * * * * * * //

dimensions      [0 0 0 1 0 0 0];

internalField   nonuniform List<scalar> 
191
(
40.3094
40.0237
39.8368
39.8421
39.9402
40.0335
40.052
39.9488
39.7596
39.5136
39.2108
38.8404
38.3832
34.4236
33.7694
33.4028
33.2897
33.2807
33.2596
33.1521
32.9243
32.5281
32.0095
31.3935
30.6839
29.8717
30.6771
29.7199
29.2842
29.0214
28.8185
28.6023
28.3294
27.9781
27.545
26.9894
26.3253
25.5703
24.726
28.9369
27.9704
27.5312
27.2297
26.9321
26.6085
26.2534
25.8658
25.4459
24.9944
24.5091
23.994
23.4562
28.4668
27.688
27.3535
27.1301
26.8638
26.5502
26.2151
25.8804
25.5582
25.2524
24.9607
24.6729
24.3659
28.6273
28.0535
27.8889
27.7815
27.6149
27.3751
27.1004
26.8289
26.5841
26.3745
26.1951
26.0265
25.8306
29.1752
28.6661
28.602
28.5933
28.541
28.4017
28.2039
27.9881
27.7862
27.6153
27.4755
27.3476
27.1874
29.9839
29.5043
29.3912
29.3887
29.3753
29.3179
29.2034
29.0486
28.8791
28.7153
28.5654
28.4177
28.2313
30.8459
30.4127
30.2453
30.1911
30.149
30.0856
29.9951
29.8738
29.7267
29.5606
29.3777
29.1669
31.6262
31.2527
31.0493
30.9254
30.823
30.7128
30.5803
30.4225
30.2385
30.0257
29.7757
29.4707
32.1802
31.8402
31.5862
31.3684
31.1563
30.9338
30.693
30.4293
30.139
29.8178
29.4439
28.9985
32.1048
31.7088
31.3309
30.9534
30.5662
30.1635
29.74
29.2896
28.8065
28.2883
27.7394
27.1206
30.6431
30.1144
29.5596
28.988
28.404
27.8083
27.1975
26.564
25.8984
25.1947
24.4579
23.7063
22.9557
24.1736
23.6235
23.0217
22.3902
21.7406
21.0776
20.4009
19.7062
18.9869
18.2398
17.4736
16.7056
15.9462
10.5421
10.2429
9.90022
9.53273
9.1528
8.76753
8.37979
7.98936
7.59457
7.19594
6.80059
6.41617
6.04214
)
;

boundaryField
{
    top
    {
        type            fixedValue;
        value           uniform 0;
    }
    bottom
    {
        type            fixedValue;
        value           uniform 43.8;
    }
    frontAndBack
    {
        type            empty;
    }
    left_cyc
    {
        type            cyclic;
    }
    right_cyc
    {
        type            cyclic;
    }
    procBoundary1to0
    {
        type            processor;
        value           nonuniform List<scalar> 
16
(
40.6609
35.5855
32.3949
30.7687
30.1573
30.1379
30.5294
31.1075
31.722
32.2769
32.6662
32.5423
32.5423
31.1205
24.6293
10.7709
)
;
    }
    procBoundary1to2
    {
        type            processor;
        value           nonuniform List<scalar> 
16
(
37.8129
28.9333
23.7957
22.8742
23.9937
25.5438
26.9194
27.9268
28.8928
28.8928
29.0733
28.4428
26.3992
22.1359
15.2309
5.68089
)
;
    }
}


// ************************************************************************* //
