/*--------------------------------*- C++ -*----------------------------------*\
| =========                 |                                                 |
| \\      /  F ield         | OpenFOAM: The Open Source CFD Toolbox           |
|  \\    /   O peration     | Version:  2.3.0                                 |
|   \\  /    A nd           | Web:      www.OpenFOAM.org                      |
|    \\/     M anipulation  |                                                 |
\*---------------------------------------------------------------------------*/
FoamFile
{
    version     2.0;
    format      ascii;
    class       volScalarField;
    location    "22000";
    object      p_rgh;
}
// * * * * * * * * * * * * * * * * * * * * * * * * * * * * * * * * * * * * * //

dimensions      [0 2 -2 0 0 0 0];

internalField   nonuniform List<scalar> 
191
(
-1668.05
-1646.5
-1619.97
-1586.19
-1541.51
-1481.77
-1411.5
-1331.19
-1237.4
-1174.63
-1191.43
-1274.13
-1364.81
-1629.88
-1608.26
-1582.71
-1551.94
-1514.75
-1472.76
-1428.44
-1394.88
-1395.09
-1392.32
-1393.77
-1392.93
-1404.53
-1587.51
-1569.1
-1549.37
-1528.36
-1498.39
-1463.47
-1423.93
-1370.57
-1347.82
-1338.82
-1341.45
-1353.99
-1389.7
-1575.76
-1561.76
-1545.02
-1523.78
-1486.07
-1431.82
-1377.99
-1337.04
-1304.3
-1285.03
-1290.28
-1316.2
-1352.5
-1594.35
-1581.14
-1562.04
-1534.71
-1491.6
-1427.2
-1345.11
-1287.65
-1246.99
-1223.79
-1229.99
-1261.41
-1628.29
-1614.2
-1591.4
-1556.59
-1504.81
-1430.99
-1333.95
-1257.77
-1199.86
-1167.92
-1176.27
-1219.78
-1665.53
-1649.81
-1622.94
-1580.84
-1518.92
-1434.89
-1330.6
-1233.35
-1152.96
-1109.77
-1120.92
-1180.82
-1697.79
-1679.21
-1647.59
-1598.38
-1526.16
-1432.33
-1327.13
-1209.45
-1104.5
-1047.95
-1062.47
-1141.89
-1732.67
-1718.39
-1694.88
-1657.63
-1602
-1521.2
-1419.08
-1314.76
-1177.62
-1049.1
-978.755
-997.034
-1096.21
-1740.49
-1719.86
-1689.12
-1644.55
-1582.03
-1494.22
-1387.61
-1283.72
-1127.85
-979.681
-897.971
-919.395
-1033.24
-1711.83
-1683.07
-1643.92
-1591.89
-1523.44
-1430.59
-1315.01
-1208.15
-1046.23
-890.179
-802.418
-825.809
-944.642
-1609.2
-1572.46
-1525.78
-1466.05
-1387.75
-1291.02
-1180.87
-1075.69
-921.772
-777.577
-691.749
-715.293
-828.355
-1372.78
-1331.07
-1280
-1216.49
-1134.79
-1043.2
-965.833
-882.518
-764.644
-649.876
-576.328
-596.979
-691.094
-944.944
-901.114
-852.711
-803.536
-754.634
-706.727
-664.16
-607.901
-529.4
-450.174
-397.022
-412.226
-479.114
-284.635
-272.463
-269.569
-279.597
-306.879
-353.042
-408.389
-457.796
-486.424
-495.955
-493.119
-494.84
-494.129
)
;

boundaryField
{
    top
    {
        type            fixedValue;
        value           uniform 0;
    }
    bottom
    {
        type            fixedFluxPressure;
        gradient        uniform 0;
        value           nonuniform List<scalar> 
13
(
-1668.05
-1646.5
-1619.97
-1586.19
-1541.51
-1481.77
-1411.5
-1331.19
-1237.4
-1174.63
-1191.43
-1274.13
-1364.81
)
;
    }
    frontAndBack
    {
        type            empty;
    }
    left_cyc
    {
        type            cyclic;
    }
    right_cyc
    {
        type            cyclic;
    }
    procBoundary2to1
    {
        type            processor;
        value           nonuniform List<scalar> 
16
(
-1686.21
-1648.73
-1604.81
-1588.34
-1604.17
-1637.02
-1674.24
-1708
-1708
-1741.7
-1754.6
-1733.23
-1639.08
-1409.04
-985.565
-304.075
)
;
    }
    procBoundary2to3
    {
        type            processor;
        value           nonuniform List<scalar> 
16
(
-1439.58
-1446.48
-1441.47
-1395.06
-1308.71
-1308.71
-1286.65
-1271.1
-1256.83
-1234.89
-1189.32
-1109.98
-983.237
-810.614
-560.177
-477.423
)
;
    }
}


// ************************************************************************* //
