/*--------------------------------*- C++ -*----------------------------------*\
| =========                 |                                                 |
| \\      /  F ield         | OpenFOAM: The Open Source CFD Toolbox           |
|  \\    /   O peration     | Version:  2.3.0                                 |
|   \\  /    A nd           | Web:      www.OpenFOAM.org                      |
|    \\/     M anipulation  |                                                 |
\*---------------------------------------------------------------------------*/
FoamFile
{
    version     2.0;
    format      ascii;
    class       volVectorField;
    location    "22000";
    object      U;
}
// * * * * * * * * * * * * * * * * * * * * * * * * * * * * * * * * * * * * * //

dimensions      [0 1 -1 0 0 0 0];

internalField   nonuniform List<vector> 
191
(
(-59.8704 0 3.48174)
(-64.0637 0 4.73671)
(-69.2006 0 6.26223)
(-75.0896 0 7.29286)
(-79.763 0 5.60364)
(-78.0916 0 -0.683983)
(-67.7771 0 -9.5494)
(-50.7965 0 -18.4395)
(-29.0471 0 -24.6173)
(-6.86965 0 -25.7146)
(15.3626 0 -25.5387)
(37.5082 0 -22.9307)
(58.0913 0 -15.0819)
(-79.4095 0 3.96283)
(-77.1436 0 4.29011)
(-73.1327 0 4.13675)
(-66.9263 0 2.20958)
(-57.7486 0 -4.21149)
(-45.5269 0 -15.1269)
(-32.2427 0 -22.2493)
(-21.0247 0 -24.2978)
(-11.9574 0 -25.9983)
(-2.95203 0 -26.8651)
(6.24006 0 -26.6707)
(15.2298 0 -25.4316)
(24.7774 0 -23.7322)
(-71.2016 0 -0.105276)
(-65.2991 0 -1.73444)
(-57.1726 0 -4.04132)
(-47.1799 0 -7.56893)
(-35.9689 0 -13.5879)
(-28.4923 0 -22.4674)
(-22.5105 0 -29.494)
(-16.145 0 -33.2276)
(-9.26232 0 -35.1112)
(-2.26446 0 -35.8914)
(4.78631 0 -35.727)
(11.7658 0 -34.5858)
(18.4885 0 -32.1652)
(-60.1562 0 -5.56822)
(-54.0419 0 -9.16427)
(-45.9077 0 -13.3784)
(-36.3864 0 -17.7992)
(-26.1813 0 -22.4603)
(-20.3595 0 -28.3674)
(-16.183 0 -34.4072)
(-11.8279 0 -38.353)
(-6.93402 0 -40.8263)
(-1.71697 0 -41.9633)
(3.59706 0 -41.7065)
(8.70834 0 -40.0713)
(13.3924 0 -37.1069)
(-48.2838 0 -10.5217)
(-43.3648 0 -15.8917)
(-36.7181 0 -21.8367)
(-28.837 0 -26.952)
(-20.1973 0 -29.9002)
(-14.2778 0 -33.0048)
(-11.0289 0 -38.2555)
(-7.99246 0 -42.3518)
(-4.68419 0 -45.111)
(-1.17022 0 -46.4024)
(2.41871 0 -46.1048)
(5.86199 0 -44.2517)
(-33.74 0 -14.0903)
(-30.579 0 -20.8519)
(-26.1146 0 -28.2876)
(-20.531 0 -34.3988)
(-14.1412 0 -36.862)
(-8.70415 0 -37.4588)
(-6.50306 0 -40.9983)
(-4.64379 0 -44.8073)
(-2.73467 0 -47.7132)
(-0.693353 0 -49.1413)
(1.39962 0 -48.8063)
(3.39872 0 -46.782)
(-15.8129 0 -15.9281)
(-14.4789 0 -23.5776)
(-12.4015 0 -32.07)
(-9.62071 0 -39.0701)
(-6.17502 0 -41.6947)
(-3.14848 0 -40.4854)
(-2.30757 0 -42.5753)
(-1.67267 0 -46.058)
(-1.03462 0 -49.0181)
(-0.275356 0 -50.535)
(0.522702 0 -50.1743)
(1.24194 0 -48.0442)
(4.7875 0 -16.2307)
(4.47166 0 -24.2282)
(4.1769 0 -33.1508)
(3.7756 0 -40.5437)
(3.64381 0 -43.3136)
(2.7236 0 -41.159)
(1.86435 0 -42.611)
(1.12893 0 -46.0525)
(0.549923 0 -49.1139)
(0.112497 0 -50.7097)
(-0.28562 0 -50.3257)
(-0.777699 0 -48.0872)
(27.3932 0 -9.48556)
(26.1579 0 -15.2634)
(24.4173 0 -22.9597)
(21.8758 0 -31.4276)
(18.2234 0 -38.3248)
(14.2362 0 -40.8079)
(8.66549 0 -38.8367)
(6.11875 0 -40.7822)
(3.99333 0 -44.7327)
(2.18183 0 -48.0233)
(0.507849 0 -49.6995)
(-1.13274 0 -49.2962)
(-2.86906 0 -46.9322)
(47.1409 0 -8.09019)
(45.1881 0 -13.2318)
(42.1884 0 -19.9063)
(37.6489 0 -26.9616)
(31.198 0 -32.397)
(23.6722 0 -34.1589)
(14.1842 0 -33.6831)
(10.5085 0 -37.4373)
(7.18232 0 -42.1528)
(4.03106 0 -45.6719)
(0.947504 0 -47.3875)
(-2.14287 0 -46.9728)
(-5.27761 0 -44.5164)
(60.3721 0 -6.20359)
(57.7624 0 -10.297)
(53.6589 0 -15.5102)
(47.5289 0 -20.7575)
(39.17 0 -24.3641)
(28.9445 0 -24.994)
(19.9509 0 -25.9968)
(15.4326 0 -32.9835)
(10.9833 0 -38.3112)
(6.26333 0 -41.8436)
(1.47451 0 -43.5017)
(-3.37442 0 -43.0942)
(-8.1475 0 -40.6814)
(63.0613 0 -4.05686)
(59.9035 0 -6.75079)
(55.0309 0 -10.0079)
(48.2063 0 -12.5307)
(40.3735 0 -12.9745)
(31.3961 0 -14.6829)
(26.2244 0 -20.5649)
(21.3195 0 -27.8461)
(15.3377 0 -32.9794)
(8.84257 0 -36.206)
(2.08415 0 -37.7007)
(-4.76476 0 -37.3304)
(-11.4291 0 -35.1444)
(56.4142 0 -1.04037)
(54.3861 0 -2.09257)
(51.2381 0 -3.38557)
(46.5166 0 -5.15449)
(41.5724 0 -7.47145)
(37.5242 0 -10.7997)
(33.2145 0 -16.0471)
(27.2021 0 -21.8018)
(19.66 0 -26.0498)
(11.3861 0 -28.7856)
(2.68398 0 -30.057)
(-6.13129 0 -29.7425)
(-14.6975 0 -27.887)
(55.1909 0 -0.551654)
(53.8834 0 -1.16394)
(52.0746 0 -1.82947)
(49.6712 0 -2.70425)
(46.6898 0 -4.1175)
(43.0943 0 -6.54607)
(38.3145 0 -9.93936)
(31.5073 0 -13.5792)
(22.9682 0 -16.4179)
(13.3749 0 -18.3013)
(3.16132 0 -19.1795)
(-7.20408 0 -18.9612)
(-17.2264 0 -17.6785)
(55.2991 0 1.60448)
(54.5194 0 1.21463)
(53.4121 0 0.695079)
(51.9384 0 -0.121681)
(49.9044 0 -1.44806)
(46.8249 0 -3.46289)
(41.9678 0 -6.07133)
(34.8069 0 -8.7418)
(25.6062 0 -10.8963)
(14.9995 0 -12.3807)
(3.55681 0 -13.0824)
(-8.0877 0 -12.9088)
(-19.2732 0 -11.8894)
)
;

boundaryField
{
    top
    {
        type            directionMixed;
        refValue        uniform (0 0 0);
        refGradient     uniform (0 0 0);
        valueFraction   uniform (0 0 0 0 0 1);
        value           nonuniform List<vector> 
13
(
(55.2991 0 0)
(54.5194 0 0)
(53.4121 0 0)
(51.9384 0 0)
(49.9044 0 0)
(46.8249 0 0)
(41.9678 0 0)
(34.8069 0 0)
(25.6062 0 0)
(14.9995 0 0)
(3.55681 0 0)
(-8.0877 0 0)
(-19.2732 0 0)
)
;
    }
    bottom
    {
        type            fixedValue;
        value           uniform (0 0 0);
    }
    frontAndBack
    {
        type            empty;
    }
    left_cyc
    {
        type            cyclic;
    }
    right_cyc
    {
        type            cyclic;
    }
    procBoundary2to1
    {
        type            processor;
        value           nonuniform List<vector> 
16
(
(-56.4634 0 2.61174)
(-80.4757 0 3.58479)
(-75.2408 0 1.00806)
(-64.5263 0 -2.87796)
(-51.7923 0 -6.44963)
(-35.923 0 -8.98843)
(-16.6265 0 -10.2174)
(5.13387 0 -10.2867)
(5.13387 0 -10.2867)
(28.3485 0 -5.71308)
(48.4405 0 -4.64832)
(61.9701 0 -3.408)
(64.9911 0 -2.17241)
(57.7159 0 -0.0931274)
(56.0381 0 0.0381929)
(55.7154 0 1.93145)
)
;
    }
    procBoundary2to3
    {
        type            processor;
        value           nonuniform List<vector> 
16
(
(72.6746 0 -6.06093)
(37.2202 0 -20.6963)
(24.6682 0 -27.3725)
(17.5805 0 -32.4536)
(9.04415 0 -40.9746)
(9.04415 0 -40.9746)
(5.22977 0 -43.4792)
(1.81864 0 -44.8324)
(-1.43383 0 -44.8212)
(-4.7625 0 -43.3382)
(-8.45382 0 -40.4119)
(-12.8136 0 -36.367)
(-17.7946 0 -31.1907)
(-22.7387 0 -24.5871)
(-26.4652 0 -15.4215)
(-29.3972 0 -10.133)
)
;
    }
}


// ************************************************************************* //
