/*--------------------------------*- C++ -*----------------------------------*\
| =========                 |                                                 |
| \\      /  F ield         | OpenFOAM: The Open Source CFD Toolbox           |
|  \\    /   O peration     | Version:  2.3.0                                 |
|   \\  /    A nd           | Web:      www.OpenFOAM.org                      |
|    \\/     M anipulation  |                                                 |
\*---------------------------------------------------------------------------*/
FoamFile
{
    version     2.0;
    format      ascii;
    class       volScalarField;
    location    "5000";
    object      p;
}
// * * * * * * * * * * * * * * * * * * * * * * * * * * * * * * * * * * * * * //

dimensions      [0 2 -2 0 0 0 0];

internalField   nonuniform List<scalar> 
191
(
-1739.42
-1721.61
-1706.45
-1694.19
-1684.09
-1675.15
-1666.52
-1657.58
-1647.94
-1637.41
-1625.83
-1613
-1598.63
-1565.74
-1552.66
-1540.38
-1529.21
-1519.17
-1509.97
-1501.28
-1492.77
-1484.14
-1475.16
-1465.63
-1455.41
-1444.32
-1413.86
-1404.81
-1395.6
-1386.71
-1378.3
-1370.4
-1362.97
-1355.93
-1349.21
-1342.65
-1336.14
-1329.57
-1322.94
-1272.65
-1267.55
-1261.81
-1256.02
-1250.33
-1244.8
-1239.51
-1234.53
-1229.91
-1225.65
-1221.72
-1218.05
-1214.61
-1136.48
-1134.29
-1131.47
-1128.51
-1125.52
-1122.53
-1119.57
-1116.75
-1114.13
-1111.76
-1109.64
-1107.7
-1105.79
-1001.74
-1001.66
-1001.08
-1000.3
-999.455
-998.544
-997.565
-996.555
-995.565
-994.64
-993.775
-992.901
-991.866
-866.335
-867.832
-868.873
-869.666
-870.334
-870.926
-871.426
-871.815
-872.098
-872.291
-872.392
-872.357
-872.088
-728.861
-731.66
-733.974
-735.954
-737.71
-739.339
-740.867
-742.278
-743.553
-744.686
-745.668
-746.47
-747.045
-588.544
-592.502
-595.97
-598.992
-601.68
-604.141
-606.448
-608.635
-610.716
-612.701
-614.596
-616.385
-445.211
-450.26
-454.862
-458.941
-462.572
-465.874
-468.955
-471.906
-474.797
-477.699
-480.674
-483.729
-299.221
-305.455
-311.322
-316.634
-321.416
-325.783
-329.88
-333.844
-337.809
-341.925
-346.352
-351.137
-153.162
-160.908
-168.351
-175.221
-181.511
-187.351
-192.921
-198.416
-204.028
-209.99
-216.546
-223.736
0.991523
-8.51578
-18.708
-28.7726
-38.3313
-47.3062
-55.7784
-63.8934
-71.823
-79.7766
-88.2317
-97.8629
-108.368
108.455
95.6891
82.6496
70.2934
58.8796
48.2731
38.2009
28.3945
18.681
9.15082
0.0523139
-8.1724
-14.8311
6.79375
17.234
27.3828
36.4391
44.2696
51.0015
56.8151
61.8152
65.973
69.3326
72.681
76.257
77.0393
)
;

boundaryField
{
    top
    {
        type            calculated;
        value           nonuniform List<scalar> 
13
(
-9.81
-9.81
-9.81
-9.81
-9.81
-9.81
-9.81
-9.81
-9.81
-9.81
-9.81
-9.81
-9.81
)
;
    }
    bottom
    {
        type            calculated;
        value           nonuniform List<scalar> 
13
(
-1831.05
-1812.59
-1796.99
-1784.74
-1774.87
-1766.16
-1757.61
-1748.47
-1738.43
-1727.36
-1715.12
-1701.48
-1686.11
)
;
    }
    frontAndBack
    {
        type            empty;
    }
    left_cyc
    {
        type            cyclic;
    }
    right_cyc
    {
        type            cyclic;
    }
    procBoundary1to0
    {
        type            processor;
        value           nonuniform List<scalar> 
16
(
-1758.31
-1578.4
-1421.65
-1276.23
-1137.33
-1000.85
-864.148
-725.561
-584.279
-440.079
-293.143
-145.778
-145.778
8.40498
118.887
-2.14528
)
;
    }
    procBoundary1to2
    {
        type            processor;
        value           nonuniform List<scalar> 
16
(
-1582.21
-1432.09
-1316.25
-1211.34
-1103.7
-990.446
-871.444
-747.349
-618.058
-618.058
-486.885
-356.327
-231.605
-118.872
-18.9921
73.3019
)
;
    }
}


// ************************************************************************* //
