/*--------------------------------*- C++ -*----------------------------------*\
| =========                 |                                                 |
| \\      /  F ield         | OpenFOAM: The Open Source CFD Toolbox           |
|  \\    /   O peration     | Version:  2.3.0                                 |
|   \\  /    A nd           | Web:      www.OpenFOAM.org                      |
|    \\/     M anipulation  |                                                 |
\*---------------------------------------------------------------------------*/
FoamFile
{
    version     2.0;
    format      ascii;
    class       volScalarField;
    location    "5000";
    object      p_rgh;
}
// * * * * * * * * * * * * * * * * * * * * * * * * * * * * * * * * * * * * * //

dimensions      [0 2 -2 0 0 0 0];

internalField   nonuniform List<scalar> 
191
(
-1831.05
-1812.59
-1796.99
-1784.74
-1774.87
-1766.16
-1757.61
-1748.47
-1738.43
-1727.36
-1715.12
-1701.48
-1686.11
-1800.06
-1782.48
-1767.68
-1755.76
-1745.71
-1736.47
-1727.16
-1717.23
-1706.09
-1693.69
-1680.08
-1665.15
-1648.65
-1761.48
-1741.46
-1727.29
-1715.43
-1704.76
-1694.48
-1684.06
-1673.16
-1661.63
-1648.97
-1635.05
-1620.05
-1603.95
-1731.5
-1710.91
-1698.13
-1687.53
-1677.08
-1666.37
-1655.4
-1644.24
-1632.9
-1621.39
-1609.7
-1597.76
-1585.63
-1716.86
-1698.62
-1688.92
-1681.35
-1672.83
-1663.27
-1653.27
-1643.39
-1633.94
-1625.07
-1616.74
-1608.67
-1600.33
-1715.33
-1700.77
-1696.08
-1692.62
-1687.53
-1680.43
-1672.3
-1664.16
-1656.68
-1650.14
-1644.44
-1639.09
-1633.1
-1726.34
-1712.54
-1711.67
-1712.26
-1711.38
-1707.73
-1702.13
-1695.79
-1689.7
-1684.41
-1679.99
-1675.92
-1670.96
-1749.37
-1735.47
-1733.82
-1735.73
-1737.04
-1736.69
-1734.18
-1730.07
-1725.23
-1720.41
-1715.92
-1711.49
-1705.9
-1779.05
-1765.9
-1762.73
-1763.6
-1764.66
-1764.65
-1763.37
-1760.75
-1756.97
-1752.33
-1747
-1740.65
-1809.99
-1798.58
-1794.2
-1792.83
-1791.99
-1790.49
-1787.84
-1783.93
-1778.82
-1772.51
-1764.79
-1755
-1834.46
-1824.18
-1817.74
-1812.54
-1807.13
-1800.83
-1793.42
-1784.81
-1774.97
-1763.85
-1750.91
-1735.15
-1830.76
-1817.56
-1805.09
-1792.12
-1778.12
-1762.94
-1746.48
-1728.62
-1709.24
-1688.42
-1666.67
-1642.43
-1739.16
-1718.3
-1696.75
-1674.22
-1650.59
-1625.83
-1599.84
-1572.34
-1542.95
-1511.47
-1478.53
-1445.57
-1413.42
-1371.97
-1350.68
-1326.67
-1300.31
-1272.03
-1242.25
-1211.21
-1178.9
-1145.08
-1109.34
-1071.84
-1033.15
-993.283
-681.029
-650.623
-617.769
-584.476
-551.675
-519.692
-488.524
-458.037
-428.126
-398.728
-369.455
-340.593
-315.172
)
;

boundaryField
{
    top
    {
        type            fixedValue;
        value           uniform 0;
    }
    bottom
    {
        type            fixedFluxPressure;
        gradient        uniform 0;
        value           nonuniform List<scalar> 
13
(
-1831.05
-1812.59
-1796.99
-1784.74
-1774.87
-1766.16
-1757.61
-1748.47
-1738.43
-1727.36
-1715.12
-1701.48
-1686.11
)
;
    }
    frontAndBack
    {
        type            empty;
    }
    left_cyc
    {
        type            cyclic;
    }
    right_cyc
    {
        type            cyclic;
    }
    procBoundary1to0
    {
        type            processor;
        value           nonuniform List<scalar> 
16
(
-1850.75
-1820.72
-1788.93
-1764.43
-1752.6
-1752.62
-1764.73
-1784.99
-1809.22
-1833.46
-1851.97
-1846.56
-1846.56
-1759.34
-1390.04
-705.447
)
;
    }
    procBoundary1to2
    {
        type            processor;
        value           nonuniform List<scalar> 
16
(
-1668.45
-1630.2
-1586.78
-1573.02
-1590.67
-1624.79
-1662.96
-1696.7
-1732.16
-1732.16
-1741.78
-1715
-1613.88
-1378.45
-953.016
-295.01
)
;
    }
}


// ************************************************************************* //
