/*--------------------------------*- C++ -*----------------------------------*\
| =========                 |                                                 |
| \\      /  F ield         | OpenFOAM: The Open Source CFD Toolbox           |
|  \\    /   O peration     | Version:  2.3.0                                 |
|   \\  /    A nd           | Web:      www.OpenFOAM.org                      |
|    \\/     M anipulation  |                                                 |
\*---------------------------------------------------------------------------*/
FoamFile
{
    version     2.0;
    format      ascii;
    class       volScalarField;
    location    "5000";
    object      T;
}
// * * * * * * * * * * * * * * * * * * * * * * * * * * * * * * * * * * * * * //

dimensions      [0 0 0 1 0 0 0];

internalField   nonuniform List<scalar> 
191
(
40.2787
39.9897
39.7988
39.8038
39.9062
40.0085
40.0407
39.956
39.7785
39.5432
39.2527
38.8974
38.4593
34.3552
33.6973
33.3294
33.2193
33.2188
33.2116
33.1221
32.9144
32.5468
32.0485
31.4522
30.7642
29.9766
30.5947
29.6344
29.199
28.9386
28.741
28.5332
28.2713
27.9324
27.5116
26.9764
26.3284
25.5887
24.7595
28.854
27.8844
27.4446
27.1431
26.8454
26.5216
26.1666
25.779
25.3585
24.9052
24.4199
23.9019
23.3587
28.3888
27.6074
27.2725
27.0484
26.7789
26.4595
26.1167
25.773
25.4408
25.1244
24.8219
24.5242
24.2112
28.5568
27.9804
27.8171
27.7103
27.5412
27.2947
27.0099
26.7261
26.4676
26.244
26.0516
25.8735
25.6758
29.1187
28.6035
28.539
28.5321
28.4801
28.3371
28.1315
27.9048
27.69
27.5054
27.353
27.2171
27.0589
29.9421
29.4545
29.3387
29.3366
29.3237
29.2658
29.1479
28.9867
28.8082
28.6342
28.4747
28.3219
28.1417
30.8163
30.3756
30.2044
30.1491
30.107
30.0433
29.9511
29.8271
29.676
29.5055
29.3192
29.1097
31.6051
31.2255
31.0185
30.8928
30.7897
30.6792
30.5469
30.3888
30.2044
29.992
29.7454
29.4494
32.1639
31.8196
31.5628
31.3436
31.1309
30.9085
30.6685
30.4062
30.1182
29.8005
29.4382
29.0098
32.0905
31.6917
31.3124
30.9346
30.5483
30.1479
29.7284
29.2836
28.8077
28.2977
27.7586
27.1601
30.6307
30.0987
29.5426
28.9715
28.3899
27.799
27.1952
26.5712
25.9173
25.2264
24.5013
23.755
23.0077
24.159
23.6065
23.0056
22.3775
21.7336
21.0784
20.4115
19.7283
19.0219
18.2876
17.5317
16.7706
16.0159
10.5317
10.2302
9.88724
9.52119
9.14405
8.76267
8.37972
7.99479
7.60583
7.21256
6.82101
6.4391
6.06697
)
;

boundaryField
{
    top
    {
        type            fixedValue;
        value           uniform 0;
    }
    bottom
    {
        type            fixedValue;
        value           uniform 43.8;
    }
    frontAndBack
    {
        type            empty;
    }
    left_cyc
    {
        type            cyclic;
    }
    right_cyc
    {
        type            cyclic;
    }
    procBoundary1to0
    {
        type            processor;
        value           nonuniform List<scalar> 
16
(
40.633
35.5216
32.3173
30.6911
30.0863
30.0772
30.4858
31.0786
31.7035
32.2643
32.6559
32.532
32.532
31.114
24.6214
10.7655
)
;
    }
    procBoundary1to2
    {
        type            processor;
        value           nonuniform List<scalar> 
16
(
37.913
29.0679
23.8424
22.7746
23.8426
25.4016
26.8111
27.8643
28.8477
28.8477
29.0719
28.4812
26.4666
22.211
15.2952
5.70601
)
;
    }
}


// ************************************************************************* //
