/*--------------------------------*- C++ -*----------------------------------*\
| =========                 |                                                 |
| \\      /  F ield         | OpenFOAM: The Open Source CFD Toolbox           |
|  \\    /   O peration     | Version:  2.3.0                                 |
|   \\  /    A nd           | Web:      www.OpenFOAM.org                      |
|    \\/     M anipulation  |                                                 |
\*---------------------------------------------------------------------------*/
FoamFile
{
    version     2.0;
    format      ascii;
    class       volScalarField;
    location    "23000";
    object      p;
}
// * * * * * * * * * * * * * * * * * * * * * * * * * * * * * * * * * * * * * //

dimensions      [0 2 -2 0 0 0 0];

internalField   nonuniform List<scalar> 
191
(
-1740.09
-1722.53
-1707.59
-1695.49
-1685.47
-1676.55
-1667.88
-1658.85
-1649.09
-1638.4
-1626.64
-1613.57
-1598.88
-1566.27
-1553.37
-1541.25
-1530.23
-1520.29
-1511.16
-1502.51
-1494
-1485.36
-1476.32
-1466.71
-1456.38
-1445.14
-1414.18
-1405.27
-1396.2
-1387.43
-1379.13
-1371.33
-1363.99
-1357.04
-1350.39
-1343.88
-1337.4
-1330.86
-1324.25
-1272.81
-1267.81
-1262.16
-1256.46
-1250.85
-1245.41
-1240.21
-1235.34
-1230.82
-1226.66
-1222.81
-1219.21
-1215.82
-1136.51
-1134.38
-1131.61
-1128.71
-1125.77
-1122.83
-1119.93
-1117.18
-1114.64
-1112.35
-1110.3
-1108.4
-1106.49
-1001.66
-1001.59
-1001.03
-1000.27
-999.441
-998.54
-997.579
-996.592
-995.633
-994.739
-993.896
-993.022
-991.948
-866.149
-867.624
-868.649
-869.423
-870.071
-870.639
-871.115
-871.482
-871.747
-871.923
-872.002
-871.931
-871.606
-728.601
-731.336
-733.594
-735.521
-737.229
-738.807
-740.282
-741.639
-742.863
-743.946
-744.877
-745.623
-746.141
-588.234
-592.092
-595.467
-598.407
-601.017
-603.406
-605.641
-607.758
-609.773
-611.697
-613.535
-615.274
-444.869
-449.788
-454.267
-458.234
-461.765
-464.976
-467.973
-470.848
-473.674
-476.527
-479.466
-482.505
-298.858
-304.938
-310.658
-315.834
-320.495
-324.757
-328.762
-332.651
-336.56
-340.652
-345.093
-349.923
-152.764
-160.333
-167.607
-174.324
-180.482
-186.214
-191.702
-197.144
-202.739
-208.738
-215.385
-222.704
1.19336
-8.14302
-18.1588
-28.0535
-37.4583
-46.3
-54.6602
-62.6832
-70.5402
-78.4471
-86.933
-96.6625
-107.256
108.893
96.4046
83.6298
71.5113
60.2984
49.8539
39.9102
30.2089
20.598
11.192
2.26392
-5.61586
-11.7235
9.91131
21.6705
32.9536
42.9818
51.6442
59.0828
65.4818
70.936
75.4012
78.9437
82.4739
85.9949
86.3246
)
;

boundaryField
{
    top
    {
        type            calculated;
        value           nonuniform List<scalar> 
13
(
-9.81
-9.81
-9.81
-9.81
-9.81
-9.81
-9.81
-9.81
-9.81
-9.81
-9.81
-9.81
-9.81
)
;
    }
    bottom
    {
        type            calculated;
        value           nonuniform List<scalar> 
13
(
-1831.79
-1813.57
-1798.21
-1786.13
-1776.33
-1767.63
-1758.99
-1749.72
-1739.53
-1728.29
-1715.83
-1701.92
-1686.18
)
;
    }
    frontAndBack
    {
        type            empty;
    }
    left_cyc
    {
        type            cyclic;
    }
    right_cyc
    {
        type            cyclic;
    }
    procBoundary1to0
    {
        type            processor;
        value           nonuniform List<scalar> 
16
(
-1758.75
-1578.75
-1421.84
-1276.3
-1137.32
-1000.76
-863.997
-725.376
-584.077
-439.87
-292.931
-145.552
-145.552
8.45367
119.05
-0.537377
)
;
    }
    procBoundary1to2
    {
        type            processor;
        value           nonuniform List<scalar> 
16
(
-1582.03
-1432.72
-1317.58
-1212.56
-1104.35
-990.444
-870.884
-746.394
-616.91
-616.91
-485.675
-355.211
-230.753
-117.821
-15.18
81.8434
)
;
    }
}


// ************************************************************************* //
