/*--------------------------------*- C++ -*----------------------------------*\
| =========                 |                                                 |
| \\      /  F ield         | OpenFOAM: The Open Source CFD Toolbox           |
|  \\    /   O peration     | Version:  2.3.0                                 |
|   \\  /    A nd           | Web:      www.OpenFOAM.org                      |
|    \\/     M anipulation  |                                                 |
\*---------------------------------------------------------------------------*/
FoamFile
{
    version     2.0;
    format      ascii;
    class       surfaceScalarField;
    location    "23000";
    object      phi;
}
// * * * * * * * * * * * * * * * * * * * * * * * * * * * * * * * * * * * * * //

dimensions      [0 3 -1 0 0 0 0];

internalField   nonuniform List<scalar> 
353
(
-0.40648
0.0258468
-0.39577
-0.0107093
-0.36922
-0.0265498
-0.341901
-0.0273194
-0.321622
-0.0202793
-0.310748
-0.0108737
-0.308549
-0.00219926
-0.313032
0.00448351
-0.322106
0.00907334
-0.334395
0.0122895
-0.349278
0.0148825
-0.366774
0.0174966
0.0207264
-0.640878
0.0847628
-0.6482
-0.00338772
-0.629471
-0.0452791
-0.602102
-0.054688
-0.576241
-0.0461401
-0.5565
-0.0306148
-0.543938
-0.0147617
-0.537702
-0.00175251
-0.536048
0.00741929
-0.536847
0.0130888
-0.537998
0.0160335
-0.53742
0.0169187
0.0161689
-0.624877
0.153834
-0.647732
0.0194673
-0.644521
-0.0484896
-0.628802
-0.0704068
-0.609014
-0.0659285
-0.589777
-0.0498516
-0.573126
-0.031413
-0.559452
-0.0154262
-0.548151
-0.00388206
-0.537751
0.00268919
-0.526142
0.00442453
-0.510658
0.00143409
-0.00638142
-0.500831
0.222056
-0.535009
0.0536454
-0.547184
-0.0363153
-0.546148
-0.0714425
-0.537818
-0.0742581
-0.525979
-0.0616908
-0.5129
-0.0444926
-0.499751
-0.0285747
-0.48684
-0.0167936
-0.473695
-0.0104553
-0.458995
-0.0102751
-0.440581
-0.01698
-0.0314167
-0.333483
0.281738
-0.373055
0.0932171
-0.397052
-0.0123182
-0.409557
-0.058938
-0.413879
-0.0699353
-0.412538
-0.0630322
-0.407435
-0.0495961
-0.399948
-0.0360613
-0.390935
-0.025807
-0.380665
-0.0207251
-0.368682
-0.0222583
-0.353685
-0.0319771
-0.0515911
-0.151711
0.325924
-0.189381
0.130887
-0.219094
0.0173948
-0.240853
-0.037179
-0.25553
-0.0552588
-0.264207
-0.0543547
-0.268008
-0.0457952
-0.26802
-0.0360493
-0.265211
-0.0286159
-0.260299
-0.0256374
-0.253551
-0.0290063
-0.24457
-0.0409577
-0.0640155
0.0273241
0.349453
-0.00218568
0.160397
-0.0313199
0.046529
-0.0569036
-0.0115953
-0.077685
-0.0344774
-0.0934707
-0.038569
-0.104536
-0.0347295
-0.111435
-0.0291508
-0.11492
-0.0251306
-0.115836
-0.0247216
-0.1149
-0.0299426
-0.112425
-0.0434329
-0.0683419
0.191329
0.349063
0.174085
0.177641
0.149796
0.0708183
0.124538
0.0136625
0.101539
-0.0114783
0.0821703
-0.0192007
0.0668375
-0.0193967
0.0554286
-0.0177419
0.0474445
-0.0171466
0.0420686
-0.0193456
0.0383546
-0.0262286
0.0355099
-0.0405881
0.329423
0.323851
0.32675
0.180314
0.309702
0.0878662
0.287204
0.0361607
0.264509
0.0112167
0.244292
0.00101631
0.227632
-0.00273622
0.214703
-0.0048134
0.205091
-0.00753424
0.197882
-0.0121371
0.191855
-0.0202014
-0.0345127
0.429944
0.276572
0.441856
0.168402
0.433242
0.096481
0.415169
0.0542328
0.394683
0.0317031
0.375667
0.0200327
0.359886
0.0130442
0.347801
0.00727178
0.339012
0.00125455
0.332361
-0.00548548
0.326141
-0.0139813
-0.0269312
0.478714
0.214487
0.50235
0.144766
0.502177
0.0966539
0.490031
0.0663781
0.473831
0.0479033
0.458081
0.035783
0.444893
0.0262322
0.434919
0.0172454
0.427859
0.0083149
0.422433
-5.92799e-05
0.416486
-0.00803406
-0.0181856
0.457063
0.149329
0.487076
0.114752
0.494717
0.0890128
0.490559
0.0705363
0.481674
0.0567885
0.471985
0.0454723
0.463229
0.0349883
0.455916
0.0245583
0.449899
0.0143313
0.444281
0.00555893
0.437304
-0.00105748
-0.00767758
0.293374
0.104907
0.348987
0.0937159
0.381155
0.0825845
0.398059
0.0721084
0.406193
0.0624026
0.409631
0.0533507
0.410369
0.0447342
0.409053
0.0363048
0.40577
0.0278412
0.400745
0.019356
0.394651
0.0116528
0.38811
0.00548355
-1.4304e-05
0.155341
0.0517712
0.201107
0.0479504
0.24018
0.0435114
0.273408
0.0388801
0.3015
0.0343104
0.324943
0.0299077
0.344003
0.0256748
0.358753
0.0215544
0.369116
0.0174784
0.37497
0.0135019
0.376644
0.00997882
0.375061
0.00706601
0.00429771
0.136847
0.181669
0.221456
0.256095
0.285728
0.310597
0.330934
0.346912
0.358641
0.366294
0.370371
0.371524
)
;

boundaryField
{
    top
    {
        type            calculated;
        value           nonuniform List<scalar> 
13
(
0.00249741
0.00312856
0.00372387
0.00424143
0.00467674
0.00503878
0.00533769
0.00557695
0.00574944
0.0058483
0.00590243
0.00591274
0.00578709
)
;
    }
    bottom
    {
        type            calculated;
        value           uniform 0;
    }
    frontAndBack
    {
        type            empty;
        value           nonuniform 0();
    }
    left_cyc
    {
        type            cyclic;
        value           nonuniform 0();
    }
    right_cyc
    {
        type            cyclic;
        value           nonuniform 0();
    }
    procBoundary1to0
    {
        type            processor;
        value           nonuniform List<scalar> 
16
(
0.380633
0.581962
0.555806
0.432609
0.273801
0.107525
-0.0508533
-0.190938
-0.304211
-0.382666
-0.416629
-0.391905
-0.191153
-0.207128
-0.102205
-0.0875729
)
;
    }
    procBoundary1to2
    {
        type            processor;
        value           nonuniform List<scalar> 
16
(
-0.387501
-0.532863
-0.488107
-0.415546
-0.33351
-0.232146
-0.108098
0.0330652
-0.0658972
0.18578
0.318559
0.40774
0.426796
0.380447
0.370749
0.370035
)
;
    }
}


// ************************************************************************* //
