/*--------------------------------*- C++ -*----------------------------------*\
| =========                 |                                                 |
| \\      /  F ield         | OpenFOAM: The Open Source CFD Toolbox           |
|  \\    /   O peration     | Version:  2.3.0                                 |
|   \\  /    A nd           | Web:      www.OpenFOAM.org                      |
|    \\/     M anipulation  |                                                 |
\*---------------------------------------------------------------------------*/
FoamFile
{
    version     2.0;
    format      ascii;
    class       volScalarField;
    location    "23000";
    object      T;
}
// * * * * * * * * * * * * * * * * * * * * * * * * * * * * * * * * * * * * * //

dimensions      [0 0 0 1 0 0 0];

internalField   nonuniform List<scalar> 
191
(
40.3064
40.0208
39.8358
39.8424
39.9409
40.0339
40.0516
39.9473
39.7576
39.5111
39.2078
38.8367
38.3786
34.4151
33.7641
33.4003
33.2887
33.28
33.2585
33.1501
32.9213
32.5237
32.0041
31.3873
30.6769
29.8637
30.6666
29.7154
29.2808
29.0188
28.816
28.5994
28.3259
27.9739
27.54
26.9835
26.3185
25.5628
24.7176
28.9255
27.9643
27.5278
27.2266
26.9289
26.605
26.2496
25.8617
25.4415
24.9897
24.5041
23.9888
23.4508
28.457
27.6835
27.3512
27.1277
26.8609
26.547
26.2119
25.8772
25.555
25.2494
24.9577
24.67
24.3626
28.6192
28.0507
27.8874
27.7802
27.613
27.3726
27.0978
26.8264
26.5819
26.3726
26.1933
26.0247
25.8283
29.1679
28.6641
28.6021
28.5932
28.5401
28.4001
28.202
27.9862
27.7846
27.6139
27.4742
27.3462
27.1856
29.9777
29.5022
29.391
29.3885
29.375
29.3171
29.2022
29.0472
28.8776
28.714
28.5642
28.4164
28.2293
30.841
30.4107
30.2447
30.1909
30.1486
30.0851
29.9943
29.8728
29.7254
29.5592
29.3762
29.1651
31.6225
31.2508
31.0483
30.9247
30.8224
30.712
30.5793
30.4213
30.2371
30.024
29.7736
29.468
32.1774
31.8383
31.5846
31.367
31.1548
30.9322
30.6912
30.4273
30.1368
29.8152
29.4407
28.9946
32.1018
31.706
31.3282
30.9506
30.5633
30.1604
29.7367
29.286
28.8027
28.2843
27.7348
27.1153
30.6391
30.1102
29.5553
28.9836
28.3995
27.8037
27.1927
26.5589
25.8931
25.189
24.452
23.7005
22.9496
24.1693
23.6188
23.0168
22.3852
21.7354
21.0724
20.3956
19.7006
18.9811
18.2338
17.4675
16.6995
15.9402
10.5398
10.2403
9.89735
9.52975
9.14977
8.76448
8.37672
7.98626
7.59142
7.19277
6.79746
6.41312
6.03915
)
;

boundaryField
{
    top
    {
        type            fixedValue;
        value           uniform 0;
    }
    bottom
    {
        type            fixedValue;
        value           uniform 43.8;
    }
    frontAndBack
    {
        type            empty;
    }
    left_cyc
    {
        type            cyclic;
    }
    right_cyc
    {
        type            cyclic;
    }
    procBoundary1to0
    {
        type            processor;
        value           nonuniform List<scalar> 
16
(
40.657
35.5727
32.3772
30.7492
30.1385
30.1206
30.5143
31.0956
31.7132
32.2709
32.6621
32.5389
32.5389
31.1169
24.6258
10.7691
)
;
    }
    procBoundary1to2
    {
        type            processor;
        value           nonuniform List<scalar> 
16
(
37.8072
28.924
23.7865
22.8683
23.9895
25.5403
26.9162
27.9234
28.8901
28.8901
29.0696
28.4378
26.3929
22.1291
15.2252
5.67798
)
;
    }
}


// ************************************************************************* //
