/*--------------------------------*- C++ -*----------------------------------*\
| =========                 |                                                 |
| \\      /  F ield         | OpenFOAM: The Open Source CFD Toolbox           |
|  \\    /   O peration     | Version:  2.3.0                                 |
|   \\  /    A nd           | Web:      www.OpenFOAM.org                      |
|    \\/     M anipulation  |                                                 |
\*---------------------------------------------------------------------------*/
FoamFile
{
    version     2.0;
    format      ascii;
    class       surfaceScalarField;
    location    "14000";
    object      phi;
}
// * * * * * * * * * * * * * * * * * * * * * * * * * * * * * * * * * * * * * //

dimensions      [0 3 -1 0 0 0 0];

internalField   nonuniform List<scalar> 
354
(
0.509701
-0.0757967
0.527126
-0.017425
0.502425
0.0247007
0.465335
0.0370902
0.430927
0.0344082
0.402452
0.0284751
0.379212
0.0232393
0.359838
0.0193742
0.343361
0.016477
0.329392
0.0139689
0.318128
0.0112643
0.00768337
0.291933
-0.161219
0.373443
-0.0989344
0.437156
-0.0390122
0.481602
-0.00735659
0.510303
0.00570777
0.527055
0.0117227
0.535321
0.0149738
0.538022
0.0166725
0.537612
0.0168879
0.53624
0.0153401
0.535959
0.0115457
0.00476354
0.183498
-0.200948
0.236304
-0.151741
0.304391
-0.107098
0.372168
-0.0751339
0.427929
-0.0500534
0.469178
-0.0295261
0.497782
-0.0136298
0.517134
-0.00267963
0.530681
0.00334094
0.541411
0.00460986
0.55178
0.00117692
-0.00712173
0.131655
-0.229869
0.17328
-0.193366
0.233055
-0.166873
0.297249
-0.139328
0.352617
-0.105421
0.395114
-0.0720238
0.425852
-0.0443672
0.447909
-0.0247366
0.464516
-0.0132662
0.478314
-0.009188
0.491158
-0.0116673
-0.0200168
0.0701431
-0.281716
0.0933313
-0.253057
0.130433
-0.230468
0.18326
-0.2197
0.236914
-0.192983
0.282249
-0.150756
0.316644
-0.106418
0.341428
-0.0691519
0.359335
-0.0426435
0.372963
-0.0268941
0.384169
-0.0203933
0.393936
-0.0214343
-0.0285305
0.0414562
-0.294627
0.0591885
-0.27079
0.0896179
-0.260897
0.130038
-0.26012
0.168017
-0.230962
0.198642
-0.18138
0.220994
-0.128771
0.236606
-0.0847633
0.247618
-0.0536559
0.255729
-0.0350047
0.261843
-0.0265077
0.266099
-0.0256906
-0.0304828
0.0146091
-0.299067
0.023079
-0.279259
0.0394736
-0.277292
0.0604459
-0.281093
0.079093
-0.249609
0.0933366
-0.195624
0.102985
-0.13842
0.10907
-0.0908482
0.112778
-0.0573635
0.114822
-0.0370487
0.115268
-0.0269537
0.113633
-0.024056
-0.0259834
-0.0121767
-0.294059
-0.0186964
-0.27274
-0.0233923
-0.272596
-0.0265275
-0.277957
-0.0290681
-0.247069
-0.0310757
-0.193616
-0.0329826
-0.136513
-0.0350313
-0.0887994
-0.0373602
-0.0550347
-0.0402555
-0.0341535
-0.0442995
-0.0229096
-0.050353
-0.0180025
-0.0170001
-0.0395909
-0.279464
-0.0627632
-0.249567
-0.0914385
-0.243921
-0.12054
-0.248856
-0.144588
-0.22302
-0.162052
-0.176153
-0.174106
-0.124458
-0.182566
-0.0803403
-0.189017
-0.0485835
-0.194733
-0.0284368
-0.200871
-0.0167717
-0.208652
-0.0102214
-0.00644098
-0.0683651
-0.256269
-0.100564
-0.217368
-0.148427
-0.196058
-0.201956
-0.195328
-0.246127
-0.178849
-0.277904
-0.144376
-0.299281
-0.10308
-0.313205
-0.0664168
-0.322435
-0.039353
-0.329179
-0.0216929
-0.335226
-0.0107246
-0.342332
-0.00311541
0.00327959
-0.0997261
-0.225721
-0.131737
-0.185357
-0.1826
-0.145195
-0.250233
-0.127694
-0.308793
-0.120289
-0.351801
-0.101368
-0.381289
-0.0735928
-0.400253
-0.0474525
-0.411998
-0.0276077
-0.419437
-0.014254
-0.424893
-0.0052695
-0.430602
0.00259447
0.0111619
-0.136257
-0.186127
-0.171186
-0.150428
-0.209439
-0.106942
-0.2605
-0.076634
-0.314402
-0.0663865
-0.360359
-0.0554106
-0.394643
-0.039309
-0.41743
-0.0246652
-0.43164
-0.013398
-0.440613
-0.00528124
-0.446871
0.000989064
-0.452427
0.00814994
0.0175178
-0.174421
-0.135766
-0.216413
-0.108436
-0.247664
-0.0756908
-0.273974
-0.0503237
-0.305633
-0.0347273
-0.336832
-0.0242121
-0.359764
-0.0163774
-0.374597
-0.00983141
-0.384156
-0.00383973
-0.391197
0.00176003
-0.397537
0.00732942
-0.40333
0.0139428
0.0220019
-0.202283
-0.0783611
-0.249243
-0.0614759
-0.283121
-0.0418126
-0.308082
-0.0253626
-0.328586
-0.0142231
-0.345166
-0.00763279
-0.357943
-0.00360026
-0.367262
-0.000512297
-0.373468
0.00236629
-0.37689
0.00518199
-0.377514
0.00795389
-0.374588
0.0110167
0.0147229
-0.223611
-0.272966
-0.307447
-0.329857
-0.344614
-0.355104
-0.36296
-0.36857
-0.371796
-0.372459
-0.370424
-0.36529
)
;

boundaryField
{
    top
    {
        type            calculated;
        value           nonuniform List<scalar> 
13
(
-0.0162111
-0.0121213
-0.00733133
-0.00295331
0.000534555
0.00285735
0.0042558
0.00509754
0.00559205
0.00584538
0.00591802
0.0058829
0.00581926
)
;
    }
    bottom
    {
        type            calculated;
        value           uniform 0;
    }
    frontAndBack
    {
        type            empty;
        value           nonuniform 0();
    }
    left_cyc
    {
        type            cyclic;
        value           nonuniform 0();
    }
    right_cyc
    {
        type            cyclic;
        value           nonuniform 0();
    }
    procBoundary3to0throughright_cyc
    {
        type            processorCyclic;
        value           nonuniform List<scalar> 
15
(
0.310445
0.538879
0.563665
0.504053
0.402449
0.268052
0.109134
-0.0593363
-0.219212
-0.352053
-0.438485
-0.458783
-0.407814
-0.367309
-0.356386
)
;
    }
    procBoundary3to2
    {
        type            processor;
        value           nonuniform List<scalar> 
16
(
-0.433904
-0.206511
-0.143769
-0.102734
0.26092
-0.0493465
-0.0285458
-0.0101684
0.00716872
0.0249952
0.0451701
0.0691786
0.0966618
0.124061
0.144878
0.161461
)
;
    }
}


// ************************************************************************* //
