/*--------------------------------*- C++ -*----------------------------------*\
| =========                 |                                                 |
| \\      /  F ield         | OpenFOAM: The Open Source CFD Toolbox           |
|  \\    /   O peration     | Version:  2.3.0                                 |
|   \\  /    A nd           | Web:      www.OpenFOAM.org                      |
|    \\/     M anipulation  |                                                 |
\*---------------------------------------------------------------------------*/
FoamFile
{
    version     2.0;
    format      ascii;
    class       volVectorField;
    location    "14000";
    object      U;
}
// * * * * * * * * * * * * * * * * * * * * * * * * * * * * * * * * * * * * * //

dimensions      [0 1 -1 0 0 0 0];

internalField   nonuniform List<vector> 
191
(
(72.5429 0 -6.16935)
(79.7825 0 2.28483)
(78.2747 0 6.73908)
(72.7526 0 7.02901)
(67.105 0 5.64882)
(62.3579 0 4.19676)
(58.5042 0 3.10052)
(55.3373 0 2.36211)
(52.6623 0 1.87393)
(50.3762 0 1.53282)
(48.4621 0 1.25543)
(46.9945 0 0.961245)
(37.0629 0 -20.7648)
(50.394 0 -10.6257)
(61.5746 0 -1.09149)
(69.5878 0 3.24781)
(74.9124 0 4.26816)
(78.1972 0 4.16509)
(79.9481 0 3.80762)
(80.6684 0 3.44954)
(80.7536 0 3.10196)
(80.5424 0 2.70203)
(80.3424 0 2.15699)
(80.464 0 1.3373)
(24.5997 0 -27.4498)
(30.5339 0 -18.9773)
(40.1967 0 -11.0368)
(51.1873 0 -6.10127)
(60.5527 0 -3.10404)
(67.8157 0 -1.06337)
(72.936 0 0.378648)
(76.3965 0 1.31818)
(78.7429 0 1.77237)
(80.4635 0 1.73196)
(81.9663 0 1.1536)
(83.578 0 -0.0447742)
(17.5351 0 -32.5241)
(21.8498 0 -26.1921)
(29.9397 0 -20.7439)
(40.0865 0 -16.2009)
(49.2108 0 -11.7639)
(56.5767 0 -7.70669)
(61.9655 0 -4.41428)
(65.795 0 -2.0886)
(68.5813 0 -0.751193)
(70.7771 0 -0.343654)
(72.7212 0 -0.807192)
(74.6287 0 -2.10496)
(9.01145 0 -41.0216)
(12.0788 0 -36.4174)
(15.6592 0 -31.8599)
(23.3963 0 -29.2052)
(31.7671 0 -25.3199)
(39.3416 0 -19.6257)
(45.3331 0 -13.732)
(49.6742 0 -8.78365)
(52.767 0 -5.25605)
(55.0445 0 -3.17136)
(56.8518 0 -2.36344)
(58.4023 0 -2.64307)
(59.7787 0 -3.84391)
(5.2117 0 -43.5227)
(7.25803 0 -39.536)
(10.2518 0 -37.2491)
(16.6098 0 -36.634)
(22.5731 0 -32.5181)
(27.82 0 -25.5504)
(31.7734 0 -18.1476)
(34.538 0 -11.927)
(36.4576 0 -7.51281)
(37.8404 0 -4.87872)
(38.8865 0 -3.73626)
(39.6699 0 -3.76443)
(40.1595 0 -4.68593)
(1.81456 0 -44.8721)
(2.60462 0 -41.7183)
(4.21195 0 -41.0411)
(7.6041 0 -41.4368)
(10.6018 0 -36.8314)
(13.112 0 -28.9118)
(14.8855 0 -20.5159)
(16.017 0 -13.5215)
(16.7133 0 -8.5948)
(17.1289 0 -5.62808)
(17.3236 0 -4.21744)
(17.2591 0 -3.94061)
(16.8305 0 -4.45404)
(-1.42308 0 -44.8617)
(-2.14982 0 -42.0525)
(-3.32195 0 -42.1199)
(-3.82583 0 -42.8974)
(-4.18295 0 -38.0744)
(-4.53285 0 -29.8016)
(-4.80359 0 -21.035)
(-5.09394 0 -13.7524)
(-5.41476 0 -8.62685)
(-5.79051 0 -5.49277)
(-6.2831 0 -3.87024)
(-7.00507 0 -3.27564)
(-8.10043 0 -3.3415)
(-4.73735 0 -43.3817)
(-7.02389 0 -39.7805)
(-11.3884 0 -39.6285)
(-16.2732 0 -40.5075)
(-20.0909 0 -36.0833)
(-23.2532 0 -28.3208)
(-25.3868 0 -19.9504)
(-26.8571 0 -12.9099)
(-27.9205 0 -7.8976)
(-28.7876 0 -4.76174)
(-29.6316 0 -3.00938)
(-30.629 0 -2.13308)
(-31.9676 0 -1.76918)
(-8.41485 0 -40.4646)
(-12.0036 0 -35.086)
(-17.6498 0 -33.6221)
(-26.9552 0 -34.0908)
(-34.0198 0 -30.7752)
(-39.7691 0 -24.5028)
(-43.634 0 -17.3871)
(-46.1671 0 -11.2034)
(-47.8072 0 -6.69201)
(-48.9308 0 -3.7848)
(-49.824 0 -2.03848)
(-50.7458 0 -0.949553)
(-51.96 0 -0.177056)
(-12.7597 0 -36.4281)
(-17.153 0 -30.2184)
(-21.873 0 -25.3467)
(-32.9367 0 -24.9825)
(-42.4586 0 -23.2692)
(-50.1201 0 -18.9701)
(-55.4478 0 -13.5717)
(-58.9577 0 -8.71468)
(-61.136 0 -5.09786)
(-62.4755 0 -2.7069)
(-63.3577 0 -1.16592)
(-64.1156 0 0.023578)
(-65.0801 0 1.16951)
(-17.7197 0 -31.2501)
(-23.1595 0 -25.3283)
(-27.9102 0 -18.1263)
(-34.9432 0 -13.2342)
(-43.3656 0 -12.9509)
(-51.0021 0 -11.8531)
(-57.0702 0 -8.85144)
(-61.2901 0 -5.74057)
(-63.9364 0 -3.33003)
(-65.5629 0 -1.70007)
(-66.619 0 -0.566025)
(-67.4461 0 0.605638)
(-68.3012 0 2.04924)
(-22.6451 0 -24.6357)
(-29.6893 0 -19.7857)
(-35.083 0 -13.8428)
(-39.1661 0 -9.38694)
(-43.183 0 -6.59087)
(-48.4961 0 -4.49576)
(-52.5903 0 -2.91919)
(-55.3199 0 -1.73582)
(-57.0436 0 -0.726967)
(-58.1937 0 0.19656)
(-59.1437 0 1.11735)
(-60.1088 0 2.26754)
(-60.9102 0 3.76965)
(-26.3605 0 -15.4545)
(-34.335 0 -12.2668)
(-40.3589 0 -8.56007)
(-44.5586 0 -5.52758)
(-47.8839 0 -3.53277)
(-50.6965 0 -2.36702)
(-52.8776 0 -1.60142)
(-54.517 0 -0.965418)
(-55.6652 0 -0.361035)
(-56.3745 0 0.221053)
(-56.6906 0 0.79626)
(-56.5619 0 1.45701)
(-55.8124 0 2.26573)
(-29.2847 0 -10.1581)
(-37.7871 0 -7.781)
(-44.0609 0 -5.04345)
(-48.1552 0 -2.6505)
(-50.7914 0 -0.911682)
(-52.6018 0 0.207441)
(-53.9431 0 0.888444)
(-54.9526 0 1.34921)
(-55.6219 0 1.71308)
(-55.9183 0 2.02402)
(-55.824 0 2.28676)
(-55.3084 0 2.51204)
(-54.2768 0 2.72729)
)
;

boundaryField
{
    top
    {
        type            directionMixed;
        refValue        uniform (0 0 0);
        refGradient     uniform (0 0 0);
        valueFraction   uniform (0 0 0 0 0 1);
        value           nonuniform List<vector> 
13
(
(-29.2847 0 0)
(-37.7871 0 0)
(-44.0609 0 0)
(-48.1552 0 0)
(-50.7914 0 0)
(-52.6018 0 0)
(-53.9431 0 0)
(-54.9526 0 0)
(-55.6219 0 0)
(-55.9183 0 0)
(-55.824 0 0)
(-55.3084 0 0)
(-54.2768 0 0)
)
;
    }
    bottom
    {
        type            fixedValue;
        value           uniform (0 0 0);
    }
    frontAndBack
    {
        type            empty;
    }
    left_cyc
    {
        type            cyclic;
    }
    right_cyc
    {
        type            cyclic;
    }
    procBoundary3to0throughright_cyc
    {
        type            processorCyclic;
        value           nonuniform List<vector> 
15
(
(46.1676 0 0.561198)
(81.2273 0 0.0983027)
(85.5317 0 -1.92469)
(76.5872 0 -4.17579)
(60.9532 0 -5.78651)
(40.253 0 -6.23783)
(15.9085 0 -5.46493)
(-9.69981 0 -3.79086)
(-33.797 0 -1.68481)
(-53.6623 0 0.437122)
(-66.4784 0 2.30766)
(-69.3508 0 3.59687)
(-61.4495 0 5.45447)
(-54.3786 0 3.10715)
(-52.6378 0 2.93017)
)
;
    }
    procBoundary3to2
    {
        type            processor;
        value           nonuniform List<vector> 
16
(
(57.8836 0 -15.1917)
(24.6518 0 -23.7521)
(18.4156 0 -32.2055)
(13.3435 0 -37.1511)
(13.3435 0 -37.1511)
(5.82534 0 -44.282)
(3.37863 0 -46.8144)
(1.23676 0 -48.0779)
(-0.769099 0 -48.1228)
(-2.84695 0 -46.9698)
(-5.23928 0 -44.5556)
(-8.09012 0 -40.7201)
(-11.35 0 -35.1796)
(-14.5967 0 -27.9173)
(-17.11 0 -17.6997)
(-19.1446 0 -11.9063)
)
;
    }
}


// ************************************************************************* //
