/*--------------------------------*- C++ -*----------------------------------*\
| =========                 |                                                 |
| \\      /  F ield         | OpenFOAM: The Open Source CFD Toolbox           |
|  \\    /   O peration     | Version:  2.3.0                                 |
|   \\  /    A nd           | Web:      www.OpenFOAM.org                      |
|    \\/     M anipulation  |                                                 |
\*---------------------------------------------------------------------------*/
FoamFile
{
    version     2.0;
    format      ascii;
    class       volScalarField;
    location    "1000";
    object      p;
}
// * * * * * * * * * * * * * * * * * * * * * * * * * * * * * * * * * * * * * //

dimensions      [0 2 -2 0 0 0 0];

internalField   nonuniform List<scalar> 
191
(
-1848.64
-1830
-1810.42
-1791.58
-1773.84
-1757.24
-1742.56
-1731.92
-1728.81
-1735.82
-1749.7
-1767.55
-1787.89
-1669.62
-1658.5
-1646.14
-1633.96
-1622.49
-1612.03
-1603.09
-1596.77
-1595.13
-1599.49
-1607.92
-1618.54
-1630.43
-1512.7
-1506.94
-1499.93
-1492.67
-1485.58
-1478.67
-1472.07
-1466.75
-1465.12
-1468.48
-1474.73
-1481.62
-1488.57
-1363.92
-1361.9
-1358.78
-1355.1
-1351.06
-1346.46
-1341.27
-1336.57
-1334.87
-1337.35
-1342.11
-1346.74
-1350.57
-1218.61
-1218.76
-1218.01
-1216.57
-1214.51
-1211.61
-1207.89
-1204.45
-1203.1
-1204.28
-1207.25
-1210.21
-1212.21
-1073.69
-1075.21
-1075.89
-1075.86
-1075.22
-1073.93
-1072.23
-1071.28
-1071.01
-1070.11
-1070.35
-1071.43
-1072.11
-927.715
-930.193
-931.872
-932.872
-933.382
-933.742
-934.734
-937.826
-939.776
-935.628
-931.817
-930.538
-929.924
-780.019
-783.15
-785.686
-787.69
-789.455
-791.782
-796.233
-805.304
-811.232
-802.121
-792.409
-787.974
-785.723
-630.463
-634.024
-637.333
-640.486
-643.937
-648.954
-658.325
-676.619
-689.035
-672.647
-653.703
-644.48
-479.284
-483.178
-487.301
-492.047
-498.061
-507.133
-523.936
-553.605
-567.348
-548.677
-518.526
-501.925
-327.695
-332.067
-337.44
-344.864
-354.669
-368.491
-390.836
-422.408
-439.78
-418.587
-384.857
-362.351
-179.418
-184.932
-192.572
-203.89
-217.056
-234.348
-276.228
-297.084
-297.691
-297.571
-273.327
-229.343
-38.7533
-42.0726
-49.0826
-59.8583
-79.7351
-109.341
-140.658
-185.828
-204.455
-199.576
-208.799
-191.687
-140.419
50.0973
47.1018
35.6322
20.796
10.7566
-14.125
-56.5426
-80.7097
-103.388
-109.182
-107.056
-87.9755
-63.8068
30.3432
31.2693
32.6894
28.9259
32.2183
18.2427
-20.1413
-69.4159
-106.853
-120.853
-114.154
-83.2148
-38.8962
)
;

boundaryField
{
    top
    {
        type            calculated;
        value           nonuniform List<scalar> 
13
(
-9.81
-9.81
-9.81
-9.81
-9.81
-9.81
-9.81
-9.81
-9.81
-9.81
-9.81
-9.81
-9.81
)
;
    }
    bottom
    {
        type            calculated;
        value           nonuniform List<scalar> 
13
(
-1940.65
-1920.61
-1899.71
-1879.39
-1860.15
-1842
-1825.74
-1813.73
-1809.96
-1817.87
-1833.23
-1852.84
-1875.19
)
;
    }
    frontAndBack
    {
        type            empty;
    }
    left_cyc
    {
        type            cyclic;
    }
    right_cyc
    {
        type            cyclic;
    }
    procBoundary1to0
    {
        type            processor;
        value           nonuniform List<scalar> 
16
(
-1862.75
-1677.61
-1516.35
-1364.64
-1217.6
-1071.6
-924.934
-776.904
-627.252
-476.087
-324.541
-176.098
-176.098
-39.8391
43.0955
34.8009
)
;
    }
    procBoundary1to2
    {
        type            processor;
        value           nonuniform List<scalar> 
16
(
-1809.55
-1642.83
-1495.17
-1353.38
-1212.95
-1071.68
-928.688
-783.685
-639.878
-639.878
-493.592
-349.431
-211.348
-103.073
-19.026
-5.6547
)
;
    }
}


// ************************************************************************* //
