/*--------------------------------*- C++ -*----------------------------------*\
| =========                 |                                                 |
| \\      /  F ield         | OpenFOAM: The Open Source CFD Toolbox           |
|  \\    /   O peration     | Version:  2.3.0                                 |
|   \\  /    A nd           | Web:      www.OpenFOAM.org                      |
|    \\/     M anipulation  |                                                 |
\*---------------------------------------------------------------------------*/
FoamFile
{
    version     2.0;
    format      ascii;
    class       volScalarField;
    location    "1000";
    object      T;
}
// * * * * * * * * * * * * * * * * * * * * * * * * * * * * * * * * * * * * * //

dimensions      [0 0 0 1 0 0 0];

internalField   nonuniform List<scalar> 
191
(
40.4452
39.8274
39.2544
38.6054
37.9455
37.2663
36.577
35.9763
35.6907
36.0843
36.7326
37.5003
38.3827
35.7229
34.0207
32.7702
31.8569
31.1128
30.4135
29.7236
29.0941
28.7694
29.2625
29.9604
30.7382
31.6981
33.4627
31.5504
30.3792
29.7411
29.2599
28.7252
28.0595
27.319
26.9159
27.5599
28.3446
28.9951
29.6423
32.6128
30.9224
30.0957
29.7427
29.4383
28.9136
28.0519
26.975
26.4076
27.3161
28.4197
29.1444
29.5915
32.4519
31.0245
30.4997
30.3706
30.1803
29.5902
28.4244
26.8945
26.118
27.3271
28.8733
29.8088
30.1642
32.651
31.3962
31.0385
31.0677
30.9673
30.3049
28.8301
26.828
25.8148
27.3117
29.3019
30.518
30.8829
33.019
32.0063
31.6766
31.6843
31.5664
30.8112
29.1043
26.7191
25.4051
27.216
29.5234
30.9947
31.5522
33.4118
32.6431
32.3365
32.2489
31.9601
30.9991
29.0611
26.3818
24.7572
26.7887
29.4115
31.217
32.0638
33.7456
33.1873
32.9024
32.6837
32.1061
30.7775
28.4924
25.5245
23.6279
25.7861
28.7404
30.997
33.934
33.5168
33.1969
32.7321
31.7119
29.8419
27.048
23.7266
21.5991
23.7922
27.1432
30.0061
33.7303
33.322
32.8022
31.8927
30.2809
27.7213
24.2089
20.3912
18.2355
20.2475
24.1225
27.7987
32.3701
31.7527
30.7579
29.3013
27.1028
23.8362
19.6945
15.8935
14.1927
15.6529
19.483
23.8522
28.6137
28.3419
27.37
25.7917
23.8086
21.3556
18.127
14.6035
11.6391
10.3053
11.3879
14.3763
18.1437
20.5096
20.3358
19.4015
17.9002
16.1045
14.0783
11.7278
9.30609
7.33121
6.42695
7.1307
9.1074
11.7007
8.00585
7.95616
7.51823
6.80667
5.98433
5.06054
4.19438
3.35328
2.65874
2.32841
2.57501
3.26465
4.16992
)
;

boundaryField
{
    top
    {
        type            fixedValue;
        value           uniform 0;
    }
    bottom
    {
        type            fixedValue;
        value           uniform 43.8;
    }
    frontAndBack
    {
        type            empty;
    }
    left_cyc
    {
        type            cyclic;
    }
    right_cyc
    {
        type            cyclic;
    }
    procBoundary1to0
    {
        type            processor;
        value           nonuniform List<scalar> 
16
(
41.1231
37.7189
35.9212
35.0403
34.6723
34.5761
34.5364
34.5259
34.516
34.4447
34.0785
32.6559
32.6559
27.7807
19.539
7.53079
)
;
    }
    procBoundary1to2
    {
        type            processor;
        value           nonuniform List<scalar> 
16
(
39.2006
33.112
30.8436
30.4309
30.7023
31.2281
31.8556
32.416
32.2759
32.2759
31.9149
30.512
27.3661
21.7101
14.321
5.17402
)
;
    }
}


// ************************************************************************* //
