/*--------------------------------*- C++ -*----------------------------------*\
| =========                 |                                                 |
| \\      /  F ield         | OpenFOAM: The Open Source CFD Toolbox           |
|  \\    /   O peration     | Version:  2.3.0                                 |
|   \\  /    A nd           | Web:      www.OpenFOAM.org                      |
|    \\/     M anipulation  |                                                 |
\*---------------------------------------------------------------------------*/
FoamFile
{
    version     2.0;
    format      ascii;
    class       volVectorField;
    location    "1000";
    object      U;
}
// * * * * * * * * * * * * * * * * * * * * * * * * * * * * * * * * * * * * * //

dimensions      [0 1 -1 0 0 0 0];

internalField   nonuniform List<vector> 
191
(
(-44.2706 0 7.24608)
(-55.5041 0 3.12123)
(-59.1568 0 0.356108)
(-58.1003 0 -1.26028)
(-53.9856 0 -2.54401)
(-46.6919 0 -4.44682)
(-34.898 0 -7.33445)
(-17.5558 0 -10.4671)
(4.02834 0 -11.9061)
(25.0882 0 -10.0518)
(41.3428 0 -6.96945)
(51.9747 0 -4.06889)
(57.1406 0 -1.14025)
(-61.9235 0 26.5151)
(-77.3395 0 12.0741)
(-82.6534 0 1.89771)
(-81.0176 0 -4.65726)
(-74.2407 0 -9.95073)
(-62.4732 0 -16.1736)
(-45.1065 0 -23.8693)
(-22.2046 0 -31.1448)
(3.98508 0 -34.0444)
(29.5719 0 -29.7432)
(50.737 0 -21.8045)
(65.3204 0 -13.0811)
(72.5494 0 -3.36366)
(-53.9333 0 48.7065)
(-68.02 0 23.0302)
(-74.0275 0 4.24354)
(-73.8701 0 -8.69364)
(-68.5285 0 -19.498)
(-58.0026 0 -31.335)
(-41.988 0 -44.6341)
(-21.116 0 -56.1595)
(2.08881 0 -60.2715)
(24.6868 0 -53.4189)
(43.5533 0 -39.8996)
(56.0312 0 -23.9306)
(61.2014 0 -5.8008)
(-36.598 0 65.1171)
(-47.6305 0 32.4544)
(-53.7756 0 7.69527)
(-55.4832 0 -10.3581)
(-52.8517 0 -26.0846)
(-45.5971 0 -43.0483)
(-33.4973 0 -61.2115)
(-17.5387 0 -76.0211)
(-0.173951 0 -80.8493)
(16.6942 0 -71.9424)
(30.8298 0 -53.6038)
(39.4796 0 -31.1298)
(41.769 0 -5.95153)
(-17.247 0 75.8282)
(-24.5112 0 40.1044)
(-29.8498 0 11.9309)
(-32.6732 0 -9.74954)
(-32.4878 0 -29.4282)
(-28.8226 0 -50.654)
(-21.5761 0 -72.654)
(-12.0246 0 -89.6402)
(-2.14054 0 -94.7425)
(7.46267 0 -84.5393)
(15.856 0 -62.6439)
(20.625 0 -34.9261)
(20.7636 0 -4.38657)
(0.977967 0 80.6641)
(-2.21562 0 45.1031)
(-5.88331 0 15.8323)
(-8.73663 0 -7.79017)
(-9.99385 0 -29.9849)
(-9.27336 0 -53.9611)
(-6.939 0 -78.0624)
(-4.67942 0 -95.6115)
(-3.46869 0 -100.445)
(-2.27685 0 -90.0866)
(-0.165348 0 -66.805)
(1.33703 0 -36.0707)
(0.621832 0 -2.39254)
(16.4918 0 79.9883)
(17.5045 0 47.0039)
(16.178 0 18.4561)
(14.2804 0 -5.65235)
(12.7431 0 -28.8911)
(11.6125 0 -53.6817)
(9.59029 0 -77.3874)
(4.18515 0 -93.1926)
(-4.02338 0 -96.9367)
(-12.0064 0 -87.9852)
(-16.4352 0 -66.384)
(-17.4043 0 -35.7111)
(-17.6877 0 -1.32038)
(28.2599 0 74.2399)
(33.4327 0 45.4562)
(34.9656 0 19.0508)
(34.7613 0 -4.34053)
(33.8116 0 -27.2898)
(31.789 0 -50.7971)
(26.2776 0 -71.0014)
(13.5544 0 -82.0075)
(-3.76937 0 -83.5338)
(-20.7082 0 -77.8291)
(-31.5373 0 -61.7378)
(-34.364 0 -34.8115)
(-33.4168 0 -2.21665)
(35.6367 0 64.1121)
(44.4781 0 40.3563)
(48.944 0 17.1329)
(50.6752 0 -4.46374)
(50.4769 0 -25.8608)
(47.769 0 -46.1096)
(39.3935 0 -59.8829)
(20.774 0 -63.3769)
(-2.67436 0 -61.8054)
(-25.7698 0 -60.7283)
(-42.1858 0 -53.4264)
(-46.9713 0 -33.7889)
(38.1647 0 50.7726)
(49.5418 0 32.2374)
(56.2514 0 12.8919)
(59.1999 0 -5.79921)
(58.5714 0 -24.287)
(53.6638 0 -39.7855)
(41.4934 0 -45.7342)
(19.9736 0 -40.6622)
(-0.893897 0 -34.5441)
(-21.6227 0 -39.199)
(-41.4417 0 -42.1708)
(-50.3028 0 -31.9582)
(35.4377 0 35.8688)
(47.4622 0 22.3818)
(54.6816 0 7.48433)
(56.8087 0 -6.74449)
(53.069 0 -20.3133)
(42.7864 0 -29.3378)
(25.7898 0 -26.7867)
(9.58815 0 -18.2483)
(0.355561 0 -19.1216)
(-8.45342 0 -17.8901)
(-23.8096 0 -25.0599)
(-38.6958 0 -25.2966)
(27.3132 0 21.6559)
(37.2623 0 12.9254)
(42.1953 0 3.23738)
(41.1719 0 -3.96189)
(33.9963 0 -8.93958)
(21.0449 0 -11.4632)
(7.56408 0 -13.5345)
(4.34331 0 -15.317)
(0.757166 0 -15.9719)
(-2.74997 0 -15.1451)
(-5.74227 0 -13.1931)
(-18.076 0 -10.2928)
(6.10963 0 14.5347)
(15.0226 0 13.1361)
(20.5084 0 9.26331)
(21.4885 0 4.67825)
(18.988 0 1.89331)
(16.0186 0 -1.53825)
(11.8314 0 -6.17353)
(8.14457 0 -9.15515)
(4.82899 0 -11.803)
(1.04521 0 -12.6752)
(-2.71729 0 -11.6782)
(-5.93909 0 -8.82099)
(-9.45627 0 -5.4863)
(2.34446 0 5.46484)
(7.95164 0 5.30393)
(12.4778 0 4.41901)
(15.0082 0 2.76105)
(15.5967 0 1.35345)
(15.0734 0 -0.474572)
(13.0514 0 -2.99686)
(9.8598 0 -5.86005)
(5.83291 0 -7.73025)
(1.23254 0 -8.28667)
(-3.33559 0 -7.65481)
(-7.25933 0 -5.63238)
(-10.1858 0 -2.52712)
(2.40956 0 2.95106)
(6.53752 0 2.90559)
(10.2344 0 2.66581)
(12.8913 0 2.25051)
(14.4877 0 1.74485)
(15.0202 0 0.653666)
(13.962 0 -1.01883)
(11.052 0 -2.74425)
(6.59886 0 -4.01879)
(1.35605 0 -4.4731)
(-3.85482 0 -4.10861)
(-8.19203 0 -2.88418)
(-10.8291 0 -1.14414)
)
;

boundaryField
{
    top
    {
        type            directionMixed;
        refValue        uniform (0 0 0);
        refGradient     uniform (0 0 0);
        valueFraction   uniform (0 0 0 0 0 1);
        value           nonuniform List<vector> 
13
(
(2.40956 0 0)
(6.53752 0 0)
(10.2344 0 0)
(12.8913 0 0)
(14.4877 0 0)
(15.0202 0 0)
(13.962 0 0)
(11.052 0 0)
(6.59886 0 0)
(1.35605 0 0)
(-3.85482 0 0)
(-8.19203 0 0)
(-10.8291 0 0)
)
;
    }
    bottom
    {
        type            fixedValue;
        value           uniform (0 0 0);
    }
    frontAndBack
    {
        type            empty;
    }
    left_cyc
    {
        type            cyclic;
    }
    right_cyc
    {
        type            cyclic;
    }
    procBoundary1to0
    {
        type            processor;
        value           nonuniform List<vector> 
16
(
(-22.9364 0 11.6954)
(-33.6473 0 41.5391)
(-30.1422 0 74.7871)
(-20.5513 0 97.4696)
(-9.14815 0 110.006)
(1.80359 0 113.213)
(10.9539 0 108.571)
(17.4579 0 97.6468)
(20.9164 0 82.0192)
(21.2292 0 63.4401)
(18.4399 0 43.8561)
(13.0056 0 25.8748)
(13.0056 0 25.8748)
(-3.44158 0 11.4483)
(-3.50326 0 4.92556)
(-1.5948 0 2.80553)
)
;
    }
    procBoundary1to2
    {
        type            processor;
        value           nonuniform List<vector> 
16
(
(55.6678 0 2.66356)
(70.874 0 9.58074)
(58.3408 0 17.7128)
(37.9073 0 25.2102)
(17.0265 0 31.5088)
(-1.70869 0 35.3832)
(-17.5232 0 35.9825)
(-30.1469 0 32.7729)
(-45.1046 0 -5.43035)
(-45.1046 0 -5.43035)
(-50.0722 0 -9.93356)
(-44.6405 0 -12.1535)
(-28.8693 0 -5.9989)
(-13.0056 0 -0.568739)
(-11.7498 0 0.220537)
(-11.4203 0 0.555062)
)
;
    }
}


// ************************************************************************* //
