/*--------------------------------*- C++ -*----------------------------------*\
| =========                 |                                                 |
| \\      /  F ield         | OpenFOAM: The Open Source CFD Toolbox           |
|  \\    /   O peration     | Version:  2.3.0                                 |
|   \\  /    A nd           | Web:      www.OpenFOAM.org                      |
|    \\/     M anipulation  |                                                 |
\*---------------------------------------------------------------------------*/
FoamFile
{
    version     2.0;
    format      ascii;
    class       volScalarField;
    location    "10000";
    object      p_rgh;
}
// * * * * * * * * * * * * * * * * * * * * * * * * * * * * * * * * * * * * * //

dimensions      [0 2 -2 0 0 0 0];

internalField   nonuniform List<scalar> 
192
(
-1753.18
-1762.16
-1770.71
-1779.63
-1790.01
-1803.04
-1819.44
-1838.2
-1857.4
-1873.25
-1879.21
-1869.19
-1851.82
-1722.29
-1732.08
-1741.34
-1750.72
-1761.15
-1773.7
-1788.93
-1807.38
-1828.45
-1849.37
-1859.5
-1843.49
-1822.06
-1678.86
-1689.6
-1699.91
-1710.19
-1721.05
-1733.45
-1748.9
-1770.87
-1800.3
-1834.34
-1852.52
-1824.27
-1790.7
-1650.31
-1661.3
-1672.08
-1682.58
-1692.9
-1703.78
-1718.41
-1742.21
-1779.27
-1827.06
-1853.37
-1812.67
-1766.6
-1649.14
-1658.86
-1668.58
-1677.71
-1685.76
-1693.43
-1705.02
-1727.73
-1770.01
-1829.31
-1861.96
-1811.44
-1755.01
-1669.08
-1677.02
-1684.72
-1691.13
-1695.46
-1699.02
-1705.61
-1725.91
-1771.75
-1839.06
-1875.26
-1819.05
-1755.11
-1699.61
-1705.6
-1710.58
-1713.36
-1713.43
-1712.79
-1716.57
-1736.75
-1783.67
-1851.77
-1888.7
-1831.89
-1766.92
-1732.64
-1736.24
-1738.11
-1737.89
-1736.57
-1734.9
-1739.29
-1758.73
-1801.65
-1863.74
-1899.46
-1845.88
-1786.72
-1762.32
-1764.54
-1765.46
-1765.21
-1764.01
-1763.89
-1769.31
-1786.68
-1822.44
-1874.19
-1906.71
-1859.68
-1810.46
-1785.23
-1788.82
-1791.19
-1792.49
-1793.37
-1795.33
-1801.25
-1815.54
-1842.87
-1882.42
-1909.98
-1871.93
-1834.3
-1786.88
-1795.23
-1802.39
-1808.45
-1813.75
-1819.14
-1826.33
-1838.2
-1857.99
-1885.93
-1907.36
-1879.31
-1852.57
-1732.51
-1750.21
-1766.49
-1781.45
-1795.2
-1807.98
-1820.47
-1834.08
-1850.69
-1870.84
-1886.48
-1866.95
-1847.1
-1549.02
-1578.43
-1605.95
-1631.93
-1656.6
-1680.05
-1702.29
-1723.5
-1743.95
-1763.16
-1775.25
-1759.97
-1150.91
-1185.02
-1217.63
-1248.9
-1278.77
-1306.93
-1332.93
-1356.31
-1376.73
-1393.31
-1401.44
-1390.63
-426.828
-457.569
-489.017
-521.262
-554.396
-588.338
-622.615
-656.038
-686.214
-709.023
-717.387
-704.674
)
;

boundaryField
{
    top
    {
        type            fixedValue;
        value           uniform 0;
    }
    bottom
    {
        type            fixedFluxPressure;
        gradient        uniform 0;
        value           nonuniform List<scalar> 
13
(
-1753.18
-1762.16
-1770.71
-1779.63
-1790.01
-1803.04
-1819.44
-1838.2
-1857.4
-1873.25
-1879.21
-1869.19
-1851.82
)
;
    }
    frontAndBack
    {
        type            empty;
    }
    left_cyc
    {
        type            cyclic;
    }
    right_cyc
    {
        type            cyclic;
    }
    procBoundary0to1
    {
        type            processor;
        value           nonuniform List<scalar> 
16
(
-1832.36
-1801.59
-1763.29
-1733.57
-1719.05
-1717.52
-1728.32
-1750.98
-1780.23
-1810.8
-1835.03
-1831.27
-1739.97
-1739.97
-1372.72
-679.226
)
;
    }
    procBoundary0to3throughleft_cyc
    {
        type            processorCyclic;
        value           nonuniform List<scalar> 
15
(
-1743.33
-1711.42
-1667.52
-1639.14
-1639.8
-1661.69
-1693.67
-1728.13
-1758.9
-1780.43
-1777.28
-1713.28
-1517.49
-1114.97
-396.771
)
;
    }
}


// ************************************************************************* //
