/*--------------------------------*- C++ -*----------------------------------*\
| =========                 |                                                 |
| \\      /  F ield         | OpenFOAM: The Open Source CFD Toolbox           |
|  \\    /   O peration     | Version:  2.3.0                                 |
|   \\  /    A nd           | Web:      www.OpenFOAM.org                      |
|    \\/     M anipulation  |                                                 |
\*---------------------------------------------------------------------------*/
FoamFile
{
    version     2.0;
    format      ascii;
    class       volScalarField;
    location    "10000";
    object      T;
}
// * * * * * * * * * * * * * * * * * * * * * * * * * * * * * * * * * * * * * //

dimensions      [0 0 0 1 0 0 0];

internalField   nonuniform List<scalar> 
192
(
40.0038
40.065
40.0178
39.9151
39.8357
39.8832
40.1416
40.4263
40.8084
41.3198
41.6217
41.1571
40.6703
33.0339
33.2216
33.2958
33.303
33.3302
33.5023
33.9164
34.7268
36.07
37.8578
38.8765
37.3157
35.6173
28.1313
28.4537
28.7029
28.9072
29.1185
29.4264
29.9818
31.1512
33.1222
35.73
37.1883
34.9393
32.4391
26.0136
26.3894
26.7328
27.0458
27.3384
27.6617
28.231
29.4319
31.5735
34.5048
36.1359
33.6151
30.8175
25.9938
26.33
26.6607
26.9615
27.2108
27.4435
27.8794
28.8984
30.9412
33.875
35.492
32.9876
30.2046
26.9123
27.1887
27.4574
27.6778
27.8178
27.9314
28.1758
28.9923
30.8669
33.6289
35.1114
32.8052
30.1818
28.052
28.2672
28.4518
28.5655
28.5905
28.5976
28.7637
29.5001
31.1608
33.5478
34.8336
32.8487
30.5675
29.0953
29.2411
29.3397
29.3806
29.3933
29.404
29.6027
30.2551
31.6055
33.512
34.5929
32.9622
31.1375
29.909
30.0218
30.1042
30.1611
30.1997
30.2759
30.5068
31.0571
32.0851
33.5084
34.3805
33.1089
31.7438
30.465
30.6149
30.7399
30.8459
30.9506
31.0911
31.3346
31.7793
32.5215
33.5199
34.1867
33.255
32.2917
30.4997
30.7555
30.9897
31.2074
31.4184
31.6423
31.9148
32.2897
32.821
33.4906
33.9688
33.3314
32.676
29.4135
29.8539
30.2694
30.6657
31.048
31.4227
31.8016
32.2044
32.6517
33.1297
33.4606
33.0346
32.5502
26.0867
26.74
27.364
27.9679
28.5579
29.1362
29.7008
30.2459
30.7598
31.2076
31.459
31.1289
19.1928
19.9022
20.5891
21.2595
21.9167
22.5595
23.1814
23.7684
24.2948
24.7103
24.8963
24.6375
7.70732
8.09959
8.488
8.874
9.25699
9.63299
9.99357
10.3249
10.6069
10.8108
10.8892
10.7751
)
;

boundaryField
{
    top
    {
        type            fixedValue;
        value           uniform 0;
    }
    bottom
    {
        type            fixedValue;
        value           uniform 43.8;
    }
    frontAndBack
    {
        type            empty;
    }
    left_cyc
    {
        type            cyclic;
    }
    right_cyc
    {
        type            cyclic;
    }
    procBoundary0to1
    {
        type            processor;
        value           nonuniform List<scalar> 
16
(
40.3169
34.4447
30.7031
28.9656
28.4918
28.6482
29.1937
29.9993
30.8579
31.635
32.187
32.1118
30.6526
30.6526
24.1836
10.5476
)
;
    }
    procBoundary0to3throughleft_cyc
    {
        type            processorCyclic;
        value           nonuniform List<scalar> 
15
(
39.8373
32.6957
27.727
25.605
25.6669
26.6567
27.8419
28.9266
29.7683
30.2891
30.2184
28.9421
25.3966
18.456
7.31057
)
;
    }
}


// ************************************************************************* //
