/*--------------------------------*- C++ -*----------------------------------*\
| =========                 |                                                 |
| \\      /  F ield         | OpenFOAM: The Open Source CFD Toolbox           |
|  \\    /   O peration     | Version:  2.3.0                                 |
|   \\  /    A nd           | Web:      www.OpenFOAM.org                      |
|    \\/     M anipulation  |                                                 |
\*---------------------------------------------------------------------------*/
FoamFile
{
    version     2.0;
    format      ascii;
    class       volVectorField;
    location    "10000";
    object      U;
}
// * * * * * * * * * * * * * * * * * * * * * * * * * * * * * * * * * * * * * //

dimensions      [0 1 -1 0 0 0 0];

internalField   nonuniform List<vector> 
192
(
(46.17 0 0.568256)
(46.2737 0 -0.0106164)
(47.6462 0 -0.783192)
(50.4718 0 -1.64565)
(54.5323 0 -2.31375)
(58.8465 0 -2.2934)
(61.3742 0 -0.978236)
(59.054 0 1.96274)
(48.3489 0 6.39607)
(26.5155 0 11.2097)
(-4.81298 0 13.3289)
(-34.3077 0 9.90066)
(-52.6903 0 4.97668)
(81.2081 0 0.120217)
(82.8817 0 -1.5887)
(85.6531 0 -3.63634)
(89.4541 0 -5.57036)
(93.7384 0 -6.48408)
(97.1802 0 -4.96692)
(97.4012 0 0.618286)
(90.7402 0 11.5421)
(72.7289 0 27.5782)
(39.5793 0 44.8371)
(-7.19588 0 52.2182)
(-51.2235 0 40.1867)
(-79.617 0 22.4727)
(85.5012 0 -1.89189)
(87.9094 0 -4.37188)
(90.7583 0 -7.13049)
(93.8122 0 -9.36871)
(96.4808 0 -9.61094)
(97.6327 0 -5.62175)
(95.3796 0 5.31418)
(86.9173 0 25.5868)
(68.615 0 55.1601)
(37.0982 0 87.1913)
(-6.72654 0 100.686)
(-48.0114 0 78.5619)
(-75.3385 0 45.7093)
(76.5628 0 -4.14017)
(78.544 0 -6.77716)
(80.4024 0 -9.49961)
(81.8394 0 -11.2809)
(82.345 0 -10.3088)
(81.0998 0 -3.85901)
(76.8701 0 11.4435)
(67.9705 0 38.6877)
(52.2529 0 78.1435)
(27.7078 0 120.976)
(-4.9392 0 138.837)
(-35.9155 0 109.452)
(-57.7095 0 65.5233)
(60.9463 0 -5.7537)
(61.8074 0 -8.12993)
(62.1586 0 -10.3485)
(61.7325 0 -11.2548)
(60.1732 0 -8.8647)
(57.0066 0 -0.216132)
(51.6297 0 18.3413)
(43.4002 0 50.1251)
(31.6282 0 95.4125)
(15.9734 0 144.104)
(-2.70401 0 164.121)
(-20.8102 0 131.096)
(-35.3892 0 81.0114)
(40.2669 0 -6.21207)
(39.8299 0 -8.03101)
(38.6936 0 -9.48059)
(36.6894 0 -9.37269)
(33.6532 0 -5.69003)
(29.4434 0 4.55239)
(24.0123 0 24.9635)
(17.5363 0 58.722)
(10.5443 0 105.767)
(4.24132 0 155.367)
(-0.49539 0 175.404)
(-5.66336 0 142.291)
(-12.4312 0 90.9782)
(15.9393 0 -5.44796)
(14.4144 0 -6.59395)
(12.1889 0 -7.25311)
(9.2102 0 -6.26748)
(5.48663 0 -1.67429)
(1.16135 0 9.37489)
(-3.35688 0 30.2291)
(-7.25161 0 63.6373)
(-8.97492 0 108.902)
(-6.24119 0 155.242)
(1.42511 0 173.635)
(7.94773 0 143.27)
(9.00958 0 94.9195)
(-9.66024 0 -3.78205)
(-11.84 0 -4.29241)
(-14.6364 0 -4.28788)
(-18.0103 0 -2.67635)
(-21.8027 0 2.36407)
(-25.6018 0 13.4023)
(-28.5924 0 33.3795)
(-29.3502 0 64.3669)
(-25.6197 0 104.944)
(-14.7836 0 145.059)
(2.91251 0 160.771)
(19.1039 0 134.959)
(27.5079 0 92.6931)
(-33.7569 0 -1.68308)
(-36.1457 0 -1.61901)
(-39.0955 0 -1.07641)
(-42.485 0 0.910055)
(-45.9814 0 5.93177)
(-48.8908 0 16.1664)
(-49.9966 0 33.9757)
(-47.3855 0 60.6977)
(-38.5182 0 94.49)
(-21.0798 0 126.765)
(3.91758 0 139.309)
(27.345 0 118.883)
(42.0285 0 84.5517)
(-53.6271 0 0.432071)
(-55.8894 0 1.05204)
(-58.6816 0 2.0557)
(-61.7959 0 4.20949)
(-64.7353 0 8.76767)
(-66.5572 0 17.4197)
(-65.7145 0 31.8864)
(-60.0277 0 52.9283)
(-47.0151 0 78.729)
(-24.9847 0 102.651)
(4.43937 0 111.933)
(32.422 0 97.0061)
(51.7227 0 71.3508)
(-66.4509 0 2.29565)
(-68.3422 0 3.45649)
(-70.6708 0 4.85598)
(-73.185 0 7.00148)
(-75.3066 0 10.746)
(-75.9666 0 17.2268)
(-73.4863 0 27.5602)
(-65.6656 0 42.1501)
(-50.2767 0 59.6096)
(-26.2458 0 75.4617)
(4.47328 0 81.6541)
(33.9791 0 71.8539)
(55.5493 0 54.7568)
(-69.3325 0 3.57946)
(-70.6079 0 5.10821)
(-72.0646 0 6.68461)
(-73.503 0 8.56714)
(-74.4267 0 11.2072)
(-73.8858 0 15.2073)
(-70.3801 0 21.1597)
(-61.9771 0 29.279)
(-46.8187 0 38.822)
(-24.2195 0 47.4169)
(3.96296 0 50.845)
(31.2046 0 45.5262)
(51.8012 0 36.2395)
(-61.4439 0 5.43392)
(-61.694 0 7.17712)
(-61.6488 0 8.97075)
(-61.2498 0 10.8596)
(-60.2577 0 12.9243)
(-58.1381 0 15.2671)
(-53.9838 0 17.9817)
(-46.5718 0 21.0832)
(-34.6812 0 24.3754)
(-17.8324 0 27.2479)
(2.79357 0 28.4416)
(22.8228 0 26.6453)
(-54.4017 0 3.09716)
(-52.3185 0 3.9078)
(-49.5911 0 4.7012)
(-46.2144 0 5.49886)
(-42.1546 0 6.30663)
(-37.3448 0 7.10815)
(-31.6831 0 7.86044)
(-25.043 0 8.49491)
(-17.3057 0 8.93427)
(-8.46261 0 9.13897)
(1.2439 0 9.1636)
(10.8246 0 9.10405)
(-52.6633 0 2.92643)
(-50.3967 0 3.11212)
(-47.4821 0 3.28302)
(-43.8963 0 3.4435)
(-39.6049 0 3.59561)
(-34.57 0 3.738)
(-28.7629 0 3.86564)
(-22.1874 0 3.97034)
(-14.9087 0 4.04371)
(-7.08603 0 4.08222)
(1.03347 0 4.09399)
(9.10879 0 4.07704)
)
;

boundaryField
{
    top
    {
        type            directionMixed;
        refValue        uniform (0 0 0);
        refGradient     uniform (0 0 0);
        valueFraction   uniform (0 0 0 0 0 1);
        value           nonuniform List<vector> 
12
(
(-52.6633 0 0)
(-50.3967 0 0)
(-47.4821 0 0)
(-43.8963 0 0)
(-39.6049 0 0)
(-34.57 0 0)
(-28.7629 0 0)
(-22.1874 0 0)
(-14.9087 0 0)
(-7.08603 0 0)
(1.03347 0 0)
(9.10879 0 0)
)
;
    }
    bottom
    {
        type            fixedValue;
        value           uniform (0 0 0);
    }
    frontAndBack
    {
        type            empty;
    }
    left_cyc
    {
        type            cyclic;
    }
    right_cyc
    {
        type            cyclic;
    }
    procBoundary0to1
    {
        type            processor;
        value           nonuniform List<vector> 
16
(
(-60.5848 0 0.917031)
(-93.8385 0 7.7314)
(-90.3535 0 18.542)
(-71.2028 0 29.2665)
(-46.1024 0 39.2458)
(-19.4366 0 47.3187)
(6.34602 0 52.5283)
(29.5622 0 54.2579)
(48.7302 0 52.1665)
(62.3446 0 46.3608)
(68.5865 0 37.7013)
(64.938 0 26.8622)
(38.3886 0 23.5309)
(38.3886 0 23.5309)
(19.3917 0 8.84174)
(16.8112 0 4.03156)
)
;
    }
    procBoundary0to3throughleft_cyc
    {
        type            processorCyclic;
        value           nonuniform List<vector> 
15
(
(47.008 0 0.965581)
(80.4564 0 1.35113)
(83.5538 0 -0.0230682)
(74.6051 0 -2.08064)
(59.7681 0 -3.82085)
(40.1667 0 -4.66751)
(16.8537 0 -4.44224)
(-8.06798 0 -3.33639)
(-31.9341 0 -1.76998)
(-51.9315 0 -0.183415)
(-65.0588 0 1.15752)
(-68.2863 0 2.03244)
(-60.902 0 3.75064)
(-55.8279 0 2.25577)
(-54.2951 0 2.72332)
)
;
    }
}


// ************************************************************************* //
