/*--------------------------------*- C++ -*----------------------------------*\
| =========                 |                                                 |
| \\      /  F ield         | OpenFOAM: The Open Source CFD Toolbox           |
|  \\    /   O peration     | Version:  2.3.0                                 |
|   \\  /    A nd           | Web:      www.OpenFOAM.org                      |
|    \\/     M anipulation  |                                                 |
\*---------------------------------------------------------------------------*/
FoamFile
{
    version     2.0;
    format      ascii;
    class       volScalarField;
    location    "18000";
    object      NUEff;
}
// * * * * * * * * * * * * * * * * * * * * * * * * * * * * * * * * * * * * * //

dimensions      [0 2 -1 0 0 0 0];

internalField   nonuniform List<scalar> 
765
(
0.28562
0.274644
0.257954
0.239232
0.221053
0.20479
0.191188
0.181412
0.173671
0.167468
0.162725
0.159555
0.158225
0.159084
0.161864
0.16626
0.172124
0.179482
0.18874
0.201447
0.217141
0.234973
0.253772
0.271278
0.284022
0.288083
0.281374
0.266991
0.248854
0.230152
0.212816
0.197836
0.186178
0.177445
0.170478
0.164982
0.16098
0.158659
0.158361
0.160195
0.163785
0.168905
0.175486
0.183715
0.19439
0.208674
0.225483
0.243963
0.262469
0.278108
0.287037
0.964057
0.961994
0.957931
0.95113
0.939849
0.919812
0.878668
0.7718
0.502433
0.296485
0.224895
0.19681
0.187539
0.193413
0.216223
0.273297
0.436877
0.725455
0.861931
0.912978
0.936304
0.949064
0.956682
0.961289
0.96379
0.964482
0.963315
0.960309
0.955034
0.946356
0.931609
0.903753
0.839418
0.660271
0.376617
0.252908
0.208192
0.19046
0.188442
0.201701
0.236968
0.33021
0.581919
0.80995
0.89242
0.926113
0.943272
0.953167
0.959169
0.962687
0.964298
0.985526
0.984719
0.983191
0.980798
0.977203
0.971701
0.962731
0.946346
0.91086
0.805426
0.47887
0.284819
0.243667
0.268577
0.409487
0.754636
0.896883
0.940733
0.959886
0.970058
0.976164
0.980111
0.98274
0.984451
0.985422
0.985696
0.985235
0.984078
0.982151
0.979228
0.974827
0.967915
0.956068
0.932911
0.875752
0.674905
0.351356
0.255561
0.247235
0.311051
0.574694
0.846109
0.923035
0.951554
0.965459
0.973327
0.978249
0.981494
0.983648
0.984988
0.985621
0.9912
0.990629
0.989565
0.987948
0.985619
0.982234
0.977053
0.968326
0.951808
0.9145
0.801807
0.502174
0.362216
0.44688
0.749968
0.899654
0.946081
0.965545
0.975509
0.981267
0.984968
0.987495
0.989256
0.99044
0.991126
0.99132
0.990993
0.990179
0.988855
0.986918
0.984135
0.980011
0.973448
0.961754
0.937947
0.876946
0.672429
0.401777
0.373796
0.582052
0.84497
0.927488
0.957155
0.971026
0.978591
0.983214
0.986285
0.988412
0.98988
0.990818
0.991267
0.993492
0.992977
0.992024
0.990605
0.988625
0.985854
0.981776
0.975169
0.963398
0.939644
0.88227
0.730351
0.572996
0.682806
0.859393
0.931098
0.959536
0.97314
0.980603
0.985083
0.988083
0.990213
0.991748
0.992804
0.993424
0.993598
0.993303
0.992569
0.991393
0.989717
0.987394
0.984083
0.979009
0.970382
0.954168
0.918715
0.825301
0.631085
0.591359
0.78091
0.902503
0.947522
0.967109
0.977178
0.982967
0.986643
0.989182
0.991007
0.992303
0.993147
0.993552
0.99462
0.994091
0.993114
0.991677
0.989715
0.987058
0.983287
0.977402
0.967413
0.948679
0.909416
0.827051
0.744039
0.803226
0.895551
0.94235
0.964248
0.975637
0.982211
0.986329
0.989184
0.991281
0.992829
0.993911
0.994547
0.994724
0.994423
0.993669
0.992468
0.990786
0.988518
0.985396
0.980779
0.973266
0.95992
0.933485
0.876148
0.776371
0.754588
0.852587
0.922431
0.954694
0.970499
0.979158
0.984371
0.987803
0.99026
0.99208
0.9934
0.994265
0.994681
0.995287
0.994715
0.99365
0.992083
0.989967
0.987162
0.983317
0.977596
0.968372
0.952199
0.922066
0.870457
0.827473
0.857454
0.912432
0.947018
0.965539
0.97592
0.982234
0.986401
0.989396
0.991649
0.993335
0.994516
0.995206
0.995396
0.995072
0.994251
0.992939
0.991113
0.988688
0.985442
0.980832
0.973706
0.961731
0.939968
0.899642
0.843403
0.832537
0.885138
0.931534
0.957238
0.971163
0.97927
0.984404
0.987939
0.99055
0.99252
0.99396
0.994904
0.995352
0.995777
0.995151
0.993976
0.992237
0.989883
0.986786
0.982648
0.976847
0.968042
0.953741
0.930069
0.896083
0.872016
0.888471
0.923166
0.949409
0.965434
0.975197
0.981518
0.98595
0.989244
0.991749
0.993624
0.994929
0.995686
0.995893
0.995539
0.994637
0.993184
0.991151
0.988459
0.984908
0.980082
0.973054
0.961996
0.943685
0.914399
0.88052
0.874632
0.90503
0.937119
0.958049
0.970642
0.978509
0.983798
0.987637
0.990528
0.992722
0.994319
0.995358
0.995848
0.996213
0.995538
0.994269
0.992381
0.98981
0.986439
0.982049
0.976209
0.967913
0.95555
0.937382
0.915
0.901036
0.910441
0.932513
0.952019
0.965555
0.974598
0.980878
0.985533
0.989106
0.991846
0.993885
0.995296
0.996112
0.996336
0.995953
0.99498
0.993407
0.991191
0.988246
0.984416
0.979413
0.972545
0.962515
0.94749
0.926554
0.905779
0.902445
0.920505
0.94251
0.959134
0.970292
0.977842
0.983243
0.987354
0.990514
0.992908
0.994639
0.99576
0.996289
0.996662
0.995968
0.994674
0.992746
0.990111
0.986659
0.98225
0.976646
0.969215
0.95914
0.946031
0.931973
0.92406
0.929326
0.942787
0.956435
0.967195
0.975145
0.981093
0.985731
0.989384
0.992195
0.99428
0.995719
0.996556
0.996788
0.996392
0.995396
0.993791
0.991522
0.988499
0.984596
0.979667
0.973272
0.964658
0.953072
0.938944
0.926655
0.924801
0.93522
0.949533
0.961937
0.971276
0.978172
0.983422
0.987589
0.990831
0.993284
0.995051
0.996196
0.996741
0.997158
0.996496
0.995277
0.993476
0.99103
0.987854
0.983879
0.979029
0.973028
0.965655
0.957168
0.949152
0.945014
0.947739
0.955219
0.963798
0.97147
0.977765
0.982848
0.987001
0.990354
0.99296
0.994906
0.996259
0.997055
0.997279
0.996898
0.995954
0.994448
0.992334
0.989535
0.985968
0.981598
0.976225
0.96957
0.961562
0.952978
0.946326
0.945373
0.950899
0.959313
0.96761
0.974635
0.980319
0.98492
0.988704
0.991696
0.993977
0.995631
0.996712
0.997235
0.997713
0.99714
0.996106
0.994613
0.992632
0.990124
0.987079
0.983511
0.979393
0.974801
0.970089
0.966109
0.964196
0.965444
0.969077
0.973713
0.978374
0.982609
0.986299
0.989458
0.99209
0.99419
0.995794
0.996936
0.997622
0.997819
0.997485
0.996676
0.995414
0.993681
0.991441
0.988661
0.98537
0.981535
0.977166
0.972445
0.967945
0.964785
0.96435
0.966934
0.971221
0.975966
0.98046
0.984441
0.987871
0.990791
0.993168
0.995026
0.996404
0.997326
0.99778
0.998321
0.997889
0.997132
0.99608
0.994743
0.993123
0.991235
0.989114
0.986826
0.984489
0.982313
0.980633
0.979867
0.980363
0.981871
0.983964
0.986284
0.988594
0.990758
0.992702
0.994386
0.995789
0.996908
0.997737
0.998251
0.998403
0.998148
0.997546
0.996638
0.995443
0.993964
0.992208
0.990202
0.98799
0.985661
0.98337
0.981387
0.980098
0.979927
0.980968
0.982815
0.98506
0.987401
0.989657
0.991725
0.99355
0.9951
0.996367
0.997347
0.998028
0.998373
0.998971
0.998711
0.998275
0.9977
0.997012
0.996226
0.995347
0.994391
0.993419
0.992496
0.991697
0.991119
0.990866
0.991029
0.991542
0.992297
0.993198
0.994163
0.995127
0.996027
0.996835
0.997546
0.998149
0.998621
0.998928
0.999021
0.998865
0.99851
0.998001
0.997367
0.99663
0.995799
0.994875
0.993905
0.992949
0.992077
0.991374
0.990941
0.990885
0.991232
0.991876
0.992715
0.993658
0.994632
0.995577
0.996431
0.997193
0.997854
0.998397
0.998794
0.999003
0.999645
0.999562
0.999431
0.99927
0.999092
0.998901
0.998692
0.998459
0.998233
0.998028
0.997859
0.997742
0.997692
0.997724
0.997827
0.997985
0.998183
0.998405
0.998637
0.998854
0.999048
0.999229
0.999394
0.999534
0.999631
0.999662
0.999611
0.999501
0.999352
0.999182
0.998999
0.998802
0.998576
0.998345
0.998127
0.997939
0.997794
0.997707
0.997696
0.997765
0.997897
0.998076
0.998287
0.998517
0.998749
0.998951
0.999138
0.999312
0.999467
0.999588
0.999656
)
;

boundaryField
{
    top
    {
        type            calculated;
        value           uniform 1;
    }
    bottom
    {
        type            calculated;
        value           uniform 0.148957;
    }
    frontAndBack
    {
        type            empty;
    }
    left_cyc
    {
        type            cyclic;
    }
    right_cyc
    {
        type            cyclic;
    }
}


// ************************************************************************* //
