/*--------------------------------*- C++ -*----------------------------------*\
| =========                 |                                                 |
| \\      /  F ield         | OpenFOAM: The Open Source CFD Toolbox           |
|  \\    /   O peration     | Version:  2.3.0                                 |
|   \\  /    A nd           | Web:      www.OpenFOAM.org                      |
|    \\/     M anipulation  |                                                 |
\*---------------------------------------------------------------------------*/
FoamFile
{
    version     2.0;
    format      ascii;
    class       volScalarField;
    location    "18000";
    object      NUEff;
}
// * * * * * * * * * * * * * * * * * * * * * * * * * * * * * * * * * * * * * //

dimensions      [0 2 -1 0 0 0 0];

internalField   nonuniform List<scalar> 
3060
(
0.175161
0.174969
0.174617
0.174119
0.173488
0.172738
0.171883
0.170934
0.169902
0.168796
0.167623
0.16639
0.165108
0.163815
0.162538
0.16128
0.160043
0.158837
0.157681
0.156597
0.15561
0.154746
0.154032
0.153496
0.153166
0.153066
0.153206
0.153573
0.154142
0.154884
0.155772
0.156779
0.157878
0.159046
0.16026
0.161503
0.162767
0.164051
0.16535
0.166627
0.167852
0.169015
0.170107
0.171123
0.172052
0.172884
0.173607
0.174206
0.174667
0.174978
0.175127
0.175103
0.174909
0.174556
0.174056
0.173422
0.172668
0.171808
0.170855
0.169817
0.168705
0.167525
0.166285
0.164997
0.163701
0.162423
0.161164
0.159927
0.158724
0.157572
0.156495
0.155518
0.154667
0.153969
0.153453
0.153145
0.153069
0.153234
0.153622
0.154209
0.154967
0.155867
0.156883
0.157989
0.159161
0.160376
0.161619
0.162882
0.164164
0.16546
0.166731
0.167949
0.169104
0.170191
0.171201
0.172125
0.172953
0.173672
0.174269
0.174728
0.175037
0.175185
0.636196
0.628573
0.614318
0.593398
0.565902
0.532336
0.493913
0.452635
0.410981
0.371297
0.335244
0.303629
0.276566
0.253765
0.235142
0.219983
0.207471
0.197097
0.188515
0.181467
0.175748
0.171205
0.167732
0.165272
0.163813
0.163375
0.16399
0.165621
0.168253
0.171905
0.176646
0.182586
0.189891
0.198776
0.209512
0.22247
0.238206
0.257649
0.281258
0.309216
0.341747
0.378611
0.418825
0.460547
0.50134
0.538772
0.570992
0.596946
0.616237
0.628814
0.634693
0.633756
0.626053
0.611654
0.590538
0.562819
0.529045
0.490484
0.449185
0.407649
0.3682
0.332455
0.301174
0.274441
0.251947
0.233639
0.218718
0.206402
0.196196
0.187762
0.180846
0.175245
0.170809
0.167438
0.165079
0.163721
0.16339
0.16411
0.165842
0.168574
0.17233
0.177181
0.183244
0.190686
0.199725
0.210637
0.223802
0.239788
0.25956
0.283483
0.311774
0.344637
0.381796
0.422219
0.464022
0.504759
0.542027
0.574027
0.59976
0.618863
0.63131
0.637125
0.940678
0.939936
0.938535
0.93643
0.933533
0.929703
0.924721
0.918245
0.909745
0.898364
0.882668
0.860123
0.826037
0.771547
0.682318
0.55466
0.424014
0.330684
0.273086
0.23741
0.214393
0.199061
0.188774
0.182123
0.178391
0.177297
0.178836
0.183037
0.190245
0.201276
0.217705
0.242481
0.28118
0.344043
0.444895
0.579174
0.701311
0.783562
0.83352
0.865018
0.886039
0.900784
0.911531
0.919586
0.92573
0.930454
0.934069
0.936779
0.938713
0.939948
0.940521
0.94043
0.939678
0.938258
0.936123
0.933182
0.929289
0.924216
0.91761
0.908917
0.897242
0.881076
0.857744
0.822266
0.765264
0.672147
0.541735
0.413291
0.323788
0.268815
0.234673
0.212573
0.197829
0.187953
0.18162
0.178162
0.177334
0.179139
0.183621
0.191167
0.202648
0.219737
0.245565
0.286049
0.35193
0.45668
0.591897
0.710449
0.789059
0.836846
0.867148
0.887486
0.901817
0.912302
0.920183
0.926209
0.93085
0.934408
0.937078
0.938985
0.940203
0.940768
0.97187
0.971568
0.971
0.970158
0.969019
0.967546
0.965684
0.963351
0.960428
0.956734
0.952
0.945798
0.937436
0.925709
0.908385
0.881201
0.834352
0.745347
0.584458
0.409402
0.305393
0.252176
0.223335
0.207169
0.198834
0.196478
0.199801
0.209283
0.227155
0.259061
0.318631
0.435126
0.617053
0.765522
0.844789
0.887079
0.912053
0.928165
0.939175
0.947082
0.952975
0.957492
0.961023
0.96382
0.96605
0.967826
0.969222
0.970292
0.971067
0.971568
0.971802
0.971764
0.971458
0.970884
0.970031
0.968877
0.967383
0.965493
0.963121
0.960143
0.956374
0.95153
0.945167
0.936554
0.924421
0.906391
0.87786
0.828173
0.733114
0.565688
0.395743
0.298363
0.248444
0.221237
0.206013
0.198336
0.196557
0.200464
0.210657
0.229606
0.263467
0.327092
0.451017
0.63491
0.775744
0.849995
0.889988
0.913853
0.929331
0.939981
0.947665
0.953413
0.95783
0.961292
0.96404
0.966234
0.967983
0.96936
0.970416
0.971181
0.971676
0.971907
0.98261
0.982419
0.982063
0.981536
0.980828
0.979923
0.978792
0.977396
0.975678
0.973557
0.970913
0.967568
0.963248
0.95752
0.949663
0.938391
0.921232
0.892909
0.840718
0.732847
0.538266
0.36858
0.285294
0.246409
0.228586
0.223801
0.230576
0.251156
0.295323
0.390512
0.574888
0.757643
0.852505
0.899058
0.924851
0.940724
0.951269
0.958686
0.964124
0.968245
0.971447
0.973983
0.976021
0.977671
0.97901
0.980091
0.980952
0.981617
0.982102
0.982417
0.982565
0.982541
0.982348
0.981987
0.981454
0.980738
0.97982
0.978673
0.977255
0.975509
0.973348
0.97065
0.967228
0.962797
0.956902
0.948781
0.937069
0.919111
0.889178
0.83331
0.717101
0.517268
0.356901
0.279901
0.243842
0.227562
0.22396
0.231958
0.254308
0.301955
0.404859
0.596353
0.770604
0.858583
0.902228
0.926705
0.941904
0.952068
0.959253
0.964542
0.968562
0.971694
0.974181
0.976182
0.977805
0.979124
0.980191
0.98104
0.981697
0.982176
0.982488
0.982633
0.987804
0.987658
0.987387
0.986989
0.986456
0.985778
0.984938
0.983911
0.982662
0.981141
0.979273
0.976953
0.974023
0.970238
0.965218
0.958296
0.948342
0.933203
0.908345
0.862953
0.769134
0.585854
0.402272
0.311272
0.273817
0.264357
0.277821
0.321782
0.426617
0.622417
0.790755
0.873097
0.913682
0.936363
0.950382
0.959698
0.966228
0.970996
0.974608
0.977416
0.979644
0.981442
0.982908
0.98411
0.985097
0.985902
0.986547
0.987049
0.987417
0.987656
0.987769
0.987751
0.987604
0.98733
0.986926
0.986387
0.9857
0.984848
0.983806
0.982537
0.980989
0.979086
0.976716
0.973715
0.96983
0.964657
0.957496
0.947146
0.931298
0.905029
0.856447
0.755039
0.56403
0.38916
0.305657
0.271766
0.264668
0.28064
0.328903
0.442714
0.643615
0.802192
0.878447
0.916506
0.938028
0.951446
0.960418
0.966734
0.971372
0.974894
0.977638
0.979822
0.981586
0.983027
0.984211
0.985184
0.985978
0.986615
0.98711
0.987474
0.987711
0.987822
0.990724
0.9906
0.99037
0.990033
0.989585
0.989017
0.988319
0.987472
0.986452
0.985222
0.983729
0.981898
0.979616
0.976715
0.972937
0.967841
0.960734
0.950386
0.934428
0.907838
0.858709
0.758277
0.578713
0.418352
0.344833
0.326794
0.352564
0.438902
0.61241
0.780951
0.869644
0.913537
0.937751
0.952499
0.962167
0.968861
0.973691
0.97729
0.980066
0.982259
0.984023
0.985463
0.986651
0.987636
0.988451
0.989121
0.989662
0.990084
0.990396
0.990599
0.990694
0.990679
0.990554
0.990322
0.989981
0.989527
0.988952
0.988244
0.987386
0.98635
0.985099
0.983578
0.981709
0.979375
0.976401
0.972515
0.967256
0.959892
0.949112
0.932374
0.904218
0.851577
0.743449
0.558767
0.407259
0.340884
0.327383
0.358056
0.452709
0.632602
0.79323
0.875511
0.916609
0.939541
0.95363
0.962926
0.969393
0.974078
0.977581
0.980291
0.982436
0.984166
0.985581
0.986749
0.987719
0.988523
0.989184
0.989718
0.990136
0.990444
0.990644
0.990739
0.992506
0.992393
0.992183
0.991876
0.991469
0.990956
0.99033
0.989578
0.988678
0.987604
0.986313
0.984745
0.982813
0.980384
0.977256
0.973099
0.967417
0.959362
0.947406
0.928569
0.896516
0.836934
0.723168
0.562748
0.452038
0.421861
0.464714
0.589102
0.747306
0.850053
0.903391
0.932497
0.949846
0.960982
0.96855
0.973924
0.977875
0.980862
0.983192
0.985052
0.986565
0.987814
0.988853
0.989723
0.99045
0.991051
0.99154
0.991923
0.992207
0.992393
0.99248
0.992466
0.992352
0.99214
0.991829
0.991417
0.990899
0.990265
0.989502
0.988589
0.987496
0.986182
0.984584
0.982609
0.980121
0.976906
0.972623
0.966747
0.958382
0.945898
0.926089
0.892076
0.828325
0.707747
0.547618
0.445481
0.422858
0.47362
0.605713
0.760909
0.857216
0.907149
0.934648
0.95118
0.961861
0.969157
0.97436
0.978198
0.981107
0.983383
0.985204
0.986689
0.987916
0.988939
0.989796
0.990513
0.991107
0.99159
0.991969
0.99225
0.992433
0.992519
0.993651
0.993542
0.99334
0.993044
0.992654
0.992165
0.991572
0.990864
0.990025
0.989033
0.987852
0.986432
0.984699
0.98254
0.979783
0.976165
0.971289
0.96451
0.954711
0.939853
0.915977
0.875078
0.802591
0.689702
0.582335
0.546032
0.596596
0.710613
0.81785
0.883777
0.92096
0.942892
0.956684
0.965859
0.972253
0.976877
0.980326
0.982962
0.985037
0.98671
0.988083
0.989228
0.99019
0.991002
0.991687
0.992257
0.992724
0.993092
0.993366
0.993545
0.993629
0.993615
0.993505
0.993301
0.993002
0.992607
0.992113
0.991512
0.990795
0.989944
0.988936
0.987735
0.986287
0.984517
0.982306
0.979477
0.975752
0.970718
0.963693
0.953492
0.937941
0.912783
0.869426
0.792734
0.677022
0.574719
0.547287
0.606288
0.723164
0.826436
0.8886
0.923722
0.944576
0.957772
0.966598
0.972775
0.977258
0.980611
0.98318
0.985209
0.986847
0.988195
0.989321
0.990268
0.991069
0.991745
0.992308
0.99277
0.993134
0.993404
0.993581
0.993665
0.994419
0.994309
0.994106
0.993809
0.993419
0.992933
0.992346
0.991651
0.990835
0.989878
0.98875
0.987408
0.985784
0.98378
0.981242
0.977946
0.973561
0.967557
0.959058
0.946546
0.927297
0.896381
0.845958
0.77108
0.693582
0.66382
0.704673
0.785083
0.85625
0.902766
0.931231
0.949069
0.960751
0.968743
0.974422
0.978592
0.981739
0.984171
0.986101
0.987671
0.988972
0.990067
0.990997
0.991789
0.992462
0.993027
0.993492
0.993861
0.994135
0.994314
0.994399
0.994385
0.994275
0.994069
0.99377
0.993375
0.992884
0.99229
0.991586
0.990758
0.989787
0.98864
0.987273
0.985615
0.983565
0.980961
0.977572
0.97305
0.966839
0.958014
0.944964
0.924793
0.892275
0.839366
0.762478
0.687527
0.66489
0.712037
0.793413
0.862104
0.906351
0.933433
0.950476
0.961691
0.969396
0.974891
0.978937
0.982
0.984372
0.98626
0.987799
0.989077
0.990154
0.99107
0.991852
0.992516
0.993075
0.993535
0.993899
0.994171
0.994349
0.994432
0.994955
0.994841
0.994631
0.994325
0.993922
0.993423
0.992823
0.992118
0.991296
0.990341
0.989227
0.987913
0.986341
0.984417
0.982003
0.978903
0.974825
0.96932
0.961666
0.950679
0.93438
0.909566
0.871966
0.820253
0.768323
0.748023
0.775809
0.829704
0.879406
0.914567
0.937655
0.952868
0.963178
0.970401
0.975623
0.979508
0.982475
0.984793
0.986649
0.988172
0.989448
0.990533
0.991462
0.992261
0.992945
0.993523
0.994001
0.994381
0.994664
0.99485
0.994937
0.994923
0.994809
0.994597
0.994287
0.993881
0.993376
0.99277
0.992056
0.991223
0.990254
0.989122
0.987785
0.986181
0.984214
0.98174
0.978554
0.974354
0.968668
0.960737
0.949313
0.932311
0.906384
0.86726
0.814485
0.764226
0.748761
0.780753
0.835352
0.883682
0.9174
0.9395
0.954095
0.964021
0.970997
0.976056
0.979831
0.982721
0.984984
0.9868
0.988294
0.989548
0.990616
0.991532
0.992321
0.992997
0.993569
0.994041
0.994418
0.994698
0.994882
0.994968
0.995347
0.995228
0.995006
0.994684
0.99426
0.993736
0.993109
0.992375
0.991526
0.990547
0.989415
0.988095
0.98653
0.984635
0.982282
0.979293
0.975409
0.970236
0.963166
0.953249
0.939012
0.918334
0.888958
0.851483
0.816032
0.80252
0.821064
0.858142
0.894613
0.922416
0.941833
0.955206
0.964554
0.971248
0.976167
0.979876
0.982742
0.985007
0.986839
0.988358
0.989644
0.990747
0.991701
0.992528
0.99324
0.993845
0.994347
0.994747
0.995045
0.995241
0.995333
0.995318
0.995198
0.994974
0.994648
0.994221
0.993691
0.993057
0.992315
0.991455
0.990462
0.989314
0.98797
0.986375
0.984439
0.982029
0.978962
0.974966
0.96963
0.962319
0.952037
0.937248
0.915768
0.885431
0.84747
0.813298
0.803009
0.824387
0.862146
0.897887
0.924741
0.943426
0.956304
0.965326
0.971803
0.976576
0.980184
0.982978
0.985191
0.986985
0.988477
0.989741
0.990828
0.991769
0.992586
0.99329
0.993889
0.994386
0.994782
0.995077
0.995271
0.995362
0.995653
0.995526
0.99529
0.994946
0.994495
0.993938
0.993272
0.992496
0.991602
0.990578
0.989405
0.988048
0.986457
0.984552
0.982213
0.97928
0.975514
0.970568
0.963924
0.954814
0.942136
0.924499
0.90085
0.872665
0.847584
0.83835
0.851076
0.877544
0.905296
0.92792
0.944617
0.956598
0.965223
0.971533
0.976249
0.979853
0.982673
0.984929
0.986775
0.988323
0.989646
0.990792
0.991791
0.992662
0.993416
0.994058
0.994592
0.995018
0.995335
0.995543
0.995641
0.995625
0.995498
0.99526
0.994913
0.994458
0.993894
0.993222
0.992437
0.991532
0.990495
0.989305
0.987926
0.986306
0.98436
0.981968
0.978961
0.975092
0.969998
0.963141
0.953721
0.940602
0.922379
0.89812
0.869767
0.845708
0.83868
0.853382
0.880488
0.90788
0.929871
0.946018
0.957596
0.965941
0.972059
0.976641
0.980151
0.982902
0.985109
0.986919
0.988439
0.989741
0.990871
0.991858
0.992719
0.993464
0.9941
0.994629
0.995051
0.995365
0.995572
0.995668
0.995907
0.995772
0.99552
0.995152
0.99467
0.994073
0.993361
0.992532
0.99158
0.990495
0.98926
0.987844
0.9862
0.984253
0.981895
0.978977
0.97528
0.970495
0.964182
0.955725
0.944312
0.929074
0.909688
0.887944
0.869643
0.863119
0.872149
0.891624
0.91326
0.931984
0.946523
0.957371
0.965412
0.971428
0.976003
0.97955
0.982362
0.984643
0.986533
0.988135
0.989518
0.990726
0.991786
0.992714
0.993519
0.994206
0.994777
0.995233
0.995572
0.995794
0.995897
0.995881
0.995745
0.995491
0.99512
0.994634
0.994031
0.993312
0.992474
0.991511
0.990413
0.989161
0.987723
0.98605
0.984065
0.981656
0.978667
0.974874
0.969954
0.963453
0.954733
0.942967
0.927299
0.907532
0.885796
0.868316
0.86335
0.873797
0.893843
0.915335
0.933641
0.947765
0.958284
0.966085
0.971929
0.976381
0.979839
0.982587
0.98482
0.986675
0.98825
0.989613
0.990805
0.991852
0.99277
0.993566
0.994247
0.994813
0.995264
0.9956
0.99582
0.995923
0.996132
0.995989
0.995721
0.995328
0.994813
0.994174
0.993411
0.992523
0.991504
0.990347
0.989034
0.987541
0.985823
0.983812
0.981411
0.97848
0.974821
0.970155
0.964123
0.956241
0.945932
0.932707
0.916687
0.899652
0.885964
0.881213
0.887816
0.902487
0.91959
0.935201
0.947912
0.957768
0.965297
0.971067
0.975539
0.97906
0.981891
0.984219
0.986176
0.987854
0.989315
0.990599
0.99173
0.992723
0.993585
0.994321
0.994932
0.995418
0.995779
0.996016
0.996126
0.996108
0.995964
0.995693
0.995298
0.994778
0.994133
0.993364
0.992466
0.991437
0.990265
0.988936
0.987421
0.985674
0.983626
0.981176
0.978179
0.974429
0.969641
0.963444
0.95534
0.944752
0.931218
0.914971
0.898029
0.885
0.881379
0.889025
0.904187
0.921267
0.936609
0.949013
0.958604
0.965928
0.971546
0.975904
0.979342
0.982112
0.984394
0.986317
0.987968
0.989409
0.990677
0.991795
0.992778
0.993631
0.99436
0.994965
0.995448
0.995806
0.996041
0.99615
0.996344
0.996193
0.995909
0.995492
0.994944
0.994264
0.993451
0.992502
0.991414
0.990177
0.988778
0.987196
0.98539
0.9833
0.980841
0.977883
0.97425
0.969707
0.963953
0.956619
0.947322
0.935845
0.922555
0.909074
0.898669
0.895136
0.900065
0.911289
0.924932
0.937987
0.949096
0.958035
0.965073
0.970598
0.974968
0.978473
0.981338
0.983729
0.985768
0.987534
0.989083
0.990453
0.991661
0.992721
0.993641
0.994425
0.995074
0.995591
0.995974
0.996224
0.99634
0.996322
0.996169
0.995883
0.995463
0.994911
0.994225
0.993405
0.992447
0.991347
0.990097
0.988681
0.987076
0.985243
0.983118
0.980611
0.977591
0.973875
0.969222
0.963323
0.955806
0.946291
0.934597
0.921183
0.907835
0.897955
0.895258
0.900965
0.912603
0.92629
0.939182
0.950067
0.958796
0.965661
0.971052
0.97532
0.978748
0.981555
0.983902
0.985907
0.987647
0.989177
0.99053
0.991725
0.992774
0.993686
0.994463
0.995107
0.995619
0.995999
0.996247
0.996363
0.996552
0.996393
0.996095
0.995657
0.99508
0.994363
0.993503
0.992498
0.991344
0.990032
0.98855
0.986879
0.984984
0.982815
0.980296
0.977312
0.973711
0.969296
0.963828
0.95704
0.948703
0.938788
0.927779
0.917074
0.909095
0.906438
0.910161
0.918817
0.929729
0.940625
0.950288
0.958351
0.964896
0.970167
0.974429
0.977915
0.980813
0.983268
0.985388
0.987243
0.98888
0.99033
0.991611
0.992735
0.993709
0.994536
0.99522
0.995763
0.996166
0.996428
0.99655
0.996531
0.996371
0.99607
0.99563
0.995048
0.994325
0.993458
0.992444
0.991279
0.989953
0.988454
0.986761
0.984839
0.982637
0.980073
0.977031
0.973355
0.968843
0.963252
0.956314
0.947812
0.93775
0.926685
0.916124
0.908563
0.906529
0.910837
0.919835
0.930825
0.941631
0.951135
0.959035
0.965438
0.970593
0.974764
0.97818
0.981023
0.983437
0.985525
0.987355
0.988972
0.990406
0.991674
0.992787
0.993752
0.994572
0.995251
0.99579
0.99619
0.99645
0.996571
0.996762
0.996597
0.996287
0.995833
0.995234
0.994489
0.993593
0.992543
0.991335
0.989959
0.988406
0.986657
0.984684
0.982448
0.979882
0.976888
0.97334
0.96908
0.963927
0.957705
0.950304
0.941818
0.93276
0.924285
0.918161
0.916155
0.918978
0.925658
0.934355
0.943383
0.951708
0.958908
0.964938
0.969927
0.974056
0.977501
0.980416
0.982923
0.985112
0.987045
0.988758
0.990278
0.99162
0.992795
0.993811
0.994672
0.995383
0.995946
0.996364
0.996636
0.996763
0.996743
0.996576
0.996265
0.995808
0.995205
0.994453
0.99355
0.992491
0.991272
0.989882
0.988312
0.986542
0.984543
0.982275
0.979668
0.976622
0.973006
0.968662
0.963407
0.957067
0.949545
0.940966
0.931896
0.92356
0.917765
0.916223
0.919485
0.926441
0.93523
0.944217
0.952437
0.959514
0.96543
0.970321
0.974371
0.977754
0.980619
0.983087
0.985246
0.987155
0.988848
0.990352
0.99168
0.992845
0.993852
0.994707
0.995412
0.995971
0.996386
0.996656
0.996782
0.996978
0.996809
0.996493
0.99603
0.995419
0.994657
0.99374
0.992663
0.99142
0.990003
0.988401
0.986599
0.984576
0.9823
0.979719
0.976751
0.973297
0.969237
0.964449
0.958831
0.952363
0.945208
0.937851
0.931208
0.926538
0.925032
0.927163
0.932283
0.939144
0.946526
0.953592
0.959922
0.965396
0.970053
0.974003
0.977368
0.980266
0.982792
0.985023
0.987006
0.988771
0.990337
0.991718
0.992925
0.993966
0.994847
0.995573
0.996148
0.996574
0.996852
0.996981
0.996961
0.996791
0.996472
0.996006
0.995391
0.994623
0.993699
0.992613
0.99136
0.989929
0.988311
0.986489
0.984441
0.982136
0.979517
0.976503
0.97299
0.968861
0.96399
0.958283
0.951731
0.944522
0.93718
0.930662
0.926246
0.925082
0.927539
0.932878
0.93983
0.947204
0.954204
0.960447
0.965833
0.970411
0.974293
0.977604
0.980458
0.982949
0.985151
0.987112
0.988857
0.990407
0.991776
0.992972
0.994005
0.994879
0.9956
0.996171
0.996594
0.99687
0.996999
0.997204
0.997034
0.996717
0.996253
0.995641
0.994878
0.993959
0.992878
0.991629
0.990202
0.988588
0.986774
0.984744
0.982478
0.979934
0.977049
0.973752
0.969962
0.965605
0.960643
0.955114
0.94921
0.943354
0.938235
0.934726
0.93361
0.935199
0.939066
0.944384
0.9503
0.956169
0.961613
0.966475
0.970733
0.974435
0.977658
0.980482
0.982977
0.985201
0.987191
0.988967
0.990543
0.991932
0.993145
0.994189
0.995071
0.995798
0.996373
0.996799
0.997078
0.997208
0.997188
0.997017
0.996698
0.996231
0.995615
0.994847
0.993921
0.992832
0.991572
0.990133
0.988503
0.98667
0.984618
0.982326
0.979748
0.976823
0.973478
0.969631
0.965212
0.960186
0.954603
0.948674
0.942845
0.937833
0.934515
0.933647
0.935473
0.939508
0.944909
0.950836
0.956668
0.962055
0.966852
0.971048
0.974697
0.977874
0.980659
0.983123
0.985321
0.98729
0.989048
0.99061
0.991987
0.993189
0.994225
0.995101
0.995823
0.996394
0.996818
0.997095
0.997224
0.997439
0.997272
0.996961
0.996506
0.995907
0.995161
0.994262
0.993206
0.991984
0.990588
0.98901
0.987238
0.985263
0.983074
0.980639
0.977916
0.974859
0.971423
0.967576
0.963322
0.958737
0.954007
0.949471
0.945626
0.94305
0.942241
0.943401
0.946255
0.950274
0.954885
0.959617
0.964161
0.968351
0.97213
0.975501
0.978499
0.981171
0.983563
0.985713
0.98765
0.989384
0.990925
0.992284
0.993469
0.994489
0.995351
0.996062
0.996625
0.997043
0.997317
0.997445
0.997425
0.997257
0.996944
0.996486
0.995883
0.995132
0.994228
0.993163
0.991932
0.990524
0.988932
0.987143
0.985148
0.982936
0.980473
0.977717
0.974622
0.971143
0.967251
0.962955
0.958338
0.953601
0.949099
0.945339
0.942901
0.942267
0.943594
0.946572
0.950661
0.955293
0.96001
0.964519
0.968665
0.972399
0.975729
0.97869
0.98133
0.983695
0.985824
0.987742
0.989459
0.990987
0.992334
0.99351
0.994522
0.995379
0.996084
0.996644
0.99706
0.997332
0.99746
0.997685
0.997524
0.997225
0.99679
0.996218
0.995508
0.994655
0.993653
0.992496
0.991177
0.989689
0.988023
0.986174
0.984141
0.981901
0.979431
0.976706
0.973712
0.970446
0.966941
0.963283
0.959633
0.956244
0.95345
0.951616
0.951047
0.951869
0.953911
0.956848
0.960316
0.963991
0.967639
0.971111
0.974335
0.977285
0.979967
0.982397
0.984601
0.986601
0.988415
0.990045
0.991498
0.992782
0.993904
0.994871
0.995691
0.996367
0.996905
0.997305
0.997568
0.997692
0.997672
0.99751
0.99721
0.996772
0.996198
0.995483
0.994624
0.993615
0.992449
0.99112
0.989619
0.987939
0.986074
0.984021
0.981759
0.979262
0.97651
0.973485
0.970189
0.966659
0.962986
0.95934
0.955982
0.953253
0.951515
0.951065
0.952001
0.954131
0.957123
0.960614
0.964287
0.967916
0.971362
0.974555
0.977475
0.980129
0.982534
0.984716
0.986698
0.988496
0.990112
0.991554
0.992827
0.993941
0.994901
0.995715
0.996388
0.996922
0.99732
0.997581
0.997704
0.99794
0.997789
0.99751
0.997105
0.996575
0.995919
0.995135
0.994218
0.993163
0.991966
0.990621
0.989124
0.987474
0.985673
0.983711
0.981577
0.979267
0.976784
0.974145
0.971394
0.96861
0.965918
0.963491
0.961541
0.960284
0.959899
0.96046
0.961866
0.963928
0.966426
0.969153
0.971946
0.974688
0.977306
0.979763
0.982045
0.984149
0.986084
0.987858
0.989479
0.990945
0.992259
0.993425
0.994449
0.995335
0.996089
0.996714
0.997213
0.997585
0.997831
0.997947
0.997929
0.997777
0.997497
0.99709
0.996557
0.995897
0.995108
0.994185
0.993123
0.991917
0.990562
0.989053
0.987389
0.985573
0.983594
0.981441
0.979112
0.976608
0.973952
0.971188
0.968399
0.965716
0.963315
0.961411
0.960218
0.95991
0.960546
0.962012
0.964114
0.966633
0.969365
0.972151
0.974877
0.977477
0.979914
0.982176
0.984263
0.986181
0.98794
0.989548
0.991003
0.992307
0.993464
0.994481
0.995361
0.99611
0.996732
0.997228
0.997598
0.997843
0.997958
0.998203
0.998066
0.997813
0.997448
0.996973
0.996389
0.995695
0.994888
0.993968
0.99293
0.991773
0.990496
0.9891
0.987592
0.985967
0.984228
0.98238
0.980437
0.978424
0.976381
0.974373
0.972487
0.970831
0.969529
0.968704
0.968454
0.968822
0.969749
0.971132
0.972846
0.974768
0.976794
0.978841
0.980848
0.98278
0.984612
0.986333
0.987938
0.989427
0.9908
0.992053
0.993185
0.994197
0.995092
0.995873
0.996541
0.997098
0.997546
0.997882
0.998105
0.998211
0.998194
0.998056
0.997802
0.997435
0.996958
0.99637
0.995672
0.994861
0.993934
0.992889
0.991725
0.990438
0.989033
0.987513
0.985876
0.984124
0.982263
0.980309
0.978286
0.976238
0.974231
0.972354
0.970718
0.969447
0.968663
0.968461
0.968875
0.969841
0.971252
0.972982
0.974912
0.976937
0.978977
0.980975
0.982894
0.984713
0.986422
0.988015
0.989493
0.990857
0.992101
0.993225
0.99423
0.995119
0.995895
0.996559
0.997113
0.997559
0.997893
0.998115
0.99822
0.998473
0.998353
0.998132
0.997816
0.997407
0.996908
0.99632
0.995643
0.994879
0.994026
0.993085
0.992057
0.990946
0.989758
0.988496
0.987166
0.985781
0.984355
0.982912
0.981486
0.98012
0.978868
0.977795
0.976967
0.97645
0.976294
0.976525
0.977109
0.977992
0.979108
0.98039
0.981776
0.983213
0.984658
0.986081
0.98746
0.98878
0.990031
0.991206
0.992302
0.993312
0.994235
0.995069
0.995814
0.996471
0.997038
0.997515
0.997901
0.998193
0.998388
0.998481
0.998466
0.998345
0.998123
0.997805
0.997394
0.996893
0.996301
0.995621
0.994852
0.993994
0.993047
0.992013
0.990895
0.989699
0.988428
0.987091
0.985698
0.984266
0.98282
0.981392
0.980029
0.978786
0.977726
0.976918
0.976426
0.976299
0.976557
0.977164
0.978066
0.979194
0.980483
0.981871
0.983305
0.984746
0.986163
0.987535
0.988847
0.99009
0.991257
0.992346
0.99335
0.994267
0.995096
0.995836
0.996489
0.997053
0.997527
0.997911
0.998202
0.998396
0.998488
0.998749
0.998648
0.998464
0.998203
0.997868
0.997463
0.996991
0.996454
0.995856
0.995197
0.994479
0.993706
0.99288
0.992006
0.991092
0.990145
0.989176
0.9882
0.987235
0.986302
0.985428
0.984645
0.983987
0.983487
0.983178
0.983086
0.983223
0.983573
0.984108
0.984796
0.985602
0.986492
0.987436
0.988408
0.989387
0.990354
0.991298
0.992207
0.993072
0.993889
0.994652
0.995358
0.996005
0.99659
0.997112
0.997568
0.997956
0.998273
0.998515
0.998677
0.998755
0.998743
0.998641
0.998457
0.998194
0.997858
0.997451
0.996976
0.996437
0.995835
0.995172
0.994451
0.993673
0.992843
0.991964
0.991045
0.990093
0.989121
0.988143
0.987176
0.986244
0.985373
0.984596
0.983947
0.983459
0.983164
0.983088
0.983242
0.983605
0.984152
0.984848
0.985659
0.986551
0.987496
0.988466
0.989441
0.990405
0.991344
0.992248
0.993109
0.993921
0.99468
0.995382
0.996025
0.996607
0.997126
0.99758
0.997966
0.998281
0.998522
0.998684
0.998761
0.999027
0.998948
0.998805
0.998602
0.998345
0.998038
0.997685
0.99729
0.996855
0.996383
0.995877
0.99534
0.994774
0.994182
0.993571
0.992949
0.992324
0.991707
0.991109
0.990542
0.990021
0.989563
0.989184
0.9889
0.988726
0.988675
0.988752
0.98895
0.989255
0.989652
0.990125
0.990658
0.991234
0.991839
0.99246
0.993086
0.993708
0.994318
0.994906
0.995467
0.995999
0.996498
0.996963
0.997389
0.997775
0.998118
0.998413
0.998656
0.998844
0.998971
0.999032
0.999022
0.998943
0.998799
0.998596
0.998338
0.998029
0.997675
0.997277
0.99684
0.996366
0.995858
0.995318
0.994749
0.994154
0.993541
0.992916
0.99229
0.991672
0.991074
0.990508
0.98999
0.989536
0.989162
0.988885
0.988719
0.988676
0.988762
0.988967
0.989279
0.989681
0.990158
0.990692
0.991269
0.991874
0.992494
0.993119
0.993739
0.994345
0.994931
0.995489
0.996018
0.996515
0.996977
0.997401
0.997785
0.998126
0.99842
0.998663
0.99885
0.998976
0.999037
0.999307
0.99925
0.999149
0.999007
0.998828
0.998618
0.99838
0.998118
0.997834
0.997532
0.997213
0.996879
0.996532
0.996171
0.995805
0.995438
0.995075
0.994724
0.994388
0.994076
0.993795
0.99355
0.993351
0.993202
0.993112
0.993086
0.993126
0.993228
0.993388
0.993597
0.993851
0.99414
0.994458
0.994798
0.995154
0.995519
0.995887
0.996253
0.996612
0.996957
0.997289
0.997605
0.997904
0.998184
0.998441
0.998673
0.998875
0.999045
0.999177
0.999267
0.99931
0.999303
0.999247
0.999145
0.999002
0.998823
0.998613
0.998374
0.99811
0.997825
0.997521
0.9972
0.996865
0.996516
0.996155
0.995787
0.995419
0.995056
0.994704
0.994369
0.994058
0.993778
0.993536
0.993339
0.993195
0.993109
0.993086
0.993131
0.993237
0.9934
0.993613
0.993868
0.994159
0.994478
0.994818
0.995173
0.995537
0.995905
0.99627
0.996627
0.996971
0.997301
0.997615
0.997913
0.998192
0.998448
0.998678
0.99888
0.999049
0.999181
0.99927
0.999314
0.999585
0.999552
0.999493
0.99941
0.999308
0.999189
0.999056
0.998913
0.99876
0.9986
0.998435
0.998265
0.998089
0.997908
0.997726
0.997547
0.997372
0.997205
0.997048
0.996904
0.996776
0.996666
0.996578
0.996512
0.996473
0.996461
0.996479
0.996524
0.996594
0.996688
0.996802
0.996934
0.997081
0.99724
0.99741
0.997586
0.997767
0.997949
0.99813
0.998305
0.998474
0.998639
0.998797
0.998948
0.99909
0.999219
0.999334
0.999432
0.999509
0.999562
0.999588
0.999584
0.99955
0.99949
0.999407
0.999305
0.999185
0.999052
0.998908
0.998755
0.998595
0.998429
0.998258
0.998082
0.9979
0.997718
0.997538
0.997363
0.997196
0.997039
0.996896
0.996769
0.99666
0.996573
0.996509
0.996471
0.996462
0.996481
0.996528
0.9966
0.996694
0.996809
0.996942
0.99709
0.997249
0.997419
0.997595
0.997776
0.997958
0.998137
0.998311
0.99848
0.998644
0.998802
0.998953
0.999093
0.999222
0.999337
0.999434
0.999511
0.999564
0.99959
0.999862
0.999851
0.999832
0.999805
0.999773
0.999736
0.999696
0.999653
0.999608
0.999562
0.999516
0.999469
0.999421
0.99937
0.99932
0.999271
0.999224
0.999179
0.999138
0.999101
0.999068
0.99904
0.999018
0.999001
0.998991
0.998988
0.998993
0.999004
0.999022
0.999045
0.999074
0.999108
0.999147
0.999189
0.999234
0.999282
0.999331
0.999382
0.999432
0.99948
0.999527
0.999573
0.999619
0.999663
0.999706
0.999746
0.999781
0.999812
0.999837
0.999854
0.999863
0.999861
0.99985
0.999831
0.999805
0.999772
0.999735
0.999695
0.999652
0.999607
0.999561
0.999514
0.999467
0.999418
0.999368
0.999318
0.999268
0.999221
0.999177
0.999136
0.999099
0.999066
0.999038
0.999016
0.999
0.998991
0.998988
0.998993
0.999005
0.999023
0.999047
0.999076
0.999111
0.999149
0.999191
0.999236
0.999284
0.999333
0.999384
0.999434
0.999481
0.999528
0.999575
0.99962
0.999665
0.999707
0.999747
0.999782
0.999813
0.999838
0.999855
0.999863
)
;

boundaryField
{
    top
    {
        type            calculated;
        value           uniform 1;
    }
    bottom
    {
        type            calculated;
        value           uniform 0.148957;
    }
    frontAndBack
    {
        type            empty;
    }
    left_cyc
    {
        type            cyclic;
    }
    right_cyc
    {
        type            cyclic;
    }
}


// ************************************************************************* //
