/*--------------------------------*- C++ -*----------------------------------*\
| =========                 |                                                 |
| \\      /  F ield         | OpenFOAM: The Open Source CFD Toolbox           |
|  \\    /   O peration     | Version:  2.3.0                                 |
|   \\  /    A nd           | Web:      www.OpenFOAM.org                      |
|    \\/     M anipulation  |                                                 |
\*---------------------------------------------------------------------------*/
FoamFile
{
    version     2.0;
    format      ascii;
    class       volScalarField;
    location    "18000";
    object      p_rgh;
}
// * * * * * * * * * * * * * * * * * * * * * * * * * * * * * * * * * * * * * //

dimensions      [0 2 -2 0 0 0 0];

internalField   nonuniform List<scalar> 
3060
(
-38.8736
-41.9794
-47.7901
-56.2627
-67.354
-81.03
-97.2668
-116.033
-137.258
-160.803
-186.43
-213.788
-242.386
-271.57
-300.493
-328.169
-353.613
-375.935
-394.417
-408.784
-419.281
-426.419
-430.935
-433.572
-434.902
-435.259
-434.741
-433.213
-430.302
-425.4
-417.752
-406.64
-391.597
-372.439
-349.533
-323.638
-295.668
-266.627
-237.495
-209.087
-182.032
-156.799
-133.719
-113.012
-94.803
-79.1532
-66.0907
-55.6408
-47.8388
-42.7273
-40.3461
-40.7188
-43.8409
-49.6836
-58.2052
-69.364
-83.1279
-99.473
-118.365
-139.73
-163.418
-189.182
-216.654
-245.326
-274.523
-303.373
-330.876
-356.049
-378.007
-396.065
-410.013
-420.129
-426.96
-431.253
-433.74
-434.969
-435.247
-434.645
-433.005
-429.926
-424.778
-416.801
-405.296
-389.825
-370.254
-347.007
-320.867
-292.752
-263.662
-234.561
-206.241
-179.309
-154.215
-131.279
-110.708
-92.6221
-77.0758
-64.0965
-53.7099
-45.953
-40.8703
-38.5024
-62.6565
-65.3865
-70.515
-78.0419
-87.9723
-100.308
-115.033
-132.092
-151.377
-172.716
-195.86
-220.453
-245.987
-271.782
-297.106
-321.535
-344.835
-366.185
-384.315
-398.528
-409.081
-416.5
-421.447
-424.532
-426.19
-426.657
-425.994
-424.114
-420.751
-415.437
-407.545
-396.42
-381.563
-362.827
-341.066
-317.543
-292.952
-267.508
-241.721
-216.332
-191.998
-169.202
-148.279
-129.465
-112.922
-98.7465
-86.9837
-77.6443
-70.7238
-66.2166
-64.124
-64.4512
-67.1969
-72.3558
-79.9293
-89.9235
-102.34
-117.162
-134.331
-153.733
-175.19
-198.44
-223.113
-248.683
-274.449
-299.686
-324.014
-347.164
-368.236
-385.966
-399.772
-409.967
-417.097
-421.827
-424.751
-426.284
-426.64
-425.863
-423.851
-420.314
-414.763
-406.562
-395.064
-379.79
-360.679
-338.678
-315.027
-290.339
-264.82
-239.022
-213.682
-189.438
-166.752
-145.948
-127.251
-110.815
-96.7332
-85.0477
-75.7681
-68.8906
-64.4107
-62.3307
-76.648
-79.5001
-84.8249
-92.5639
-102.629
-114.89
-129.173
-145.266
-162.944
-182
-202.259
-223.574
-245.831
-268.925
-292.617
-316.071
-337.962
-357.115
-373.295
-387.017
-397.98
-405.847
-411.218
-414.709
-416.676
-417.251
-416.446
-414.239
-410.467
-404.733
-396.393
-384.926
-370.812
-354.189
-334.549
-312.325
-288.778
-265.177
-242.25
-220.191
-199.099
-179.099
-160.343
-143.015
-127.333
-113.52
-101.783
-92.2896
-85.1596
-80.4738
-78.2861
-78.6291
-81.496
-86.8486
-94.6268
-104.74
-117.056
-131.396
-147.546
-165.279
-184.389
-204.697
-226.06
-248.362
-271.495
-295.183
-318.518
-340.15
-358.961
-374.854
-388.317
-398.94
-406.507
-411.656
-414.977
-416.797
-417.229
-416.281
-413.923
-409.97
-403.993
-395.332
-383.544
-369.177
-352.244
-332.272
-309.822
-286.192
-262.608
-239.724
-217.711
-196.668
-176.718
-158.016
-140.745
-125.12
-111.364
-99.6818
-90.2353
-83.1424
-78.482
-76.3065
-58.0149
-61.025
-66.6241
-74.7243
-85.2031
-97.895
-112.589
-129.033
-146.958
-166.101
-186.237
-207.192
-228.852
-251.142
-273.885
-296.474
-318.155
-338.496
-356.809
-371.695
-383.203
-392.184
-398.468
-402.619
-405.037
-405.768
-404.758
-402.069
-397.61
-390.917
-381.519
-369.561
-354.071
-335.36
-314.791
-292.943
-270.295
-247.629
-225.47
-203.964
-183.187
-163.268
-144.391
-126.794
-110.746
-96.5171
-84.3535
-74.4581
-66.9875
-62.0563
-59.7459
-60.1088
-63.134
-68.7608
-76.8997
-87.4255
-100.169
-114.916
-131.41
-149.378
-168.558
-188.725
-209.708
-231.395
-253.71
-276.448
-298.954
-320.491
-340.642
-358.634
-373.089
-384.301
-392.987
-399.005
-402.959
-405.197
-405.74
-404.545
-401.674
-397.004
-390.022
-380.346
-368.052
-352.134
-333.149
-312.405
-290.421
-267.706
-245.057
-222.927
-201.449
-180.701
-160.814
-141.976
-124.425
-108.428
-94.2523
-82.1403
-72.2909
-64.8571
-59.9513
-57.6533
-27.5831
-30.6185
-36.2515
-44.3821
-54.8803
-67.586
-82.3108
-98.8454
-116.971
-136.471
-157.143
-178.791
-201.216
-224.173
-247.299
-270.036
-291.896
-312.962
-333.212
-351.113
-365.261
-375.623
-383.097
-388.268
-391.377
-392.345
-391.022
-387.59
-382.074
-374.204
-363.302
-348.535
-330.142
-309.708
-288.538
-266.526
-243.688
-220.568
-197.7
-175.424
-153.973
-133.547
-114.343
-96.5695
-80.4467
-66.1939
-54.0181
-44.103
-36.6028
-31.6409
-29.3107
-29.6774
-32.7265
-38.3849
-46.5512
-57.0939
-69.8504
-84.63
-101.221
-119.402
-138.957
-159.68
-181.374
-203.835
-226.81
-249.915
-272.571
-294.332
-315.324
-335.406
-352.919
-366.605
-376.586
-383.783
-388.715
-391.595
-392.307
-390.736
-387.078
-381.312
-373.146
-361.831
-346.606
-327.873
-307.322
-286.073
-263.958
-241.055
-217.926
-195.083
-172.846
-151.443
-131.069
-111.92
-94.2033
-78.1371
-63.9388
-51.8131
-41.9411
-34.475
-29.5364
-27.2177
4.53448
1.38628
-4.44104
-12.8287
-23.6286
-36.6657
-51.7437
-68.6521
-87.177
-107.11
-128.254
-150.423
-173.425
-197.042
-220.979
-244.87
-268.198
-290.506
-311.296
-330.13
-346.159
-358.117
-366.505
-372.24
-375.928
-377.142
-375.501
-371.488
-365.403
-356.535
-343.948
-327.36
-308.193
-287.111
-264.601
-241.146
-217.216
-193.318
-169.805
-146.958
-124.992
-104.097
-84.4637
-66.2946
-49.8014
-35.1998
-22.6994
-12.4933
-4.75139
0.384382
2.80224
2.42113
-0.740611
-6.59306
-15.0162
-25.8604
-38.9488
-54.083
-71.0507
-89.6364
-109.63
-130.835
-153.059
-176.111
-199.762
-223.708
-247.561
-270.803
-292.98
-313.575
-332.173
-347.766
-359.253
-367.285
-372.767
-376.205
-377.094
-375.144
-370.896
-364.53
-355.278
-342.204
-325.238
-305.853
-284.594
-261.968
-238.442
-214.497
-190.604
-167.127
-144.33
-122.421
-101.586
-82.0141
-63.9059
-47.4718
-32.926
-20.4758
-10.3127
-2.60465
2.50796
4.91444
37.4009
34.0988
28.0021
19.2519
8.01967
-5.49897
-21.092
-38.5409
-57.6305
-78.157
-99.9323
-122.781
-146.531
-170.991
-195.923
-221.074
-245.991
-270.178
-292.993
-313.573
-330.757
-343.225
-351.287
-356.738
-360.188
-361.402
-359.787
-356.052
-350.281
-341.67
-328.419
-310.587
-289.576
-266.473
-242.118
-217.12
-191.968
-167.108
-142.767
-119.179
-96.5347
-75.0095
-54.7834
-36.0501
-19.0183
-3.90659
9.0659
19.689
27.7714
33.1479
35.6853
35.2848
31.9688
25.8464
17.0597
5.78164
-7.79057
-23.4434
-40.9567
-60.1141
-80.7107
-102.557
-125.476
-149.291
-173.806
-198.776
-223.927
-248.797
-272.881
-295.505
-315.786
-332.497
-344.392
-352.059
-357.248
-360.465
-361.351
-359.439
-355.469
-349.421
-340.349
-326.53
-308.276
-287
-263.733
-239.294
-214.265
-189.128
-164.304
-140.018
-116.496
-93.9221
-72.4677
-52.3113
-33.6454
-16.6774
-1.62454
11.2955
21.8743
29.9218
35.2746
37.8003
69.0233
65.5051
59.0263
49.7583
37.9065
23.7013
7.38514
-10.7995
-30.6227
-51.8759
-74.3767
-97.9676
-122.507
-147.85
-173.829
-200.251
-226.687
-252.614
-277.348
-299.981
-319.272
-333.339
-341.128
-345.088
-347.474
-348.286
-347.219
-344.644
-340.325
-331.648
-316.613
-296.671
-273.618
-248.619
-222.551
-196.067
-169.675
-143.795
-118.582
-94.2066
-70.8149
-48.5551
-27.5926
-8.11795
9.65296
25.4846
39.132
50.3531
58.9219
64.6397
67.3445
66.917
63.3842
56.8782
47.5715
35.6712
21.409
5.02877
-13.2258
-33.1237
-54.4556
-77.0383
-100.713
-125.335
-150.756
-176.801
-203.255
-229.676
-255.525
-280.09
-302.435
-321.254
-334.605
-341.774
-345.47
-347.672
-348.25
-346.963
-344.207
-339.542
-330.169
-314.476
-294.121
-270.816
-245.676
-219.549
-193.065
-166.716
-140.904
-115.77
-91.4766
-68.1679
-45.9892
-25.1046
-5.70377
11.9982
27.7668
41.3585
52.5326
61.0646
66.7572
69.4497
98.7052
94.8972
87.9026
77.9328
65.241
50.108
32.8237
13.6706
-7.09254
-29.242
-52.5958
-77.0137
-102.388
-128.63
-155.646
-183.275
-211.123
-238.666
-265.197
-289.769
-311.14
-327.583
-337.187
-340.812
-342.007
-342.372
-341.919
-340.554
-336.241
-325.507
-308.139
-286.147
-261.17
-234.397
-206.738
-178.87
-151.294
-124.394
-98.2843
-73.0636
-48.8281
-25.6948
-3.81575
16.6152
35.3634
52.1614
66.722
78.7543
87.9818
94.1598
97.0889
96.6256
92.8018
85.7778
75.7663
63.0222
47.8276
30.4742
11.2453
-9.59949
-31.8361
-55.2824
-79.7973
-105.272
-131.613
-158.722
-186.413
-214.276
-241.767
-268.151
-292.45
-313.376
-329.132
-337.919
-341.071
-342.113
-342.352
-341.777
-340.207
-335.3
-323.743
-305.758
-283.374
-258.162
-231.27
-203.58
-175.74
-148.234
-121.43
-95.4201
-70.2983
-46.1585
-23.1162
-1.32303
19.0274
37.701
54.4311
68.9315
80.9131
90.1009
96.2516
99.1673
126.31
122.121
114.447
103.548
89.7443
73.3841
54.8259
34.4114
12.4451
-10.821
-35.1967
-60.5549
-86.8235
-113.969
-141.975
-170.7
-199.793
-228.757
-256.893
-283.255
-306.617
-325.433
-337.937
-343.682
-345.278
-345.545
-345.203
-343.218
-336.532
-322.94
-303.28
-279.332
-252.592
-224.239
-195.182
-166.087
-137.428
-109.539
-82.5138
-56.3761
-31.1695
-6.98036
16.0477
37.7075
57.7315
75.8027
91.5713
104.678
114.776
121.56
124.783
124.273
120.068
112.36
101.417
87.5552
71.1283
52.4952
31.9987
9.94404
-13.4169
-37.8944
-63.3613
-89.7449
-117.009
-145.132
-173.945
-203.08
-232.019
-260.033
-286.144
-309.092
-327.286
-338.989
-344.066
-345.375
-345.53
-345.055
-342.687
-335.253
-320.891
-300.671
-276.356
-249.404
-220.958
-191.895
-162.855
-134.291
-106.522
-79.6148
-53.5905
-28.4907
-4.40133
18.5335
40.1063
60.0497
78.0472
93.7505
106.801
116.856
123.61
126.818
152.181
147.509
138.966
126.878
111.646
93.7102
73.518
51.4916
28.0003
3.33974
-22.2803
-48.7382
-75.9929
-104.064
-133.006
-162.693
-192.835
-222.979
-252.458
-280.355
-305.491
-326.454
-341.744
-350.549
-354.113
-354.878
-353.835
-349.639
-339.849
-323.578
-301.844
-276.164
-247.917
-218.244
-188.023
-157.886
-128.26
-99.4203
-71.442
-44.2793
-17.9266
7.55539
32.0227
55.2423
76.8975
96.6016
113.921
128.405
139.619
147.176
150.772
150.203
145.512
136.932
124.794
109.499
91.4902
71.2167
49.1022
25.5162
0.753959
-24.9755
-51.5519
-78.9338
-107.14
-136.216
-166.012
-196.22
-226.363
-255.746
-283.42
-308.175
-328.579
-343.143
-351.23
-354.331
-354.846
-353.517
-348.777
-338.239
-321.28
-299.036
-273.02
-244.587
-214.845
-184.643
-154.584
-125.075
-96.3716
-68.5262
-41.4884
-15.2514
10.1234
34.4909
57.6173
79.1856
98.8097
116.058
130.481
141.645
149.169
152.749
176.875
171.608
161.992
148.432
131.428
111.533
89.308
65.2767
39.8928
13.5123
-13.6215
-41.3822
-69.7513
-98.7945
-128.62
-159.131
-190.108
-221.158
-251.66
-280.743
-307.285
-329.98
-347.495
-358.937
-364.671
-366.158
-364.126
-357.603
-345.201
-326.788
-303.382
-276.331
-246.923
-216.241
-185.119
-154.14
-123.669
-93.9078
-64.9137
-36.5811
-8.8633
18.1955
44.4394
69.5949
93.2782
115.013
134.259
150.451
163.044
171.555
175.608
174.967
169.679
160.023
146.407
129.333
109.358
87.0449
62.919
37.4344
10.9466
-16.3024
-44.1884
-72.6936
-101.883
-131.854
-162.49
-193.551
-224.62
-255.048
-283.934
-310.13
-332.314
-349.169
-359.902
-365.051
-366.1
-363.603
-356.447
-343.333
-324.296
-300.423
-273.068
-243.498
-212.77
-181.686
-150.803
-120.462
-90.8495
-61.9984
-33.7987
-6.20297
20.743
46.8815
71.9379
95.5276
117.175
136.342
152.467
165.005
173.479
177.514
201.01
195.037
184.141
168.82
149.693
127.447
102.777
76.3294
48.6617
20.207
-8.74266
-38.0428
-67.6865
-97.7765
-128.44
-159.645
-191.246
-222.917
-254.089
-283.949
-311.438
-335.332
-354.394
-367.681
-375.042
-377.114
-374.284
-366.039
-351.813
-331.908
-307.345
-279.375
-249.205
-217.855
-186.104
-154.477
-123.27
-92.6074
-62.5094
-32.8304
-3.49511
25.4561
53.8415
81.331
107.456
131.63
153.187
171.425
185.665
195.313
199.911
199.184
193.187
182.246
166.862
147.657
125.324
100.558
74.0096
46.2356
17.6691
-11.3995
-40.8283
-70.6127
-100.855
-131.669
-163.007
-194.704
-226.408
-257.524
-287.208
-314.379
-337.801
-356.249
-368.846
-375.548
-377.035
-373.605
-364.683
-349.776
-329.292
-304.298
-276.05
-245.738
-214.358
-182.659
-151.139
-120.071
-89.5599
-59.6102
-30.0683
-0.85869
27.9761
56.2514
83.6359
109.66
133.74
155.21
173.372
187.552
197.158
201.735
225.168
218.38
206.008
188.652
167.069
142.099
114.589
85.3275
54.9902
24.1026
-6.97694
-38.0702
-69.167
-100.39
-131.872
-163.662
-195.695
-227.714
-259.2
-289.404
-317.343
-341.87
-361.817
-376.193
-384.55
-386.994
-383.653
-374.356
-359.057
-338.304
-313.136
-284.731
-254.218
-222.543
-190.417
-158.32
-126.471
-94.913
-63.598
-32.3751
-1.15361
30.016
60.9097
91.1239
120.09
147.096
171.328
191.931
208.074
219.033
224.256
223.432
216.617
204.194
186.768
165.1
140.033
112.42
83.05
52.6009
21.5979
-9.60187
-40.8238
-72.0602
-103.434
-135.065
-166.991
-199.125
-231.185
-262.624
-292.669
-320.313
-344.399
-363.768
-377.468
-385.132
-386.902
-382.883
-372.891
-356.933
-335.637
-310.067
-281.405
-250.763
-219.067
-187.002
-155.016
-123.306
-91.892
-60.7292
-29.6437
1.45192
32.5036
63.2832
93.3866
122.245
149.148
173.284
193.803
209.879
220.79
225.99
249.842
242.145
228.123
208.494
184.167
156.15
125.457
93.0305
59.6759
26.0205
-7.49173
-40.6303
-73.3645
-105.815
-138.121
-170.414
-202.716
-234.865
-266.32
-296.441
-324.337
-348.948
-369.173
-384.037
-392.908
-395.554
-391.931
-382.095
-366.326
-345.321
-320.088
-291.73
-261.286
-229.613
-197.316
-164.897
-132.473
-100.002
-67.3506
-34.3822
-1.00993
32.6897
66.4312
99.7199
131.877
162.054
189.277
212.522
230.791
243.214
249.137
248.203
240.475
226.397
206.69
182.269
154.146
123.341
90.7988
57.3268
23.5521
-10.0788
-43.3423
-76.21
-108.802
-141.251
-173.676
-206.084
-238.266
-269.676
-299.648
-327.267
-351.463
-371.143
-385.357
-393.526
-395.455
-391.118
-380.588
-364.192
-342.674
-317.064
-288.464
-257.899
-226.2
-193.969
-161.661
-129.37
-97.0396
-64.5281
-31.6906
1.55926
35.142
68.7653
101.937
133.979
164.044
191.162
214.314
232.508
244.878
250.774
275.43
266.744
250.934
228.849
201.562
170.259
136.128
100.271
63.6297
26.9238
-9.28643
-44.6982
-79.2476
-113.026
-146.185
-178.927
-211.334
-243.295
-274.425
-304.136
-331.621
-355.913
-375.987
-390.896
-399.917
-402.636
-398.905
-388.913
-373.119
-352.285
-327.382
-299.43
-269.376
-237.991
-205.827
-173.227
-140.266
-106.837
-72.7341
-37.8316
-2.07347
34.4273
71.2974
107.93
143.541
177.14
207.589
233.684
254.252
268.264
274.948
273.895
265.174
249.302
227.13
199.739
168.32
134.068
98.0891
61.3241
24.4921
-11.8307
-47.3607
-82.0332
-115.938
-149.226
-182.086
-214.584
-246.579
-277.667
-307.236
-334.461
-358.363
-377.923
-392.211
-400.541
-402.535
-398.086
-387.418
-371.028
-349.712
-324.454
-296.274
-266.105
-234.7
-202.59
-170.089
-137.249
-103.948
-69.9691
-35.1872
0.454886
36.8442
73.5889
110.098
145.586
179.064
209.398
235.39
255.875
269.828
276.481
302.242
292.501
274.809
250.16
219.797
185.086
147.39
107.966
67.8975
28.0391
-10.9883
-48.8172
-85.3126
-120.511
-154.583
-187.783
-220.251
-251.942
-282.574
-311.646
-338.449
-362.117
-381.715
-396.343
-405.259
-407.96
-404.242
-394.367
-378.873
-358.533
-334.256
-306.973
-277.526
-246.59
-214.629
-181.882
-148.361
-113.905
-78.2531
-41.2828
-2.99669
36.416
76.5219
116.635
155.836
192.983
226.777
255.837
278.811
294.5
301.997
300.815
291.037
273.276
248.531
218.055
183.218
145.391
105.838
65.6424
25.6617
-13.4803
-51.4213
-88.0275
-123.334
-157.516
-190.818
-223.361
-255.077
-285.664
-314.6
-341.157
-364.46
-383.575
-397.617
-405.869
-407.861
-403.444
-392.922
-376.866
-356.074
-331.465
-303.965
-274.407
-243.446
-211.527
-178.863
-145.447
-111.101
-75.5553
-38.6937
-0.517975
38.7807
78.7643
118.75
157.819
194.836
228.505
257.453
280.333
295.957
303.421
330.541
319.73
300.154
272.962
239.569
201.508
160.299
117.345
73.8524
30.7894
-11.1371
-51.4801
-90.026
-126.739
-161.813
-195.539
-228.1
-259.509
-289.575
-317.888
-343.847
-366.696
-385.6
-399.734
-408.377
-411.001
-407.375
-397.792
-382.814
-363.18
-339.72
-313.259
-284.529
-254.099
-222.34
-189.407
-155.255
-119.678
-82.3813
-43.2422
-2.33725
40.0629
83.4436
127.026
169.773
210.413
247.497
279.482
304.844
322.219
330.547
329.231
318.379
298.727
271.432
237.915
199.719
158.371
115.279
71.6548
28.4688
-13.5711
-54.0192
-92.6626
-129.464
-164.629
-198.436
-231.053
-262.476
-292.489
-320.669
-346.394
-368.902
-387.356
-400.941
-408.958
-410.906
-406.615
-396.424
-380.922
-360.866
-337.093
-310.426
-281.585
-251.122
-219.389
-186.521
-152.452
-116.967
-79.7571
-40.7141
0.0865408
42.3731
85.6298
129.079
171.687
212.186
249.135
280.998
306.26
323.562
331.855
360.559
348.731
327.382
297.815
261.601
220.422
175.932
129.652
82.896
36.7285
-8.05495
-50.9204
-91.5661
-129.871
-166.05
-200.408
-233.155
-264.352
-293.879
-321.422
-346.485
-368.431
-386.533
-400.055
-408.332
-410.845
-407.354
-398.164
-383.817
-364.992
-342.426
-316.83
-288.82
-258.86
-227.229
-194.012
-159.119
-122.322
-83.3119
-41.9652
1.55357
46.8844
93.4243
140.303
186.383
230.282
270.427
305.136
332.734
351.697
360.817
359.373
347.501
326.071
296.393
260.047
218.723
174.084
127.658
80.7645
34.4711
-10.4249
-53.3891
-94.1196
-132.493
-168.743
-203.161
-235.945
-267.139
-296.606
-324.015
-348.856
-370.482
-388.167
-401.181
-408.875
-410.756
-406.643
-396.888
-382.056
-362.839
-339.98
-314.186
-286.062
-256.058
-224.435
-191.262
-156.434
-119.707
-80.7655
-39.5031
3.91667
49.1339
95.5459
142.285
188.216
231.965
271.966
306.544
334.034
352.919
362
392.462
379.743
356.858
325.248
286.615
242.759
195.435
146.25
96.5992
47.6218
0.193315
-45.0664
-87.7633
-127.681
-165.048
-200.155
-233.22
-264.333
-293.433
-320.288
-344.509
-365.57
-382.859
-395.741
-403.619
-406.009
-402.668
-393.902
-380.212
-362.201
-340.502
-315.713
-288.333
-258.727
-227.092
-193.462
-157.718
-119.629
-78.9002
-35.4138
10.5697
58.5979
107.983
157.774
206.756
253.465
296.236
333.283
362.807
383.15
392.966
391.408
378.643
355.673
323.945
285.172
241.163
193.68
144.341
94.5454
45.4376
-2.10397
-47.4582
-90.2296
-130.2
-167.618
-202.766
-235.848
-266.942
-295.971
-322.691
-346.698
-367.46
-384.364
-396.779
-404.121
-405.926
-402.012
-392.726
-378.589
-360.216
-338.241
-313.259
-285.762
-256.099
-224.455
-190.848
-155.148
-117.112
-76.4352
-33.0237
12.8639
60.7767
110.028
159.672
208.496
255.045
297.663
334.571
363.981
384.242
394.017
426.364
412.959
388.909
355.768
315.334
269.482
220.026
168.619
116.699
65.4545
15.8212
-31.507
-76.0478
-117.487
-156.049
-191.984
-225.491
-256.67
-285.499
-311.818
-335.325
-355.603
-372.15
-384.43
-391.926
-394.195
-391
-382.637
-369.558
-352.284
-331.344
-307.226
-280.326
-250.916
-219.133
-184.973
-148.313
-108.946
-66.6158
-21.2251
26.8687
77.1273
128.79
180.85
232.042
280.86
325.589
364.378
395.351
416.745
427.099
425.452
411.999
387.86
354.597
314.016
268.004
218.381
166.811
114.739
63.359
13.61
-33.8113
-78.4203
-119.9
-158.499
-194.458
-227.964
-259.109
-287.857
-314.037
-337.338
-357.336
-373.528
-385.381
-392.387
-394.119
-390.398
-381.56
-368.072
-350.462
-329.262
-304.956
-277.932
-248.454
-216.645
-182.49
-145.857
-106.527
-64.2378
-18.9168
29.0812
79.2201
130.743
182.646
233.673
282.322
326.89
365.534
396.387
417.697
428.008
462.335
448.529
423.827
389.859
348.473
301.57
250.969
198.323
145.07
92.4101
41.3084
-7.48961
-53.4291
-96.1074
-135.717
-172.441
-206.433
-237.781
-266.482
-292.422
-315.374
-335.013
-350.934
-362.696
-369.856
-372.017
-368.948
-360.934
-348.377
-331.718
-311.391
-287.785
-261.207
-231.86
-199.836
-165.119
-127.606
-87.1367
-43.5259
3.28665
52.8574
104.579
157.645
211.02
263.433
313.377
359.137
398.853
430.613
452.602
463.276
461.575
447.72
422.927
388.834
347.298
300.229
249.455
196.64
143.228
90.4256
39.204
-9.68836
-55.6942
-98.4091
-138.047
-174.783
-208.761
-240.061
-268.672
-294.471
-317.224
-336.599
-352.193
-363.563
-370.277
-371.947
-368.398
-359.951
-347.019
-330.048
-309.475
-285.685
-258.978
-229.552
-197.488
-162.762
-125.263
-84.8216
-41.2465
5.49675
54.968
106.564
159.481
212.693
264.933
314.702
360.295
399.862
431.501
453.403
464.033
500.401
486.562
461.865
427.969
386.718
339.982
289.529
236.96
183.661
130.801
79.3341
30.0217
-16.539
-59.8807
-100.131
-137.379
-171.714
-203.187
-231.789
-257.431
-279.939
-299.056
-314.459
-325.786
-332.662
-334.729
-331.766
-324.043
-311.921
-295.767
-275.937
-252.737
-226.409
-197.109
-164.91
-129.806
-91.7364
-50.6115
-6.34267
41.0708
91.1249
143.176
196.405
249.796
302.113
351.901
397.502
437.098
468.806
490.805
501.514
499.804
485.916
461.129
427.107
385.706
338.802
288.174
235.43
181.967
128.959
77.3676
27.9584
-18.6693
-62.0552
-102.334
-139.589
-173.901
-205.318
-233.824
-259.325
-281.64
-300.509
-315.608
-326.577
-333.046
-334.665
-331.263
-323.146
-310.68
-294.237
-274.173
-250.793
-224.335
-194.948
-162.699
-127.577
-89.514
-48.4147
-4.18384
43.1553
93.1032
145.02
198.095
251.315
303.454
353.065
398.497
437.944
469.531
491.444
502.109
540.552
527.125
503.225
470.485
430.684
385.601
336.897
286.061
234.38
182.939
132.634
84.197
38.2218
-4.80358
-44.9027
-82.0565
-116.27
-147.541
-175.835
-201.064
-223.08
-241.673
-256.58
-267.499
-274.112
-276.094
-273.227
-265.777
-254.062
-238.398
-219.074
-196.343
-170.4
-141.381
-109.362
-74.3701
-36.4039
4.53809
48.4301
95.1922
144.303
195.127
246.884
298.621
349.191
397.245
441.235
479.45
510.092
531.395
541.793
540.129
526.655
502.668
469.806
429.858
384.61
335.732
284.721
232.873
181.281
130.848
82.3134
36.2822
-6.82065
-46.9591
-84.1204
-118.309
-149.521
-177.718
-202.809
-224.641
-243.002
-257.628
-268.22
-274.463
-276.035
-272.769
-264.959
-252.929
-236.997
-217.454
-194.549
-168.478
-139.37
-107.299
-72.2851
-34.3253
6.58683
50.431
97.1091
146.105
196.788
248.385
299.949
350.342
398.22
442.044
480.114
510.637
531.857
542.214
582.742
570.24
548.044
517.701
480.865
439.158
394.08
346.955
298.92
250.927
203.762
158.074
114.398
73.1715
34.5195
-1.42895
-34.5925
-64.9062
-92.2954
-116.657
-137.847
-155.68
-169.932
-180.346
-186.643
-188.525
-185.78
-178.665
-167.471
-152.471
-133.911
-112.007
-86.9348
-58.8285
-27.7848
6.12431
42.8305
82.2422
124.214
168.572
214.835
262.435
310.683
358.741
405.603
450.076
490.776
526.157
554.57
574.368
584.058
582.505
569.959
547.682
517.226
480.251
438.388
393.143
345.849
297.65
249.504
202.206
156.412
112.666
71.349
32.6487
-3.31277
-36.4556
-66.7141
-94.0116
-118.242
-139.262
-156.882
-170.879
-180.998
-186.96
-188.471
-185.365
-177.926
-166.447
-151.202
-132.44
-110.375
-85.1818
-56.9916
-25.8987
8.02716
44.7204
84.0919
126
170.261
216.402
263.858
311.945
359.834
406.524
450.829
491.373
526.619
554.921
574.641
584.293
626.887
615.872
596.374
569.786
537.571
501.141
461.78
420.601
378.544
336.384
294.752
254.159
215.023
177.64
142.321
109.284
78.6849
50.6447
25.2788
2.71389
-16.9013
-33.3915
-46.5543
-56.164
-61.9726
-63.7054
-61.1591
-54.5811
-44.237
-30.3673
-13.1909
7.09706
30.3278
56.3581
85.064
116.329
150.021
185.969
223.921
263.606
304.657
346.632
388.986
431.048
471.994
510.832
546.396
577.355
602.269
619.675
628.222
626.849
615.794
596.224
569.536
537.198
500.628
461.115
419.779
377.568
335.26
293.492
252.779
213.542
176.075
140.702
107.644
77.0562
49.0601
23.7727
1.32163
-18.1434
-34.4466
-47.386
-56.7367
-62.2523
-63.6584
-60.7944
-53.9323
-43.3383
-29.2543
-11.9001
8.52931
31.8657
57.9669
86.7107
117.981
151.65
187.544
225.412
264.99
305.914
347.748
389.95
431.854
472.643
511.33
546.754
577.592
602.409
619.746
628.258
672.881
663.938
648.168
626.744
600.876
571.708
540.26
507.398
473.831
440.123
406.709
373.919
341.99
311.059
281.554
253.757
227.867
204.04
182.415
163.132
146.341
132.209
120.918
112.667
107.673
106.184
108.386
114.05
122.941
134.846
149.572
166.941
186.792
208.976
233.354
259.782
288.093
318.067
349.38
381.689
414.807
448.473
482.33
515.907
548.598
579.65
608.149
633.035
653.131
667.225
674.172
673.053
664.078
648.249
626.743
600.772
571.488
539.913
506.917
473.215
439.373
405.83
372.917
340.874
309.855
280.289
252.46
226.566
202.766
181.197
162.001
145.329
131.346
120.236
112.196
107.442
106.223
108.686
114.583
123.676
135.754
150.622
168.103
188.034
210.267
234.665
261.084
289.357
319.264
350.476
382.672
415.669
449.206
482.93
516.371
548.93
579.856
608.24
633.025
653.042
667.08
673.998
720.588
714.294
703.268
688.394
670.564
650.604
629.229
607.024
584.446
561.83
539.4
517.28
495.496
473.986
453.228
433.51
415.023
397.912
382.304
368.324
356.102
345.776
337.497
331.426
327.738
326.635
328.274
332.464
339.01
347.742
358.504
371.147
385.536
401.542
419.039
437.896
457.956
479.005
500.711
522.703
545.03
567.639
590.381
613.002
635.134
656.284
675.83
693.02
707.002
716.875
721.773
720.981
714.665
703.597
688.663
670.759
650.713
629.244
606.94
584.259
561.536
538.998
516.766
494.867
473.269
452.447
432.686
414.179
397.07
381.488
367.557
355.408
345.18
337.022
331.094
327.573
326.662
328.486
332.836
339.521
348.368
359.221
371.931
386.364
402.39
419.884
438.715
458.726
479.7
501.297
523.184
545.407
567.912
590.551
613.071
635.104
656.163
675.625
692.743
706.667
716.5
721.378
769.878
766.77
761.426
754.374
746.126
737.138
727.781
718.334
708.986
699.842
690.922
682.163
673.394
664.344
655.44
646.888
638.797
631.243
624.287
617.994
612.431
607.678
603.818
600.951
599.183
598.649
599.452
601.464
604.559
608.633
613.59
619.347
625.83
632.969
640.701
648.961
657.666
666.686
675.769
684.606
693.478
702.528
711.8
721.25
730.752
740.093
748.969
756.982
763.657
768.471
770.902
770.505
767.385
762.018
754.933
746.645
737.61
728.201
718.697
709.289
700.079
691.087
682.247
673.38
664.255
655.291
646.69
638.563
630.983
624.014
617.72
612.171
607.443
603.624
600.81
599.111
598.66
599.542
601.619
604.764
608.874
613.854
619.621
626.1
633.223
640.927
649.146
657.798
666.747
675.731
684.487
693.287
702.273
711.483
720.875
730.322
739.613
748.443
756.417
763.061
767.853
770.274
820.529
821.075
822.228
824.089
826.728
830.17
834.401
839.365
844.971
851.096
857.589
864.259
870.841
876.947
882.769
888.303
893.497
898.287
902.613
906.422
909.67
912.325
914.367
915.789
916.599
916.827
916.504
915.593
914.067
911.922
909.167
905.825
901.931
897.53
892.676
887.432
881.859
876
869.823
863.228
856.612
850.221
844.236
838.802
834.035
830.018
826.797
824.376
822.717
821.741
821.341
821.399
821.943
823.095
824.954
827.59
831.029
835.256
840.213
845.809
851.92
858.392
865.03
871.559
877.622
883.4
888.888
894.032
898.768
903.037
906.786
909.971
912.563
914.54
915.898
916.647
916.818
916.437
915.462
913.872
911.663
908.845
905.441
901.487
897.029
892.123
886.829
881.209
875.303
869.065
862.433
855.794
849.386
843.39
837.949
833.177
829.156
825.932
823.509
821.848
820.872
820.472
)
;

boundaryField
{
    top
    {
        type            fixedFluxPressure;
        gradient        nonuniform List<scalar> 
102
(
1579.78
1699.49
1911.74
2201.93
2554.87
2956.01
3392.34
3852.75
4328.22
4811.89
5299.19
5788.63
6283.94
6797.05
7304.39
7795.02
8261.86
8699.1
9101.5
9464.04
9781.85
10050.2
10264.7
10420.9
10514.9
10542.8
10501.7
10395
10226.8
10000.9
9721.81
9393.91
9021.98
8610.94
8165.88
7692.19
7195.98
6685.16
6173.11
5677.89
5187.26
4698.95
4215.32
3741.55
3285.13
2855.66
2464.85
2126.22
1854.65
1665.37
1572.57
1587.47
1707.54
1920.47
2211.62
2565.73
2968.21
3405.99
3867.92
4344.95
4830.21
5319.2
5810.6
6308.69
6823.34
7331.54
7822.48
8289.07
8725.49
9126.47
9486.98
9802.17
10067.3
10278
10430
10519.3
10542
10495.9
10384.7
10212.3
9982.83
9700.62
9370.24
8996.45
8584.14
8138.4
7664.63
7168.95
6659.44
6150.17
5656.81
5167.75
4680.95
4198.83
3726.58
3271.65
2843.61
2454.12
2116.64
1845.99
1657.37
1564.9
)
;
        value           nonuniform List<scalar> 
102
(
846.859
849.399
854.09
860.788
869.309
879.437
890.94
903.578
917.108
931.294
945.908
960.736
975.573
990.231
1004.51
1018.22
1031.19
1043.27
1054.3
1064.16
1072.7
1079.83
1085.45
1089.47
1091.85
1092.54
1091.53
1088.84
1084.51
1078.6
1071.2
1062.39
1052.3
1041.05
1028.77
1015.64
1001.79
987.42
972.708
957.859
943.066
928.536
914.491
901.161
888.787
877.613
867.878
859.813
853.627
849.497
847.551
847.857
850.402
855.103
861.815
870.352
880.5
892.023
904.679
918.225
932.424
947.046
961.874
976.704
991.345
1005.59
1019.26
1032.18
1044.19
1055.15
1064.9
1073.34
1080.35
1085.84
1089.73
1091.97
1092.52
1091.37
1088.54
1084.08
1078.04
1070.52
1061.61
1051.43
1040.1
1027.76
1014.57
1000.69
986.293
971.568
956.713
941.923
927.402
913.371
900.059
887.704
876.549
866.834
858.786
852.615
848.495
846.553
)
;
    }
    bottom
    {
        type            fixedFluxPressure;
        gradient        nonuniform List<scalar> 
102
(
0
0
0
0
0
0
0
0
0
0
0
0
0
0
0
0
0
0
0
0
0
0
0
0
0
0
0
0
0
0
0
0
0
0
0
0
0
0
0
0
0
0
0
0
0
0
0
0
0
0
0
0
0
0
0
0
0
0
0
0
0
0
0
0
0
0
0
0
0
0
0
0
0
0
0
0
0
0
0
0
0
0
0
0
0
0
0
0
0
0
0
0
0
0
0
0
0
0
0
0
0
-1.64315e-14
)
;
        value           nonuniform List<scalar> 
102
(
-38.8736
-41.9794
-47.7901
-56.2627
-67.354
-81.03
-97.2668
-116.033
-137.258
-160.803
-186.43
-213.788
-242.386
-271.57
-300.493
-328.169
-353.613
-375.935
-394.417
-408.784
-419.281
-426.419
-430.935
-433.572
-434.902
-435.259
-434.741
-433.213
-430.302
-425.4
-417.752
-406.64
-391.597
-372.439
-349.533
-323.638
-295.668
-266.627
-237.495
-209.087
-182.032
-156.799
-133.719
-113.012
-94.803
-79.1532
-66.0907
-55.6408
-47.8388
-42.7273
-40.3461
-40.7188
-43.8409
-49.6836
-58.2052
-69.364
-83.1279
-99.473
-118.365
-139.73
-163.418
-189.182
-216.654
-245.326
-274.523
-303.373
-330.876
-356.049
-378.007
-396.065
-410.013
-420.129
-426.96
-431.253
-433.74
-434.969
-435.247
-434.645
-433.005
-429.926
-424.778
-416.801
-405.296
-389.825
-370.254
-347.007
-320.867
-292.752
-263.662
-234.561
-206.241
-179.309
-154.215
-131.279
-110.708
-92.6221
-77.0758
-64.0965
-53.7099
-45.953
-40.8703
-38.5024
)
;
    }
    frontAndBack
    {
        type            empty;
    }
    left_cyc
    {
        type            cyclic;
    }