/*--------------------------------*- C++ -*----------------------------------*\
| =========                 |                                                 |
| \\      /  F ield         | OpenFOAM: The Open Source CFD Toolbox           |
|  \\    /   O peration     | Version:  2.3.0                                 |
|   \\  /    A nd           | Web:      www.OpenFOAM.org                      |
|    \\/     M anipulation  |                                                 |
\*---------------------------------------------------------------------------*/
FoamFile
{
    version     2.0;
    format      ascii;
    class       volScalarField;
    location    "18000";
    object      p_rgh;
}
// * * * * * * * * * * * * * * * * * * * * * * * * * * * * * * * * * * * * * //

dimensions      [0 2 -2 0 0 0 0];

internalField   nonuniform List<scalar> 
765
(
-71.5686
-85.4966
-110.999
-146.87
-191.438
-242.226
-295.387
-345.807
-389.698
-424.978
-447.02
-455.959
-458.289
-456.881
-449.919
-431.49
-398.429
-356.44
-307.199
-254.194
-202.431
-156.131
-118.023
-89.92
-73.1147
-68.4969
-76.3835
-96.2673
-127.142
-167.602
-215.644
-268.209
-320.669
-368.364
-408.131
-438.111
-452.817
-457.868
-458.325
-454.803
-443.282
-417.12
-379.595
-333.706
-282.145
-229.125
-179.6
-137.017
-103.602
-80.892
-69.9955
-113.915
-124.71
-144.055
-170.767
-203.591
-241.136
-282.048
-325.713
-367.118
-397.995
-418.987
-430.679
-434.094
-431.964
-422.606
-403.464
-375.112
-335.692
-291.774
-250.025
-211.538
-177.445
-149.147
-127.918
-114.952
-111.317
-117.499
-132.753
-155.959
-185.907
-221.29
-260.686
-303.178
-346.988
-383.743
-409.408
-426.319
-433.294
-434.011
-429.007
-414.644
-391.463
-357.667
-314.696
-271.569
-231.398
-194.896
-163.475
-138.488
-121.168
-112.674
-61.2455
-72.7746
-93.2253
-121.226
-155.457
-194.749
-238.071
-284.663
-330.168
-365.869
-390.825
-403.691
-407.55
-405.023
-394.831
-372.325
-339.187
-295.234
-248.239
-204.072
-163.732
-128.197
-98.593
-76.202
-62.3935
-58.4658
-65.1192
-81.325
-105.75
-137.033
-173.935
-215.365
-260.459
-307.488
-349.051
-379.417
-398.878
-406.424
-407.32
-401.855
-385.736
-358.096
-319.425
-272.857
-226.943
-184.535
-146.402
-113.608
-87.3613
-69.0052
-59.8995
7.76039
-5.61984
-29.0706
-60.7236
-98.8345
-141.958
-188.886
-238.51
-287.362
-330.978
-362.224
-376.247
-380.336
-377.731
-366.7
-339.373
-297.607
-249.635
-199.702
-152.095
-108.002
-68.6041
-35.2746
-9.69157
6.28617
10.8761
3.11229
-15.586
-43.3925
-78.4748
-119.235
-164.375
-212.743
-262.693
-309.421
-348.412
-371.086
-379.272
-380.176
-374.257
-356.221
-320.843
-275.555
-225.99
-176.904
-130.812
-88.8191
-52.1698
-22.3865
-1.26595
9.33485
65.512
49.6836
22.3758
-13.6586
-55.981
-102.896
-153.542
-207.697
-262.513
-313.018
-350.707
-368.55
-374.132
-370.47
-356.33
-322.979
-274.304
-219.96
-165.18
-113.857
-66.0844
-22.5951
15.1119
44.7493
63.5916
69.0475
59.82
37.85
5.82058
-33.6104
-78.3511
-127.145
-179.489
-234.55
-287.949
-333.805
-361.876
-372.498
-373.792
-365.945
-343.263
-301.148
-249.029
-193.953
-140.628
-90.8592
-44.976
-4.02686
30.0888
54.8045
67.3817
118.491
98.9088
65.5749
22.6459
-26.214
-78.6298
-133.783
-192.171
-251.674
-308.083
-354.153
-380.672
-389.315
-383.843
-361.965
-319.604
-264.683
-205.433
-146.502
-90.7662
-37.7659
12.0345
56.6336
92.6275
115.89
122.643
111.205
84.1621
45.4975
-0.76204
-51.545
-105.285
-161.925
-221.204
-279.8
-332.421
-369.879
-386.821
-388.689
-376.189
-344.213
-294.571
-236.912
-177.414
-119.85
-65.361
-13.6931
33.9745
74.9037
105.215
120.8
168.234
143.516
101.84
49.2644
-8.81494
-68.8875
-129.722
-191.901
-254.339
-313.889
-364.452
-397.618
-409.763
-402.074
-373.632
-326.243
-268.052
-205.925
-143.611
-82.6127
-22.4146
36.2916
90.5616
135.38
164.71
173.219
158.781
124.751
76.8488
20.9854
-38.3023
-98.6996
-160.031
-222.446
-283.957
-340.111
-383.264
-406.181
-408.793
-391.427
-353.13
-299.533
-238.86
-176.362
-114.584
-53.9238
5.84723
62.9778
113.416
151.453
171.135
218.383
187.273
135.248
70.6322
0.880487
-69.0431
-136.981
-202.46
-266.046
-325.886
-377.084
-412.421
-426.455
-417.486
-386.624
-338.333
-279.916
-216.953
-151.963
-84.7819
-15.3321
54.6899
121.065
176.84
213.713
224.42
206.234
163.528
104.141
36.2105
-33.9277
-102.878
-169.337
-233.817
-295.905
-352.311
-396.763
-422.206
-425.271
-405.55
-365.49
-311.496
-250.421
-186.366
-120.431
-51.8784
18.2675
87.3332
149.613
197.239
222.028
271.538
233.134
169.758
92.1099
9.66429
-70.8778
-145.906
-214.456
-278.288
-336.821
-386.526
-421.493
-435.961
-426.662
-395.881
-348.944
-292.028
-229.303
-161.994
-88.7141
-9.41466
72.9402
152.422
220.15
265.522
278.869
256.261
203.885
132.018
51.0003
-30.9967
-108.884
-180.321
-246.324
-307.717
-362.515
-405.875
-431.525
-434.718
-414.591
-375.266
-322.866
-262.839
-197.961
-128.093
-51.4893
30
112.039
187.157
245.376
276.092
330.298
285.078
211.564
122.403
28.5081
-62.0847
-144.283
-216.372
-280.734
-337.732
-385.161
-418.545
-432.636
-423.553
-394.095
-349.42
-294.362
-231.7
-161.617
-82.0563
6.74267
100.33
191.421
269.764
322.968
338.912
312.024
250.851
167.943
75.2758
-17.6553
-104.368
-181.048
-248.983
-309.721
-362.409
-403.64
-428.302
-431.43
-411.946
-374.496
-324.333
-265.445
-199.394
-125.271
-40.5369
51.5386
145.192
231.647
299.406
335.758
396.993
347.301
267.544
171.373
70.1609
-27.4997
-115.493
-191.301
-256.974
-313.194
-358.733
-390.429
-403.916
-395.215
-367.271
-324.587
-270.694
-207.281
-134.053
-49.166
46.5245
147.437
245.647
330.476
388.721
406.482
376.657
309.922
220.303
120.412
20.1713
-73.1838
-154.598
-225.026
-285.934
-337.115
-376.359
-399.778
-402.779
-384.203
-348.615
-300.183
-241.621
-173.669
-95.3116
-4.30923
94.9896
195.93
289.261
362.961
403.096
473.485
423.801
344.953
250.191
150.016
52.337
-36.8285
-114.39
-180.976
-236.796
-280.997
-311.328
-324.259
-315.919
-289.244
-248.023
-194.829
-130.824
-55.9787
30.3241
126.346
226.441
323.256
406.991
465.027
483.009
452.932
386.649
298.291
199.732
100.041
6.03072
-77.0077
-148.865
-210.022
-260.23
-297.964
-320.307
-323.184
-305.417
-271.285
-224.023
-165.522
-96.3273
-16.0934
75.748
174.724
274.426
366.378
439.385
479.685
561.372
518.314
450.862
370.217
284.57
199.668
119.706
47.5091
-15.3276
-67.9424
-109.256
-137.401
-149.433
-141.677
-116.966
-78.5402
-28.5
31.9274
101.9
180.086
264.051
349.87
432.273
503.759
553.867
569.65
543.357
486.341
411.048
327.112
241.341
158.555
82.4285
14.931
-42.8226
-89.9574
-125.055
-145.748
-148.425
-131.929
-100.216
-55.928
-0.692668
64.5483
138.877
220.374
305.875
390.887
469.149
531.755
566.833
661.811
633.562
590.409
539.839
486.573
433.066
380.082
328.714
282.456
243
211.699
190.214
180.918
186.917
205.802
234.951
272.57
317.27
367.503
420.327
473.644
527.047
578.539
624.017
656.683
667.231
649.758
612.843
565.229
512.959
459.52
406.458
353.81
304.842
261.886
226.347
199.673
183.819
181.746
194.441
218.604
252.093
293.379
341.14
393.52
446.46
499.931
552.775
602.028
642.311
665.477
776.601
771.443
765.322
760.349
757.11
754.808
750.999
744.054
736.676
729.639
723.432
718.684
716.378
717.894
722.158
728.061
734.91
742.2
749.263
753.992
756.304
759.16
763.692
769.653
775.31
777.496
774.001
768
762.326
758.304
755.836
753.44
747.565
740.328
733.114
726.469
720.92
717.24
716.705
719.759
724.949
731.409
738.575
745.979
752.743
755.585
757.857
761.452
766.798
772.936
777.381
)
;

boundaryField
{
    top
    {
        type            fixedFluxPressure;
        gradient        nonuniform List<scalar> 
51
(
1974.25
2417.97
3107.7
3929.76
4812.67
5728.69
6704.55
7745.31
8723.62
9577.78
10259.9
10723.4
10918.9
10793.6
10387.5
9752.33
8934.83
7982.21
6951.71
5950.6
5026.68
4135.94
3295.01
2564.89
2049.41
1885.89
2157.88
2743.04
3510.74
4368.17
5265.2
6196.93
7227.06
8244.79
9166.91
9941.36
10521.7
10860.7
10903.7
10634.5
10110.9
9380.88
8490.5
7488.29
6440.23
5493.14
4588.56
3717.89
2920.8
2279.76
1917.64
)
;
        value           nonuniform List<scalar> 
51
(
842.41
852.041
868.912
891.341
917.533
945.764
974.484
1002.23
1027.46
1048.9
1065.43
1076.13
1080.34
1077.68
1068.41
1053.14
1032.74
1008.27
980.987
952.345
923.86
897.025
873.526
855.149
843.624
840.359
845.93
859.435
879.35
903.91
931.343
960.004
988.467
1015.15
1038.68
1057.85
1071.64
1079.26
1080.16
1074.24
1061.98
1044.11
1021.59
995.588
967.418
938.69
910.809
885.381
864.158
848.928
841.302
)
;
    }
    bottom
    {
        type            fixedFluxPressure;
        gradient        uniform 0;
        value           nonuniform List<scalar> 
51
(
-71.5686
-85.4966
-110.999
-146.87
-191.438
-242.226
-295.387
-345.807
-389.698
-424.978
-447.02
-455.959
-458.289
-456.881
-449.919
-431.49
-398.429
-356.44
-307.199
-254.194
-202.431
-156.131
-118.023
-89.92
-73.1147
-68.4969
-76.3835
-96.2673
-127.142
-167.602
-215.644
-268.209
-320.669
-368.364
-408.131
-438.111
-452.817
-457.868
-458.325
-454.803
-443.282
-417.12
-379.595
-333.706
-282.145
-229.125
-179.6
-137.017
-103.602
-80.892
-69.9955
)
;
    }
    frontAndBack
    {
        type            empty;
    }
    left_cyc
    {
        type            cyclic;
    }
    right_cyc
    {
        type            cyclic;
    }
}


// ************************************************************************* //
