/*--------------------------------*- C++ -*----------------------------------*\
| =========                 |                                                 |
| \\      /  F ield         | OpenFOAM: The Open Source CFD Toolbox           |
|  \\    /   O peration     | Version:  2.3.0                                 |
|   \\  /    A nd           | Web:      www.OpenFOAM.org                      |
|    \\/     M anipulation  |                                                 |
\*---------------------------------------------------------------------------*/
FoamFile
{
    version     2.0;
    format      ascii;
    class       volScalarField;
    location    "18000";
    object      p_rgh;
}
// * * * * * * * * * * * * * * * * * * * * * * * * * * * * * * * * * * * * * //

dimensions      [0 2 -2 0 0 0 0];

internalField   nonuniform List<scalar> 
765
(
-1753.39
-1762.36
-1770.91
-1779.85
-1790.27
-1803.38
-1819.85
-1838.64
-1857.8
-1873.52
-1879.14
-1868.86
-1851.39
-1831.93
-1813.7
-1798.31
-1786.21
-1776.41
-1767.7
-1759.07
-1749.8
-1739.62
-1728.38
-1715.93
-1702.03
-1686.31
-1668.17
-1646.65
-1620.16
-1586.42
-1541.83
-1482.18
-1411.94
-1331.73
-1237.92
-1174.77
-1191.06
-1273.54
-1364.31
-1439.16
-1506.96
-1560.38
-1600.24
-1630.85
-1655.21
-1675.3
-1692.44
-1707.42
-1720.74
-1732.72
-1743.55
-1722.51
-1732.29
-1741.55
-1750.94
-1761.41
-1774.01
-1789.28
-1807.81
-1828.92
-1849.79
-1859.38
-1843.03
-1821.57
-1801.15
-1783.77
-1769.14
-1757.34
-1747.33
-1738.06
-1728.66
-1718.6
-1707.24
-1694.65
-1680.82
-1665.64
-1648.84
-1630
-1608.41
-1582.88
-1552.15
-1515.01
-1473.03
-1428.72
-1394.98
-1395.08
-1392.33
-1393.74
-1392.97
-1404.34
-1446.21
-1489.43
-1529.94
-1564.51
-1593.05
-1616.9
-1637.34
-1655.34
-1671.5
-1686.16
-1699.52
-1711.67
-1679.11
-1689.84
-1700.15
-1710.44
-1721.32
-1733.77
-1749.34
-1771.46
-1801.03
-1835.07
-1852.3
-1823.51
-1790.03
-1762.79
-1742.96
-1728.92
-1717.15
-1706.53
-1696.26
-1685.8
-1674.84
-1663.24
-1650.39
-1636.32
-1621.17
-1604.92
-1587.62
-1569.22
-1549.5
-1528.5
-1498.61
-1463.67
-1424.22
-1370.79
-1347.89
-1338.85
-1341.4
-1353.87
-1389.35
-1441.22
-1476.27
-1511.82
-1536.8
-1557.14
-1576.32
-1594.26
-1611.17
-1627
-1641.76
-1655.41
-1667.78
-1650.57
-1661.56
-1672.33
-1682.83
-1693.15
-1704.05
-1718.84
-1742.89
-1780.26
-1828.11
-1853.06
-1811.59
-1765.72
-1732.99
-1712.56
-1699.9
-1689.38
-1679.02
-1668.4
-1657.53
-1646.46
-1635.22
-1623.84
-1612.23
-1600.41
-1588.42
-1575.85
-1561.86
-1545.14
-1523.94
-1486.37
-1432.19
-1378.22
-1337.25
-1304.46
-1285.07
-1290.17
-1316
-1352.23
-1394.75
-1454.61
-1503.84
-1532.81
-1551.91
-1567.39
-1580.68
-1592.93
-1604.85
-1616.6
-1628.09
-1639.41
-1649.38
-1659.11
-1668.82
-1677.92
-1685.95
-1693.65
-1705.39
-1728.45
-1771.2
-1830.62
-1861.58
-1810.1
-1753.98
-1718.48
-1700.37
-1690.74
-1683.24
-1674.83
-1665.45
-1655.67
-1646.04
-1636.87
-1628.3
-1620.25
-1612.44
-1604.22
-1594.43
-1581.24
-1562.19
-1534.91
-1491.93
-1427.68
-1345.5
-1287.94
-1247.19
-1223.85
-1229.86
-1261.17
-1308.37
-1373.01
-1455.03
-1511.47
-1546.43
-1570.25
-1586.69
-1598.29
-1607.29
-1615.22
-1623.05
-1631.26
-1640.03
-1669.29
-1677.22
-1684.9
-1691.27
-1695.55
-1699.12
-1705.88
-1726.64
-1773.09
-1840.52
-1874.84
-1817.54
-1753.97
-1716.98
-1702.53
-1697.84
-1694.39
-1689.37
-1682.44
-1674.58
-1666.78
-1659.67
-1653.51
-1648.16
-1643.06
-1637.07
-1628.36
-1614.31
-1591.58
-1556.84
-1505.19
-1431.51
-1334.46
-1258.19
-1200.14
-1168
-1176.1
-1219.45
-1286.19
-1370.29
-1461.28
-1527.35
-1571.36
-1601.19
-1620.18
-1631.83
-1639.23
-1644.7
-1649.78
-1655.38
-1661.88
-1699.78
-1705.75
-1710.69
-1713.41
-1713.46
-1712.8
-1716.81
-1737.49
-1785.03
-1853.23
-1888.27
-1830.38
-1765.78
-1727.78
-1714.18
-1713.31
-1713.83
-1712.92
-1709.35
-1703.95
-1697.92
-1692.19
-1687.3
-1683.23
-1679.36
-1674.28
-1665.6
-1649.93
-1623.14
-1581.14
-1519.35
-1435.45
-1331.2
-1233.92
-1153.35
-1109.88
-1120.69
-1180.35
-1270.52
-1370.73
-1468.54
-1544.95
-1598.52
-1634.35
-1656.45
-1669.05
-1676.03
-1680.43
-1684.25
-1688.59
-1693.83
-1732.74
-1736.31
-1738.13
-1737.86
-1736.51
-1734.92
-1739.54
-1759.42
-1802.88
-1865.08
-1899.03
-1844.53
-1785.71
-1750.49
-1736.82
-1735.22
-1737.06
-1738.31
-1737.92
-1735.47
-1731.53
-1726.95
-1722.43
-1718.23
-1713.91
-1708.05
-1697.86
-1679.35
-1647.82
-1598.72
-1526.65
-1432.93
-1327.77
-1210.16
-1105.02
-1048.09
-1062.17
-1141.28
-1256.11
-1366.77
-1470.08
-1556.53
-1619.03
-1660.86
-1686.94
-1701.83
-1710.03
-1715.09
-1719.28
-1723.61
-1728.25
-1762.38
-1764.57
-1765.47
-1765.2
-1763.98
-1763.94
-1769.54
-1787.25
-1823.43
-1875.3
-1906.29
-1858.59
-1809.65
-1779.83
-1766.9
-1763.79
-1764.63
-1765.61
-1765.53
-1764.25
-1761.66
-1757.97
-1753.44
-1748.18
-1741.74
-1732.73
-1718.48
-1695.04
-1657.88
-1602.38
-1521.73
-1419.72
-1315.39
-1178.45
-1049.75
-978.928
-996.655
-1095.44
-1233.99
-1353.54
-1460.77
-1555.16
-1625.1
-1672.87
-1704.35
-1723.89
-1735.85
-1743.72
-1749.68
-1754.69
-1758.99
-1785.3
-1788.87
-1791.21
-1792.49
-1793.38
-1795.4
-1801.45
-1815.97
-1843.59
-1883.23
-1909.59
-1871.13
-1833.72
-1810.51
-1799.24
-1794.91
-1793.5
-1792.6
-1791.03
-1788.28
-1784.3
-1779.15
-1772.77
-1764.86
-1754.66
-1740.58
-1719.99
-1689.32
-1644.84
-1582.44
-1494.77
-1388.27
-1284.39
-1128.76
-980.404
-898.169
-918.949
-1032.35
-1188.34
-1318.63
-1429.9
-1529.95
-1607.22
-1662.06
-1701.01
-1727.57
-1745.47
-1757.95
-1767.23
-1774.57
-1780.53
-1787.03
-1795.36
-1802.49
-1808.53
-1813.83
-1819.23
-1826.49
-1838.49
-1858.45
-1886.42
-1907.03
-1878.77
-1852.18
-1834.82
-1824.6
-1818.15
-1812.89
-1807.38
-1800.98
-1793.44
-1784.68
-1774.67
-1763.36
-1749.86
-1733.33
-1711.96
-1683.25
-1644.17
-1592.21
-1523.87
-1431.18
-1315.67
-1208.93
-1047.19
-890.922
-802.636
-825.325
-943.707
-1108.98
-1251.74
-1359.98
-1467.02
-1550.07
-1611.43
-1658.45
-1693.44
-1719.22
-1738.64
-1753.95
-1766.6
-1777.45
-1732.83
-1750.49
-1766.74
-1781.68
-1795.41
-1808.17
-1820.66
-1834.3
-1850.96
-1871.09
-1886.19
-1866.57
-1846.8
-1831.04
-1817.81
-1805.25
-1792.14
-1777.97
-1762.56
-1745.8
-1727.59
-1707.82
-1686.6
-1664.41
-1639.22
-1609.38
-1572.68
-1526.07
-1466.42
-1388.25
-1291.62
-1181.45
-1076.43
-922.706
-778.292
-691.978
-714.82
-827.513
-982.287
-1118.78
-1220.04
-1328.03
-1418.35
-1488.13
-1542.68
-1585.27
-1619.24
-1647.26
-1671.3
-1692.93
-1713.62
-1549.54
-1578.92
-1606.4
-1632.36
-1657
-1680.42
-1702.62
-1723.79
-1744.2
-1763.29
-1774.98
-1759.58
-1739.57
-1718.72
-1697.07
-1674.34
-1650.41
-1625.26
-1598.76
-1570.62
-1540.48
-1508.22
-1474.64
-1441.46
-1409.21
-1372.98
-1331.31
-1280.32
-1216.87
-1135.33
-1043.69
-966.275
-883.136
-765.363
-650.472
-576.534
-596.575
-690.427
-809.917
-916.609
-990.773
-1072.93
-1166.49
-1239.21
-1298.33
-1345.26
-1384.62
-1419.21
-1451.41
-1484.83
-1518.04
-1151.51
-1185.59
-1218.17
-1249.42
-1279.26
-1307.38
-1333.31
-1356.62
-1376.94
-1393.39
-1401.23
-1390.27
-1372.31
-1350.88
-1326.55
-1299.75
-1270.92
-1240.5
-1208.73
-1175.61
-1140.88
-1104.23
-1065.93
-1026.47
-985.787
-945.173
-901.37
-852.99
-803.8
-754.91
-706.989
-664.405
-608.307
-529.882
-450.596
-397.175
-411.931
-478.65
-559.708
-631.294
-677.866
-723.121
-772.014
-819.972
-869.637
-916.435
-958.652
-998.929
-1038.92
-1077.87
-1115.59
-427.309
-458.073
-489.545
-521.815
-554.974
-588.934
-623.207
-656.585
-686.646
-709.222
-717.218
-704.229
-678.643
-647.073
-613.092
-578.722
-544.896
-511.941
-479.863
-448.553
-417.941
-388.001
-358.3
-329.317
-304.194
-284.723
-272.503
-269.553
-279.491
-306.668
-352.753
-408.068
-457.576
-486.324
-495.955
-493.148
-494.824
-494.182
-477.59
-440.804
-386.212
-334.208
-294.502
-273.732
-269.054
-275.24
-290.276
-311.596
-338.144
-367.592
-397.231
)
;

boundaryField
{
    top
    {
        type            fixedValue;
        value           uniform 0;
    }
    bottom
    {
        type            fixedFluxPressure;
        gradient        uniform 0;
        value           nonuniform List<scalar> 
51
(
-1753.39
-1762.36
-1770.91
-1779.85
-1790.27
-1803.38
-1819.85
-1838.64
-1857.8
-1873.52
-1879.14
-1868.86
-1851.39
-1831.93
-1813.7
-1798.31
-1786.21
-1776.41
-1767.7
-1759.07
-1749.8
-1739.62
-1728.38
-1715.93
-1702.03
-1686.31
-1668.17
-1646.65
-1620.16
-1586.42
-1541.83
-1482.18
-1411.94
-1331.73
-1237.92
-1174.77
-1191.06
-1273.54
-1364.31
-1439.16
-1506.96
-1560.38
-1600.24
-1630.85
-1655.21
-1675.3
-1692.44
-1707.42
-1720.74
-1732.72
-1743.55
)
;
    }
    frontAndBack
    {
        type            empty;
    }
    left_cyc
    {
        type            cyclic;
    }
    right_cyc
    {
        type            cyclic;
    }
}


// ************************************************************************* //
