/*--------------------------------*- C++ -*----------------------------------*\
| =========                 |                                                 |
| \\      /  F ield         | OpenFOAM: The Open Source CFD Toolbox           |
|  \\    /   O peration     | Version:  2.3.0                                 |
|   \\  /    A nd           | Web:      www.OpenFOAM.org                      |
|    \\/     M anipulation  |                                                 |
\*---------------------------------------------------------------------------*/
FoamFile
{
    version     2.0;
    format      ascii;
    class       surfaceScalarField;
    location    "18000";
    object      phi;
}
// * * * * * * * * * * * * * * * * * * * * * * * * * * * * * * * * * * * * * //

dimensions      [0 3 -1 0 0 0 0];

internalField   nonuniform List<scalar> 
5988
(
3.61095e-08
-3.17968e-08
6.73596e-08
-3.12501e-08
9.76032e-08
-3.02436e-08
1.26413e-07
-2.88102e-08
1.53405e-07
-2.6992e-08
1.78244e-07
-2.48388e-08
2.00648e-07
-2.24041e-08
2.20386e-07
-1.97373e-08
2.37254e-07
-1.68683e-08
2.51042e-07
-1.37879e-08
2.61472e-07
-1.04302e-08
2.68144e-07
-6.67219e-09
2.70501e-07
-2.35679e-09
2.67854e-07
2.64737e-09
2.59515e-07
8.33837e-09
2.45069e-07
1.44461e-08
2.24648e-07
2.04215e-08
1.99049e-07
2.55983e-08
1.69829e-07
2.92205e-08
1.39019e-07
3.081e-08
1.08563e-07
3.04564e-08
8.0005e-08
2.85576e-08
5.40886e-08
2.59164e-08
3.06649e-08
2.34237e-08
8.92544e-09
2.17395e-08
-1.22841e-08
2.12096e-08
-3.42111e-08
2.1927e-08
-5.79744e-08
2.37633e-08
-8.42995e-08
2.63251e-08
-1.13204e-07
2.8904e-08
-1.43801e-07
3.05976e-08
-1.74448e-07
3.06468e-08
-2.03164e-07
2.87162e-08
-2.27947e-07
2.47832e-08
-2.47356e-07
1.94082e-08
-2.60699e-07
1.33437e-08
-2.67943e-07
7.24401e-09
-2.6957e-07
1.62666e-09
-2.66286e-07
-3.28425e-09
-2.58766e-07
-7.51972e-09
-2.47544e-07
-1.12217e-08
-2.33001e-07
-1.45436e-08
-2.15402e-07
-1.75982e-08
-1.94963e-07
-2.04396e-08
-1.71895e-07
-2.3068e-08
-1.46447e-07
-2.54482e-08
-1.18917e-07
-2.75295e-08
-8.9658e-08
-2.92591e-08
-5.90689e-08
-3.05891e-08
-2.75893e-08
-3.14796e-08
4.31115e-09
-3.19005e-08
3.61455e-08
-3.18343e-08
6.74298e-08
-3.12843e-08
9.77017e-08
-3.02719e-08
1.26532e-07
-2.88298e-08
1.53532e-07
-2.70003e-08
1.78365e-07
-2.4833e-08
2.00746e-07
-2.23812e-08
2.20439e-07
-1.96929e-08
2.37235e-07
-1.67958e-08
2.50912e-07
-1.36769e-08
2.61177e-07
-1.02655e-08
2.67612e-07
-6.43523e-09
2.69641e-07
-2.02865e-09
2.66563e-07
3.07764e-09
2.57704e-07
8.85921e-09
2.42693e-07
1.50114e-08
2.21734e-07
2.09585e-08
1.95715e-07
2.60198e-08
1.6627e-07
2.94449e-08
1.35449e-07
3.08208e-08
1.05174e-07
3.02747e-08
7.69178e-08
2.82563e-08
5.13211e-08
2.55967e-08
2.81468e-08
2.31743e-08
6.53246e-09
2.16143e-08
-1.46975e-08
2.123e-08
-3.67871e-08
2.20896e-08
-6.0826e-08
2.40389e-08
-8.7476e-08
2.665e-08
-1.16658e-07
2.91821e-08
-1.4739e-07
3.07323e-08
-1.77972e-07
3.05811e-08
-2.06405e-07
2.84333e-08
-2.30726e-07
2.43212e-08
-2.49581e-07
1.88553e-08
-2.62364e-07
1.27828e-08
-2.69108e-07
6.74365e-09
-2.70331e-07
1.2231e-09
-2.66744e-07
-3.58723e-09
-2.59007e-07
-7.73634e-09
-2.47636e-07
-1.13714e-08
-2.32992e-07
-1.46443e-08
-2.15328e-07
-1.76636e-08
-1.94849e-07
-2.0479e-08
-1.71762e-07
-2.30872e-08
-1.46311e-07
-2.54511e-08
-1.18792e-07
-2.7519e-08
-8.9554e-08
-2.92378e-08
-5.89945e-08
-3.05595e-08
-2.755e-08
-3.14445e-08
-3.18627e-08
5.45692e-08
-7.9861e-08
1.0225e-07
-7.89311e-08
1.49226e-07
-7.72189e-08
1.95199e-07
-7.47836e-08
2.39899e-07
-7.16916e-08
2.83055e-07
-6.79948e-08
3.24355e-07
-6.37051e-08
3.63394e-07
-5.87756e-08
3.99618e-07
-5.30923e-08
4.32305e-07
-4.64746e-08
4.60552e-07
-3.86777e-08
4.83273e-07
-2.93933e-08
4.99176e-07
-1.82594e-08
5.06735e-07
-4.91218e-09
5.04256e-07
1.08173e-08
4.90161e-07
2.85413e-08
4.63418e-07
4.71652e-08
4.24017e-07
6.49986e-08
3.73637e-07
7.96011e-08
3.15661e-07
8.87856e-08
2.54004e-07
9.21135e-08
1.92282e-07
9.02796e-08
1.32888e-07
8.531e-08
7.65315e-08
7.97803e-08
2.24919e-08
7.57791e-08
-3.07808e-08
7.44823e-08
-8.50737e-08
7.62199e-08
-1.41848e-07
8.05375e-08
-2.01634e-07
8.61115e-08
-2.63459e-07
9.07286e-08
-3.24685e-07
9.18235e-08
-3.81574e-07
8.75358e-08
-4.30232e-07
7.73741e-08
-4.67473e-07
6.20246e-08
-4.91931e-07
4.38658e-08
-5.03822e-07
2.52347e-08
-5.04299e-07
7.72192e-09
-4.94997e-07
-7.67539e-09
-4.77601e-07
-2.06801e-08
-4.53604e-07
-3.15171e-08
-4.24269e-07
-4.05569e-08
-3.90658e-07
-4.81544e-08
-3.53649e-07
-5.46076e-08
-3.13938e-07
-6.01506e-08
-2.72053e-07
-6.49531e-08
-2.28384e-07
-6.91171e-08
-1.83236e-07
-7.26779e-08
-1.3688e-07
-7.56148e-08
-8.95968e-08
-7.78722e-08
-4.16917e-08
-7.93847e-08
6.50674e-09
-8.00989e-08
5.46594e-08
-7.9987e-08
1.02428e-07
-7.90534e-08
1.4949e-07
-7.73338e-08
1.95547e-07
-7.48866e-08
2.40324e-07
-7.17769e-08
2.83544e-07
-6.80533e-08
3.24886e-07
-6.3723e-08
3.63926e-07
-5.87335e-08
4.00094e-07
-5.29638e-08
4.32645e-07
-4.6227e-08
4.60651e-07
-3.82715e-08
4.82998e-07
-2.87828e-08
4.98365e-07
-1.73958e-08
5.05197e-07
-3.75413e-09
5.01785e-07
1.22713e-08
4.86584e-07
3.02127e-08
4.58641e-07
4.8901e-08
4.18099e-07
6.6562e-08
3.66848e-07
8.06956e-08
3.08397e-07
8.92722e-08
2.46675e-07
9.19967e-08
1.85206e-07
8.97246e-08
1.26208e-07
8.45948e-08
7.02062e-08
7.91764e-08
1.63554e-08
7.54652e-08
-3.69486e-08
7.45339e-08
-9.14842e-08
7.66252e-08
-1.4864e-07
8.11948e-08
-2.08803e-07
8.68132e-08
-2.70809e-07
9.11883e-08
-3.31864e-07
9.17864e-08
-3.88168e-07
8.68853e-08
-4.35862e-07
7.6127e-08
-4.71925e-07
6.03847e-08
-4.95196e-07
4.21263e-08
-5.0602e-07
2.36063e-08
-5.05616e-07
6.34022e-09
-4.95638e-07
-8.7549e-09
-4.77752e-07
-2.14737e-08
-4.53417e-07
-3.20704e-08
-4.2387e-07
-4.09187e-08
-3.90146e-07
-4.83689e-08
-3.53097e-07
-5.47124e-08
-3.13399e-07
-6.01767e-08
-2.71561e-07
-6.49247e-08
-2.2796e-07
-6.90523e-08
-1.8289e-07
-7.25889e-08
-1.36619e-07
-7.55095e-08
-8.94222e-08
-7.7756e-08
-4.1605e-08
-7.92617e-08
-7.99727e-08
6.11491e-08
-1.33719e-07
1.14506e-07
-1.32288e-07
1.66924e-07
-1.29637e-07
2.17965e-07
-1.25824e-07
2.67186e-07
-1.20913e-07
3.14134e-07
-1.14942e-07
3.5833e-07
-1.07901e-07
3.99268e-07
-9.97142e-08
4.36421e-07
-9.02452e-08
4.6925e-07
-7.93039e-08
4.97235e-07
-6.66622e-08
5.19906e-07
-5.20649e-08
5.36891e-07
-3.52441e-08
5.47906e-07
-1.59274e-08
5.52519e-07
6.20469e-09
5.49459e-07
3.16018e-08
5.36104e-07
6.05199e-08
5.0924e-07
9.18625e-08
4.66564e-07
1.22277e-07
4.08276e-07
1.47073e-07
3.38141e-07
1.62248e-07
2.61852e-07
1.66569e-07
1.84065e-07
1.63097e-07
1.07226e-07
1.5662e-07
3.17359e-08
1.51269e-07
-4.32337e-08
1.49452e-07
-1.18864e-07
1.5185e-07
-1.95852e-07
1.57525e-07
-2.7352e-07
1.63779e-07
-3.49059e-07
1.66268e-07
-4.1753e-07
1.60294e-07
-4.73308e-07
1.43315e-07
-5.1319e-07
1.17256e-07
-5.37478e-07
8.63122e-08
-5.48736e-07
5.51236e-08
-5.50185e-07
2.66842e-08
-5.44243e-07
1.78001e-09
-5.31984e-07
-1.99344e-08
-5.1378e-07
-3.8884e-08
-4.89925e-07
-5.53719e-08
-4.60816e-07
-6.96664e-08
-4.26938e-07
-8.20329e-08
-3.88823e-07
-9.27224e-08
-3.47016e-07
-1.01958e-07
-3.02048e-07
-1.09921e-07
-2.54425e-07
-1.1674e-07
-2.04627e-07
-1.22476e-07
-1.53112e-07
-1.2713e-07
-1.00326e-07
-1.30659e-07
-4.67103e-08
-1.33e-07
7.29046e-09
-1.341e-07
6.12311e-08
-1.33928e-07
1.14666e-07
-1.32489e-07
1.67153e-07
-1.29821e-07
2.18249e-07
-1.25983e-07
2.67506e-07
-1.21034e-07
3.14461e-07
-1.15008e-07
3.58627e-07
-1.07889e-07
3.9949e-07
-9.95969e-08
4.36515e-07
-8.99883e-08
4.69156e-07
-7.88687e-08
4.96891e-07
-6.60064e-08
5.19253e-07
-5.11451e-08
5.35876e-07
-3.40181e-08
5.46476e-07
-1.43546e-08
5.50576e-07
8.17176e-09
5.46771e-07
3.40173e-08
5.32314e-07
6.3358e-08
5.04003e-07
9.48734e-08
4.59726e-07
1.24972e-07
4.0005e-07
1.48949e-07
3.29104e-07
1.62943e-07
2.5258e-07
1.66248e-07
1.74917e-07
1.62258e-07
9.83025e-08
1.55791e-07
2.29535e-08
1.50814e-07
-5.20404e-08
1.49528e-07
-1.27848e-07
1.52432e-07
-2.05056e-07
1.58403e-07
-2.82777e-07
1.64534e-07
-3.57941e-07
1.66352e-07
-4.25426e-07
1.59272e-07
-4.79715e-07
1.41174e-07
-5.18006e-07
1.14418e-07
-5.40926e-07
8.33042e-08
-5.51181e-07
5.2382e-08
-5.51964e-07
2.43892e-08
-5.45545e-07
-7.89917e-11
-5.32886e-07
-2.14133e-08
-5.14333e-07
-4.00273e-08
-4.90183e-07
-5.62203e-08
-4.60839e-07
-7.02625e-08
-4.26788e-07
-8.242e-08
-3.88559e-07
-9.29419e-08
-3.46688e-07
-1.02047e-07
-3.017e-07
-1.09913e-07
-2.54092e-07
-1.16661e-07
-2.04334e-07
-1.22346e-07
-1.52878e-07
-1.26966e-07
-1.00163e-07
-1.30471e-07
-4.66271e-08
-1.32798e-07
-1.33891e-07
6.39577e-08
-1.90049e-07
1.19644e-07
-1.87974e-07
1.74123e-07
-1.84116e-07
2.26838e-07
-1.78538e-07
2.77231e-07
-1.71307e-07
3.24754e-07
-1.62466e-07
3.68871e-07
-1.52018e-07
4.09066e-07
-1.3991e-07
4.44858e-07
-1.26036e-07
4.75805e-07
-1.10251e-07
5.01521e-07
-9.23789e-08
5.21685e-07
-7.22282e-08
5.36033e-07
-4.95927e-08
5.44337e-07
-2.42307e-08
5.4634e-07
4.20138e-09
5.41758e-07
3.61837e-08
5.30281e-07
7.19965e-08
5.11045e-07
1.11099e-07
4.81258e-07
1.52065e-07
4.36395e-07
1.91936e-07
3.74196e-07
2.24448e-07
2.97584e-07
2.43181e-07
2.1299e-07
2.47691e-07
1.25483e-07
2.44126e-07
3.73879e-08
2.39365e-07
-5.07174e-08
2.37557e-07
-1.3874e-07
2.39873e-07
-2.25916e-07
2.44702e-07
-3.09536e-07
2.47399e-07
-3.84128e-07
2.4086e-07
-4.43469e-07
2.19635e-07
-4.85507e-07
1.85353e-07
-5.13145e-07
1.44893e-07
-5.30835e-07
1.04002e-07
-5.40973e-07
6.52614e-08
-5.44253e-07
2.9965e-08
-5.40972e-07
-1.50144e-09
-5.31413e-07
-2.94935e-08
-5.15825e-07
-5.44722e-08
-4.94442e-07
-7.67547e-08
-4.67538e-07
-9.65699e-08
-4.35453e-07
-1.14118e-07
-3.98587e-07
-1.29588e-07
-3.57396e-07
-1.43148e-07
-3.12377e-07
-1.5494e-07
-2.64057e-07
-1.6506e-07
-2.12983e-07
-1.7355e-07
-1.59713e-07
-1.804e-07
-1.0481e-07
-1.85562e-07
-4.88407e-08
-1.88969e-07
7.62404e-09
-1.90564e-07
6.40113e-08
-1.90315e-07
1.19749e-07
-1.88226e-07
1.74267e-07
-1.84339e-07
2.27e-07
-1.78715e-07
2.77385e-07
-1.71419e-07
3.24868e-07
-1.6249e-07
3.68904e-07
-1.51926e-07
4.08975e-07
-1.39667e-07
4.44592e-07
-1.25606e-07
4.75315e-07
-1.09592e-07
5.00758e-07
-9.14492e-08
5.206e-07
-7.09869e-08
5.34582e-07
-4.79997e-08
5.42471e-07
-2.22436e-08
5.44007e-07
6.6354e-09
5.38905e-07
3.91193e-08
5.26838e-07
7.54253e-08
5.06804e-07
1.14907e-07
4.75742e-07
1.56035e-07
4.29146e-07
1.95545e-07
3.65244e-07
2.26845e-07
2.87549e-07
2.43943e-07
2.02543e-07
2.47264e-07
1.14977e-07
2.43357e-07
2.69062e-08
2.38885e-07
-6.12055e-08
2.37639e-07
-1.49248e-07
2.40475e-07
-2.36302e-07
2.45458e-07
-3.19355e-07
2.47587e-07
-3.92659e-07
2.39657e-07
-4.50225e-07
2.16837e-07
-4.90617e-07
1.81566e-07
-5.17128e-07
1.4093e-07
-5.34099e-07
1.00275e-07
-5.43671e-07
6.19536e-08
-5.46445e-07
2.71634e-08
-5.42711e-07
-3.81332e-09
-5.3275e-07
-3.13741e-08
-5.16806e-07
-5.59712e-08
-4.95113e-07
-7.79132e-08
-4.67948e-07
-9.7428e-08
-4.3565e-07
-1.14717e-07
-3.98623e-07
-1.29969e-07
-3.57318e-07
-1.43352e-07
-3.12228e-07
-1.55003e-07
-2.63876e-07
-1.65013e-07
-2.12801e-07
-1.73421e-07
-1.59555e-07
-1.80212e-07
-1.04693e-07
-1.85332e-07
-4.87777e-08
-1.88713e-07
-1.90297e-07
6.4511e-08
-2.46863e-07
1.20577e-07
-2.4404e-07
1.75241e-07
-2.38781e-07
2.27865e-07
-2.31162e-07
2.77826e-07
-2.21267e-07
3.24527e-07
-2.09167e-07
3.67409e-07
-1.949e-07
4.05956e-07
-1.78457e-07
4.39709e-07
-1.59789e-07
4.68263e-07
-1.38805e-07
4.91271e-07
-1.15387e-07
5.08439e-07
-8.93962e-08
5.19518e-07
-6.06713e-08
5.24304e-07
-2.90169e-08
5.22686e-07
5.81995e-09
5.14746e-07
4.41233e-08
5.0075e-07
8.59926e-08
4.8077e-07
1.31079e-07
4.54215e-07
1.7862e-07
4.19078e-07
2.27073e-07
3.70697e-07
2.72828e-07
3.048e-07
3.09079e-07
2.23532e-07
3.28959e-07
1.33603e-07
3.34055e-07
4.0112e-08
3.32856e-07
-5.42006e-08
3.3187e-07
-1.47307e-07
3.32979e-07
-2.362e-07
3.33595e-07
-3.15355e-07
3.26555e-07
-3.78315e-07
3.0382e-07
-4.24078e-07
2.65398e-07
-4.57478e-07
2.18752e-07
-4.82745e-07
1.70161e-07
-5.01575e-07
1.22831e-07
-5.14417e-07
7.81038e-08
-5.21133e-07
3.66813e-08
-5.21473e-07
-1.16212e-09
-5.15391e-07
-3.55749e-08
-5.03024e-07
-6.6839e-08
-4.84587e-07
-9.51926e-08
-4.60337e-07
-1.20819e-07
-4.30584e-07
-1.43872e-07
-3.95689e-07
-1.64483e-07
-3.56073e-07
-1.82764e-07
-3.12215e-07
-1.98799e-07
-2.64646e-07
-2.12629e-07
-2.13943e-07
-2.24253e-07
-1.60716e-07
-2.33627e-07
-1.056e-07
-2.40678e-07
-4.92447e-08
-2.45324e-07
7.6877e-09
-2.47497e-07
6.453e-08
-2.47157e-07
1.20616e-07
-2.44312e-07
1.75285e-07
-2.39009e-07
2.27893e-07
-2.31323e-07
2.77809e-07
-2.21335e-07
3.24431e-07
-2.09113e-07
3.67195e-07
-1.94689e-07
4.05581e-07
-1.78054e-07
4.39126e-07
-1.59152e-07
4.67427e-07
-1.37892e-07
4.90135e-07
-1.14157e-07
5.06957e-07
-8.78089e-08
5.17645e-07
-5.86878e-08
5.22e-07
-2.65987e-08
5.19923e-07
8.71228e-09
5.11522e-07
4.75199e-08
4.97066e-07
8.98818e-08
4.76577e-07
1.35396e-07
4.49361e-07
1.8325e-07
4.1317e-07
2.31736e-07
3.63078e-07
2.76936e-07
2.95326e-07
3.11695e-07
2.12847e-07
3.29744e-07
1.22396e-07
3.33808e-07
2.87408e-08
3.3254e-07
-6.55491e-08
3.31929e-07
-1.5842e-07
3.33346e-07
-2.46637e-07
3.33675e-07
-3.2436e-07
3.2531e-07
-3.85421e-07
3.00717e-07
-4.29637e-07
2.61053e-07
-4.62121e-07
2.14051e-07
-4.86785e-07
1.65593e-07
-5.05125e-07
1.18615e-07
-5.17509e-07
7.43375e-08
-5.23762e-07
3.34168e-08
-5.23648e-07
-3.92779e-09
-5.17144e-07
-3.78775e-08
-5.04398e-07
-6.87181e-08
-4.85624e-07
-9.66863e-08
-4.61086e-07
-1.21967e-07
-4.3109e-07
-1.44713e-07
-3.95999e-07
-1.6506e-07
-3.56232e-07
-1.83119e-07
-3.12265e-07
-1.9897e-07
-2.64625e-07
-2.12653e-07
-2.13885e-07
-2.24162e-07
-1.60647e-07
-2.33449e-07
-1.0554e-07
-2.40439e-07
-4.92075e-08
-2.45046e-07
-2.47201e-07
6.32946e-08
-3.02605e-07
1.18215e-07
-2.9896e-07
1.71602e-07
-2.92168e-07
2.22765e-07
-2.82325e-07
2.71044e-07
-2.69546e-07
3.1582e-07
-2.53943e-07
3.56526e-07
-2.35605e-07
3.92656e-07
-2.14587e-07
4.23769e-07
-1.90902e-07
4.49492e-07
-1.64528e-07
4.69515e-07
-1.3541e-07
4.83582e-07
-1.03464e-07
4.91493e-07
-6.85825e-08
4.93112e-07
-3.06358e-08
4.8841e-07
1.05224e-08
4.77529e-07
5.50042e-08
4.60778e-07
1.02743e-07
4.38503e-07
1.53354e-07
4.10965e-07
2.06157e-07
3.77926e-07
2.60112e-07
3.37392e-07
3.13362e-07
2.84636e-07
3.61834e-07
2.15215e-07
3.9838e-07
1.31412e-07
4.17857e-07
3.98823e-08
4.24386e-07
-5.36838e-08
4.25436e-07
-1.44381e-07
4.23675e-07
-2.26273e-07
4.15488e-07
-2.92946e-07
3.93228e-07
-3.4328e-07
3.54153e-07
-3.82273e-07
3.04391e-07
-4.14238e-07
2.50717e-07
-4.40794e-07
1.96717e-07
-4.62034e-07
1.44071e-07
-4.77671e-07
9.37404e-08
-4.87356e-07
4.6366e-08
-4.908e-07
2.2823e-09
-4.87894e-07
-3.84809e-08
-4.7869e-07
-7.6043e-08
-4.63339e-07
-1.10543e-07
-4.42055e-07
-1.42103e-07
-4.15106e-07
-1.70821e-07
-3.82819e-07
-1.9677e-07
-3.45585e-07
-2.19998e-07
-3.03866e-07
-2.40518e-07
-2.58187e-07
-2.58308e-07
-2.09136e-07
-2.73304e-07
-1.57348e-07
-2.85414e-07
-1.03501e-07
-2.94526e-07
-4.82968e-08
-3.00528e-07
7.53999e-09
-3.03334e-07
6.32779e-08
-3.02895e-07
1.18186e-07
-2.9922e-07
1.71546e-07
-2.92369e-07
2.2266e-07
-2.82437e-07
2.70862e-07
-2.69537e-07
3.15528e-07
-2.53778e-07
3.56086e-07
-2.35247e-07
3.92026e-07
-2.13994e-07
4.22908e-07
-1.90034e-07
4.48358e-07
-1.63342e-07
4.68064e-07
-1.33864e-07
4.81774e-07
-1.01519e-07
4.89289e-07
-6.62028e-08
4.90479e-07
-2.77892e-08
4.8533e-07
1.38617e-08
4.74003e-07
5.88465e-08
4.5682e-07
1.07066e-07
4.34121e-07
1.58095e-07
4.06151e-07
2.11221e-07
3.72546e-07
2.6534e-07
3.31035e-07
3.18448e-07
2.76625e-07
3.66104e-07
2.05406e-07
4.00963e-07
1.20452e-07
4.18762e-07
2.84696e-08
4.24522e-07
-6.50288e-08
4.25428e-07
-1.55106e-07
4.23423e-07
-2.35632e-07
4.142e-07
-3.00453e-07
3.90132e-07
-3.4931e-07
3.49574e-07
-3.8747e-07
2.99213e-07
-4.18926e-07
2.45507e-07
-4.45057e-07
1.91723e-07
-4.65871e-07
1.3943e-07
-4.81071e-07
8.9537e-08
-4.90307e-07
4.2653e-08
-4.93306e-07
-9.28046e-10
-4.89979e-07
-4.12054e-08
-4.80387e-07
-7.83096e-08
-4.64688e-07
-1.12385e-07
-4.43097e-07
-1.43557e-07
-4.15884e-07
-1.71926e-07
-3.83375e-07
-1.97569e-07
-3.45963e-07
-2.20532e-07
-3.04104e-07
-2.40829e-07
-2.58323e-07
-2.58434e-07
-2.09201e-07
-2.73284e-07
-1.5737e-07
-2.8528e-07
-1.035e-07
-2.9431e-07
-4.82866e-08
-3.00259e-07
-3.0304e-07
6.06286e-08
-3.55997e-07
1.13157e-07
-3.51489e-07
1.64077e-07
-3.43088e-07
2.12672e-07
-3.3092e-07
2.58266e-07
-3.15141e-07
3.00238e-07
-2.95915e-07
3.38028e-07
-2.73395e-07
3.71147e-07
-2.47706e-07
3.99182e-07
-2.18937e-07
4.21792e-07
-1.87138e-07
4.38704e-07
-1.52322e-07
4.49711e-07
-1.1447e-07
4.54667e-07
-7.35387e-08
4.53505e-07
-2.94738e-08
4.46263e-07
1.77645e-08
4.33119e-07
6.81482e-08
4.14381e-07
1.21481e-07
3.90418e-07
1.77318e-07
3.61608e-07
2.34967e-07
3.28248e-07
2.93473e-07
2.9011e-07
3.51499e-07
2.4514e-07
4.06804e-07
1.88757e-07
4.54764e-07
1.17934e-07
4.8868e-07
3.62998e-08
5.0602e-07
-4.8651e-08
5.10387e-07
-1.29024e-07
5.04048e-07
-1.97607e-07
4.84071e-07
-2.51797e-07
4.47418e-07
-2.95355e-07
3.97711e-07
-3.32566e-07
3.41602e-07
-3.65086e-07
2.83238e-07
-3.93003e-07
2.24634e-07
-4.15988e-07
1.67057e-07
-4.33663e-07
1.11415e-07
-4.45663e-07
5.83659e-08
-4.51697e-07
8.3165e-09
-4.51613e-07
-3.85653e-08
-4.45393e-07
-8.22624e-08
-4.33123e-07
-1.22813e-07
-4.14961e-07
-1.60265e-07
-3.91131e-07
-1.94651e-07
-3.61923e-07
-2.25979e-07
-3.27696e-07
-2.54224e-07
-2.88887e-07
-2.79327e-07
-2.46006e-07
-3.01188e-07
-1.99634e-07
-3.19676e-07
-1.50415e-07
-3.34634e-07
-9.90404e-08
-3.459e-07
-4.62433e-08
-3.53325e-07
7.21943e-09
-3.56796e-07
6.05781e-08
-3.56254e-07
1.13065e-07
-3.51707e-07
1.63929e-07
-3.43232e-07
2.12446e-07
-3.30954e-07
2.57936e-07
-3.15027e-07
2.99773e-07
-2.95615e-07
3.37392e-07
-2.72866e-07
3.70304e-07
-2.46906e-07
3.98093e-07
-2.17823e-07
4.20419e-07
-1.85667e-07
4.3701e-07
-1.50454e-07
4.47659e-07
-1.12168e-07
4.52227e-07
-7.07705e-08
4.50652e-07
-2.62146e-08
4.42985e-07
2.15287e-08
4.29419e-07
7.24125e-08
4.10273e-07
1.26212e-07
3.85918e-07
1.8245e-07
3.56733e-07
2.40405e-07
3.22987e-07
2.99086e-07
2.84336e-07
3.57099e-07
2.3842e-07
4.1202e-07
1.80503e-07
4.5888e-07
1.08197e-07
4.91069e-07
2.58127e-08
5.06906e-07
-5.90203e-08
5.10261e-07
-1.38411e-07
5.02813e-07
-2.0541e-07
4.81199e-07
-2.58199e-07
4.42921e-07
-3.00958e-07
3.92333e-07
-3.37713e-07
3.35968e-07
-3.69857e-07
2.77651e-07
-3.97394e-07
2.19261e-07
-4.19983e-07
1.62019e-07
-4.37244e-07
1.06798e-07
-4.48819e-07
5.42279e-08
-4.54429e-07
4.68195e-09
-4.53936e-07
-4.16982e-08
-4.47335e-07
-8.4911e-08
-4.34715e-07
-1.25005e-07
-4.1624e-07
-1.62033e-07
-3.92134e-07
-1.96032e-07
-3.62689e-07
-2.27015e-07
-3.28263e-07
-2.54957e-07
-2.89292e-07
-2.798e-07
-2.46283e-07
-3.01443e-07
-1.99814e-07
-3.19753e-07
-1.50522e-07
-3.34572e-07
-9.90953e-08
-3.45736e-07
-4.62591e-08
-3.53096e-07
-3.56536e-07
5.6789e-08
-4.06006e-07
1.05919e-07
-4.00619e-07
1.53413e-07
-3.90582e-07
1.98552e-07
-3.76058e-07
2.40662e-07
-3.57251e-07
2.79133e-07
-3.34386e-07
3.13426e-07
-3.07689e-07
3.43082e-07
-2.77362e-07
3.67719e-07
-2.43574e-07
3.87036e-07
-2.06455e-07
4.00806e-07
-1.66093e-07
4.08874e-07
-1.22538e-07
4.11153e-07
-7.58184e-08
4.07639e-07
-2.59597e-08
3.98421e-07
2.69826e-08
3.83702e-07
8.28675e-08
3.63788e-07
1.41395e-07
3.39051e-07
2.02055e-07
3.099e-07
2.64117e-07
2.76741e-07
3.26632e-07
2.39852e-07
3.88388e-07
1.98922e-07
4.47734e-07
1.51926e-07
5.0176e-07
9.55058e-08
5.45101e-07
2.96952e-08
5.71831e-07
-3.95912e-08
5.79673e-07
-1.04178e-07
5.68635e-07
-1.58935e-07
5.38828e-07
-2.04698e-07
4.93182e-07
-2.4484e-07
4.37853e-07
-2.81048e-07
3.7781e-07
-3.13478e-07
3.15667e-07
-3.41816e-07
2.52972e-07
-3.6565e-07
1.90891e-07
-3.84575e-07
1.3034e-07
-3.98226e-07
7.20167e-08
-4.06311e-07
1.64019e-08
-4.08648e-07
-3.62284e-08
-4.05165e-07
-8.57455e-08
-3.95884e-07
-1.32094e-07
-3.80906e-07
-1.75243e-07
-3.60404e-07
-2.15154e-07
-3.34622e-07
-2.51761e-07
-3.03883e-07
-2.84963e-07
-2.68589e-07
-3.14621e-07
-2.29226e-07
-3.40552e-07
-1.86354e-07
-3.62548e-07
-1.40606e-07
-3.80381e-07
-9.26742e-08
-3.93832e-07
-4.32963e-08
-4.02703e-07
6.7592e-09
-4.06852e-07
5.67087e-08
-4.06203e-07
1.05771e-07
-4.00769e-07
1.53184e-07
-3.90646e-07
1.98222e-07
-3.75992e-07
2.40207e-07
-3.57012e-07
2.78524e-07
-3.33932e-07
3.12633e-07
-3.06975e-07
3.4207e-07
-2.76343e-07
3.66455e-07
-2.42208e-07
3.85487e-07
-2.047e-07
3.98942e-07
-1.63908e-07
4.06664e-07
-1.19891e-07
4.08575e-07
-7.26811e-08
4.04674e-07
-2.23143e-08
3.95063e-07
3.11399e-08
3.79956e-07
8.75203e-08
3.59667e-07
1.46501e-07
3.34575e-07
2.07542e-07
3.05092e-07
2.69888e-07
2.71619e-07
3.3256e-07
2.34403e-07
3.94315e-07
1.93005e-07
4.53418e-07
1.45151e-07
5.06734e-07
8.75758e-08
5.48644e-07
2.09984e-08
5.73484e-07
-4.8157e-08
5.79416e-07
-1.118e-07
5.66456e-07
-1.65429e-07
5.34828e-07
-2.10457e-07
4.87949e-07
-2.50191e-07
4.32067e-07
-2.86083e-07
3.7186e-07
-3.18194e-07
3.09762e-07
-3.46194e-07
2.4726e-07
-3.69667e-07
1.85492e-07
-3.88212e-07
1.25343e-07
-4.01471e-07
6.74869e-08
-4.09163e-07
1.23736e-08
-4.11116e-07
-3.9745e-08
-4.07268e-07
-8.87587e-08
-3.97648e-07
-1.34625e-07
-3.82361e-07
-1.7732e-07
-3.61581e-07
-2.16812e-07
-3.35555e-07
-2.53041e-07
-3.04605e-07
-2.85907e-07
-2.69134e-07
-3.15271e-07
-2.29623e-07
-3.40954e-07
-1.86632e-07
-3.62744e-07
-1.40788e-07
-3.80415e-07
-9.27787e-08
-3.93745e-07
-4.33355e-08
-4.02539e-07
-4.06651e-07
5.20002e-08
-4.51798e-07
9.69192e-08
-4.45538e-07
1.40219e-07
-4.33882e-07
1.81193e-07
-4.17031e-07
2.19187e-07
-3.95245e-07
2.53618e-07
-3.68817e-07
2.83978e-07
-3.38049e-07
3.09843e-07
-3.03227e-07
3.30874e-07
-2.64606e-07
3.46816e-07
-2.22398e-07
3.57494e-07
-1.7677e-07
3.62806e-07
-1.2785e-07
3.62727e-07
-7.57391e-08
3.57308e-07
-2.05416e-08
3.4669e-07
3.76008e-08
3.31104e-07
9.84538e-08
3.10866e-07
1.61632e-07
2.86359e-07
2.26562e-07
2.58012e-07
2.92464e-07
2.26294e-07
3.5835e-07
1.91679e-07
4.23003e-07
1.54534e-07
4.84879e-07
1.14648e-07
5.41646e-07
7.06879e-08
5.89061e-07
2.1878e-08
6.20641e-07
-2.89904e-08
6.30541e-07
-7.71076e-08
6.16752e-07
-1.2029e-07
5.8201e-07
-1.59636e-07
5.32528e-07
-1.96324e-07
4.74541e-07
-2.30424e-07
4.1191e-07
-2.61532e-07
3.46775e-07
-2.89171e-07
2.80611e-07
-3.12877e-07
2.14597e-07
-3.32225e-07
1.49688e-07
-3.46845e-07
8.66358e-08
-3.5643e-07
2.59869e-08
-3.60764e-07
-3.18937e-08
-3.59726e-07
-8.67839e-08
-3.53277e-07
-1.38543e-07
-3.41461e-07
-1.8706e-07
-3.24393e-07
-2.32221e-07
-3.0227e-07
-2.73884e-07
-2.75369e-07
-3.11865e-07
-2.4405e-07
-3.45939e-07
-2.08762e-07
-3.7584e-07
-1.70037e-07
-4.01273e-07
-1.28482e-07
-4.21936e-07
-8.47708e-08
-4.37543e-07
-3.9628e-08
-4.47846e-07
6.18625e-09
-4.52666e-07
5.18955e-08
-4.51912e-07
9.67257e-08
-4.456e-07
1.39925e-07
-4.33845e-07
1.8078e-07
-4.16847e-07
2.18634e-07
-3.94866e-07
2.529e-07
-3.68197e-07
2.83067e-07
-3.37142e-07
3.08711e-07
-3.01987e-07
3.29493e-07
-2.62991e-07
3.45159e-07
-2.20366e-07
3.55535e-07
-1.74284e-07
3.60524e-07
-1.2488e-07
3.60105e-07
-7.22622e-08
3.54338e-07
-1.65466e-08
3.43368e-07
4.21091e-08
3.27439e-07
1.0345e-07
3.06874e-07
1.67065e-07
2.82062e-07
2.32354e-07
2.53439e-07
2.98511e-07
2.21476e-07
3.64523e-07
1.86647e-07
4.29144e-07
1.49286e-07
4.90779e-07
1.09068e-07
5.46951e-07
6.4573e-08
5.93138e-07
1.53238e-08
6.22733e-07
-3.54639e-08
6.30204e-07
-8.30654e-08
6.14058e-07
-1.25758e-07
5.77521e-07
-1.64818e-07
5.27009e-07
-2.01297e-07
4.68546e-07
-2.35176e-07
4.05738e-07
-2.6603e-07
3.40617e-07
-2.93385e-07
2.74615e-07
-3.16779e-07
2.08886e-07
-3.35795e-07
1.44359e-07
-3.50067e-07
8.17589e-08
-3.59299e-07
2.16058e-08
-3.63285e-07
-3.57594e-08
-3.61909e-07
-9.01343e-08
-3.55142e-07
-1.41392e-07
-3.43029e-07
-1.89433e-07
-3.2569e-07
-2.3415e-07
-3.03324e-07
-2.75407e-07
-2.76208e-07
-3.13024e-07
-2.44703e-07
-3.46777e-07
-2.09255e-07
-3.76401e-07
-1.70395e-07
-4.01604e-07
-1.28726e-07
-4.22085e-07
-8.49165e-08
-4.37555e-07
-3.96869e-08
-4.47768e-07
-4.52546e-07
4.64462e-08
-4.92697e-07
8.65016e-08
-4.85593e-07
1.24993e-07
-4.72374e-07
1.61243e-07
-4.53281e-07
1.94632e-07
-4.28634e-07
2.24613e-07
-3.98798e-07
2.5072e-07
-3.64156e-07
2.72576e-07
-3.25082e-07
2.89889e-07
-2.81919e-07
3.02455e-07
-2.34964e-07
3.10152e-07
-1.84467e-07
3.12937e-07
-1.30635e-07
3.10843e-07
-7.36451e-08
3.03979e-07
-1.36776e-08
2.92533e-07
4.90469e-08
2.76774e-07
1.14213e-07
2.57044e-07
1.81362e-07
2.33752e-07
2.49854e-07
2.07365e-07
3.18851e-07
1.78414e-07
3.87301e-07
1.47505e-07
4.53912e-07
1.15319e-07
5.17065e-07
8.24731e-08
5.74492e-07
4.91152e-08
6.22419e-07
1.49462e-08
6.5481e-07
-1.96521e-08
6.6514e-07
-5.36768e-08
6.50777e-07
-8.69098e-08
6.15243e-07
-1.19637e-07
5.65255e-07
-1.51608e-07
5.06513e-07
-1.82173e-07
4.42475e-07
-2.1066e-07
3.75262e-07
-2.36474e-07
3.06425e-07
-2.59094e-07
2.37217e-07
-2.78061e-07
1.68656e-07
-2.92978e-07
1.01553e-07
-3.03513e-07
3.65213e-08
-3.09409e-07
-2.59975e-08
-3.10493e-07
-8.56996e-08
-3.06671e-07
-1.42365e-07
-2.97926e-07
-1.95805e-07
-2.84318e-07
-2.45829e-07
-2.65988e-07
-2.92213e-07
-2.43163e-07
-3.34691e-07
-2.16155e-07
-3.72947e-07
-1.8537e-07
-4.06626e-07
-1.51295e-07
-4.35347e-07
-1.14503e-07
-4.58729e-07
-7.56325e-08
-4.76413e-07
-3.53796e-08
-4.88099e-07
5.52261e-09
-4.93568e-07
4.63232e-08
-4.92713e-07
8.6274e-08
-4.85551e-07
1.2465e-07
-4.72221e-07
1.6077e-07
-4.52966e-07
1.94009e-07
-4.28106e-07
2.2382e-07
-3.98008e-07
2.49735e-07
-3.63057e-07
2.71374e-07
-3.23627e-07
2.88448e-07
-2.80065e-07
3.00754e-07
-2.32672e-07
3.08173e-07
-1.81704e-07
3.10666e-07
-1.27373e-07
3.08271e-07
-6.98666e-08
3.01102e-07
-9.37827e-09
2.89357e-07
5.38548e-08
2.73311e-07
1.19496e-07
2.53316e-07
1.87061e-07
2.29785e-07
2.55884e-07
2.03195e-07
3.25101e-07
1.74085e-07
3.93633e-07
1.43072e-07
4.60158e-07
1.10841e-07
5.2301e-07
7.79808e-08
5.79812e-07
4.45673e-08
6.26552e-07
1.0317e-08
6.56983e-07
-2.42643e-08
6.64785e-07
-5.8202e-08
6.47996e-07
-9.13961e-08
6.10715e-07
-1.24106e-07
5.5972e-07
-1.56017e-07
5.00457e-07
-1.86462e-07
4.36183e-07
-2.14776e-07
3.68931e-07
-2.40377e-07
3.00216e-07
-2.6275e-07
2.31259e-07
-2.81445e-07
1.63054e-07
-2.9607e-07
9.63839e-08
-3.06302e-07
3.18374e-08
-3.11892e-07
-3.01688e-08
-3.12676e-07
-8.9351e-08
-3.08563e-07
-1.45504e-07
-2.99543e-07
-1.98453e-07
-2.85679e-07
-2.48014e-07
-2.67115e-07
-2.93971e-07
-2.44078e-07
-3.36061e-07
-2.16882e-07
-3.73972e-07
-1.85931e-07
-4.07352e-07
-1.51712e-07
-4.35824e-07
-1.14793e-07
-4.59004e-07
-7.58096e-08
-4.76538e-07
-3.54538e-08
-4.88124e-07
-4.93547e-07
4.02752e-08
-5.28162e-07
7.49432e-08
-5.20261e-07
1.08138e-07
-5.05568e-07
1.39225e-07
-4.84368e-07
1.67633e-07
-4.57042e-07
1.92862e-07
-4.24028e-07
2.14499e-07
-3.85793e-07
2.32216e-07
-3.42799e-07
2.45776e-07
-2.95478e-07
2.55028e-07
-2.44216e-07
2.59907e-07
-1.89346e-07
2.60427e-07
-1.31154e-07
2.56676e-07
-6.98943e-08
2.48819e-07
-5.82039e-09
2.37093e-07
6.0773e-08
2.21808e-07
1.29498e-07
2.03343e-07
1.99827e-07
1.8214e-07
2.71057e-07
1.58709e-07
3.42282e-07
1.3364e-07
4.1237e-07
1.07624e-07
4.79928e-07
8.1478e-08
5.4321e-07
5.61016e-08
5.99868e-07
3.21642e-08
6.46356e-07
9.59548e-09
6.77378e-07
-1.24771e-08
6.87212e-07
-3.52075e-08
6.73507e-07
-5.93675e-08
6.39403e-07
-8.48853e-08
5.90772e-07
-1.11019e-07
5.32646e-07
-1.36869e-07
4.68326e-07
-1.61638e-07
4.00031e-07
-1.84652e-07
3.29439e-07
-2.05333e-07
2.57898e-07
-2.23184e-07
1.86506e-07
-2.3777e-07
1.16139e-07
-2.48723e-07
4.74752e-08
-2.55747e-07
-1.89744e-08
-2.58614e-07
-8.28316e-08
-2.57177e-07
-1.43802e-07
-2.51361e-07
-2.01622e-07
-2.41169e-07
-2.56021e-07
-2.26686e-07
-3.06696e-07
-2.08085e-07
-3.53292e-07
-1.85624e-07
-3.95407e-07
-1.59656e-07
-4.32593e-07
-1.3062e-07
-4.64383e-07
-9.9038e-08
-4.90311e-07
-6.55024e-08
-5.09949e-07
-3.06644e-08
-5.22937e-07
4.78603e-09
-5.29019e-07
4.01406e-08
-5.28068e-07
7.46938e-08
-5.20104e-07
1.07764e-07
-5.05291e-07
1.38715e-07
-4.83917e-07
1.66972e-07
-4.56363e-07
1.92033e-07
-4.23069e-07
2.13482e-07
-3.84506e-07
2.30994e-07
-3.41139e-07
2.44332e-07
-2.93402e-07
2.53348e-07
-2.41688e-07
2.5798e-07
-1.86335e-07
2.58245e-07
-1.27637e-07
2.54238e-07
-6.58596e-08
2.46129e-07
-1.26938e-09
2.34163e-07
6.58209e-08
2.18657e-07
1.35001e-07
1.99997e-07
2.0572e-07
1.78634e-07
2.77247e-07
1.55086e-07
3.48649e-07
1.29954e-07
4.18765e-07
1.03944e-07
4.86169e-07
7.78873e-08
5.49067e-07
5.26816e-08
6.05017e-07
2.89391e-08
6.50295e-07
6.48901e-09
6.79433e-07
-1.56033e-08
6.86877e-07
-3.84816e-08
6.70874e-07
-6.28391e-08
6.35072e-07
-8.85081e-08
5.85389e-07
-1.14707e-07
5.26656e-07
-1.40543e-07
4.62019e-07
-1.65233e-07
3.93622e-07
-1.88116e-07
3.23099e-07
-2.08627e-07
2.5177e-07
-2.26274e-07
1.80701e-07
-2.40632e-07
1.10742e-07
-2.51341e-07
4.25463e-08
-2.5811e-07
-2.34005e-08
-2.6072e-07
-8.67407e-08
-2.59028e-07
-1.47196e-07
-2.52966e-07
-2.04516e-07
-2.4254e-07
-2.58441e-07
-2.27838e-07
-3.08672e-07
-2.09035e-07
-3.54864e-07
-1.86391e-07
-3.96616e-07
-1.60258e-07
-4.33486e-07
-1.31074e-07
-4.65008e-07
-9.93576e-08
-4.9072e-07
-6.57005e-08
-5.10195e-07
-3.07492e-08
-5.23076e-07
-5.29107e-07
3.36063e-08
-5.57753e-07
6.24663e-08
-5.49121e-07
8.99757e-08
-5.33077e-07
1.15559e-07
-5.09952e-07
1.38703e-07
-4.80186e-07
1.58967e-07
-4.44292e-07
1.75994e-07
-4.0282e-07
1.89515e-07
-3.5632e-07
1.99348e-07
-3.05311e-07
2.05399e-07
-2.50267e-07
2.07657e-07
-1.91604e-07
2.0619e-07
-1.29687e-07
2.01141e-07
-6.4845e-08
1.92724e-07
2.59687e-09
1.81222e-07
7.22746e-08
1.66986e-07
1.43734e-07
1.50428e-07
2.16385e-07
1.32023e-07
2.89463e-07
1.1231e-07
3.61995e-07
9.19085e-08
4.32772e-07
7.1533e-08
5.00304e-07
5.20031e-08
5.6274e-07
3.41921e-08
6.17679e-07
1.87429e-08
6.61805e-07
5.4739e-09
6.90647e-07
-6.98091e-09
6.99667e-07
-2.05214e-08
6.87048e-07
-3.63407e-08
6.55222e-07
-5.44477e-08
6.08879e-07
-7.41276e-08
5.52326e-07
-9.45036e-08
4.88702e-07
-1.14771e-07
4.20298e-07
-1.34231e-07
3.48899e-07
-1.52277e-07
2.75945e-07
-1.6838e-07
2.02609e-07
-1.82074e-07
1.29833e-07
-1.92956e-07
5.83577e-08
-2.00687e-07
-1.1243e-08
-2.04996e-07
-7.85232e-08
-2.0568e-07
-1.43117e-07
-2.02612e-07
-2.0469e-07
-1.95741e-07
-2.62893e-07
-1.85096e-07
-3.17341e-07
-1.70792e-07
-3.67596e-07
-1.53033e-07
-4.13166e-07
-1.32111e-07
-4.53515e-07
-1.08407e-07
-4.88087e-07
-8.23836e-08
-5.16335e-07
-5.45751e-08
-5.37757e-07
-2.55732e-08
-5.51939e-07
3.99066e-09
-5.58583e-07
3.34666e-08
-5.57544e-07
6.22074e-08
-5.48845e-07
8.95904e-08
-5.32674e-07
1.15038e-07
-5.09365e-07
1.38033e-07
-4.79358e-07
1.58136e-07
-4.43172e-07
1.74988e-07