/*--------------------------------*- C++ -*----------------------------------*\
| =========                 |                                                 |
| \\      /  F ield         | OpenFOAM: The Open Source CFD Toolbox           |
|  \\    /   O peration     | Version:  2.3.0                                 |
|   \\  /    A nd           | Web:      www.OpenFOAM.org                      |
|    \\/     M anipulation  |                                                 |
\*---------------------------------------------------------------------------*/
FoamFile
{
    version     2.0;
    format      ascii;
    class       surfaceScalarField;
    location    "18000";
    object      phi;
}
// * * * * * * * * * * * * * * * * * * * * * * * * * * * * * * * * * * * * * //

dimensions      [0 3 -1 0 0 0 0];

internalField   nonuniform List<scalar> 
1464
(
0.308005
0.00240565
0.312997
-0.00499233
0.327097
-0.0141005
0.35019
-0.0230924
0.378288
-0.0280982
0.401256
-0.022968
0.401846
-0.000590385
0.357979
0.0438671
0.248832
0.109147
0.0699022
0.17893
-0.1377
0.207602
-0.294876
0.157176
-0.380253
0.0853771
-0.406432
0.0261789
-0.3959
-0.0105321
-0.3694
-0.0264999
-0.342054
-0.0273459
-0.321716
-0.020338
-0.31078
-0.0109362
-0.308528
-0.00225157
-0.312973
0.00444514
-0.32202
0.00904713
-0.33429
0.0122697
-0.349154
0.0148642
-0.36663
0.0174757
-0.387329
0.0206986
-0.412441
0.0251127
-0.443322
0.0308803
-0.479752
0.03643
-0.515212
0.03546
-0.52772
0.0125084
-0.487219
-0.0405008
-0.396142
-0.0910773
-0.271282
-0.12486
-0.123729
-0.147553
0.0282119
-0.151941
0.179474
-0.151262
0.321105
-0.141632
0.434463
-0.113357
0.509982
-0.0755189
0.527064
-0.0170823
0.502206
0.0248583
0.465107
0.037099
0.430734
0.0343727
0.402297
0.0284374
0.379086
0.0232105
0.359733
0.0193535
0.343272
0.0164611
0.329317
0.0139541
0.31807
0.0112473
0.00765992
0.547097
-0.00578798
0.562048
-0.0199431
0.584088
-0.0361409
0.611126
-0.0501301
0.63684
-0.0538124
0.64869
-0.0348177
0.626603
0.0214966
0.543035
0.127435
0.370582
0.2816
0.102698
0.446814
-0.203032
0.513332
-0.441291
0.395434
-0.581291
0.225378
-0.64066
0.0855476
-0.648238
-0.00295454
-0.629621
-0.0451161
-0.602273
-0.0546941
-0.576384
-0.0462271
-0.556597
-0.0307233
-0.543989
-0.0148595
-0.537717
-0.00182701
-0.53604
0.0073702
-0.536831
0.0130608
-0.537989
0.0160217
-0.537433
0.0169199
-0.532915
0.0161812
-0.521831
0.0140284
-0.501058
0.0101077
-0.467012
0.00238359
-0.415952
-0.0155996
-0.345071
-0.058373
-0.260349
-0.125223
-0.178402
-0.173024
-0.10949
-0.193773
-0.0501342
-0.206908
0.0106903
-0.212766
0.0709783
-0.21155
0.132371
-0.203024
0.206982
-0.187969
0.292439
-0.160976
0.373871
-0.0985147
0.437464
-0.0387343
0.48181
-0.00724648
0.510431
0.00575148
0.527125
0.0117435
0.53535
0.0149852
0.538026
0.016677
0.537603
0.0168841
0.536232
0.0153259
0.535961
0.0115178
0.0047176
0.578321
-0.0203751
0.595907
-0.0375288
0.615614
-0.0558473
0.634637
-0.0691538
0.647181
-0.0663563
0.643143
-0.0307793
0.606675
0.0579641
0.516016
0.218094
0.347816
0.4498
0.0956272
0.699003
-0.189156
0.798115
-0.415326
0.621604
-0.555103
0.365155
-0.624568
0.155013
-0.647664
0.0201416
-0.644582
-0.0481982
-0.628917
-0.0703588
-0.609139
-0.0660051
-0.589891
-0.0499713
-0.573221
-0.0315295
-0.559531
-0.0155178
-0.548219
-0.0039413
-0.537822
0.0026638
-0.526233
0.00443264
-0.51079
0.00147671
-0.488306
-0.00630238
-0.455246
-0.0190322
-0.408574
-0.0365642
-0.347676
-0.0585138
-0.277993
-0.0852835
-0.215252
-0.121114
-0.170128
-0.170347
-0.129544
-0.213608
-0.0847454
-0.238571
-0.0386346
-0.253019
0.00814334
-0.259544
0.0547524
-0.258159
0.100616
-0.248888
0.144
-0.231353
0.183732
-0.200707
0.236656
-0.151439
0.304807
-0.106885
0.37254
-0.0749795
0.428217
-0.0499257
0.469382
-0.0294219
0.49792
-0.0135521
0.517227
-0.00262988
0.530747
0.00336344
0.541467
0.0046061
0.551838
0.00114686
-0.00717878
0.517259
-0.0335116
0.530044
-0.0503138
0.540964
-0.0667672
0.547296
-0.0754861
0.544608
-0.0636682
0.526061
-0.0122324
0.481664
0.102362
0.398455
0.301303
0.262518
0.585737
0.0712513
0.89027
-0.140511
1.00988
-0.31502
0.796113
-0.431985
0.482121
-0.500487
0.223514
-0.534855
0.0545095
-0.547146
-0.0359071
-0.546177
-0.0713274
-0.537883
-0.0742997
-0.526059
-0.0617952
-0.512983
-0.044605
-0.499834
-0.0286668
-0.486923
-0.0168523
-0.473785
-0.0104738
-0.459105
-0.0102476
-0.440729
-0.0168996
-0.415754
-0.0312767
-0.380868
-0.0539182
-0.333452
-0.0839809
-0.2739
-0.118065
-0.209301
-0.149883
-0.155916
-0.174499
-0.122028
-0.204234
-0.0934199
-0.242216
-0.0627115
-0.26928
-0.0290761
-0.286655
0.00608384
-0.294704
0.0408638
-0.292939
0.0734776
-0.281502
0.102891
-0.260767
0.131824
-0.229639
0.17358
-0.193195
0.233444
-0.166749
0.297616
-0.139151
0.352911
-0.105221
0.39533
-0.0718415
0.426004
-0.0442261
0.448018
-0.0246436
0.4646
-0.0132183
0.478386
-0.00917983
0.491227
-0.0116941
-0.0200743
0.409247
-0.0402699
0.413216
-0.0542824
0.412846
-0.0663973
0.40606
-0.0687
0.390119
-0.0477273
0.361429
0.016458
0.315696
0.148094
0.248334
0.368665
0.155824
0.678247
0.0411512
1.00494
-0.0802479
1.13128
-0.189057
0.904922
-0.27332
0.566384
-0.333152
0.283346
-0.372843
0.0942009
-0.396929
-0.0118206
-0.409498
-0.0587591
-0.413866
-0.0699319
-0.412555
-0.063106
-0.407471
-0.0496884
-0.399998
-0.0361407
-0.390993
-0.0258566
-0.380733
-0.0207338
-0.368766
-0.0222149
-0.353797
-0.0318687
-0.333668
-0.0514056
-0.305628
-0.0819582
-0.26723
-0.122379
-0.21831
-0.166986
-0.163659
-0.204534
-0.115528
-0.222629
-0.0850251
-0.234737
-0.0633168
-0.263924
-0.0422901
-0.290306
-0.0196725
-0.309272
0.00404232
-0.318418
0.0274748
-0.316371
0.049462
-0.303489
0.0702604
-0.281565
0.0934877
-0.252867
0.130708
-0.230415
0.183593
-0.219634
0.237218
-0.192777
0.282489
-0.150492
0.316817
-0.10617
0.341551
-0.0689594
0.359423
-0.0425162
0.373031
-0.0268259
0.384225
-0.0203736
0.393984
-0.0214533
-0.0285796
0.266858
-0.0390762
0.261514
-0.0489378
0.25092
-0.0558034
0.233982
-0.0517624
0.209703
-0.0234487
0.177461
0.0487004
0.13766
0.187895
0.0925667
0.413758
0.0477931
0.723021
0.0111938
1.04154
-0.0201883
1.16266
-0.060824
0.945558
-0.107228
0.612788
-0.151441
0.327559
-0.189158
0.131917
-0.218921
0.0179432
-0.240729
-0.036952
-0.255447
-0.0552131
-0.26416
-0.054393
-0.26799
-0.0458592
-0.268023
-0.0361071
-0.26523
-0.0286497
-0.26033
-0.0256339
-0.253594
-0.0289508
-0.24463
-0.0408326
-0.232233
-0.0638031
-0.214457
-0.0997338
-0.189172
-0.147663
-0.155459
-0.200699
-0.115523
-0.244471
-0.0764418
-0.26171
-0.051483
-0.259696
-0.037018
-0.278389
-0.0245951
-0.302729
-0.0115208
-0.322346
0.00229388
-0.332233
0.0159079
-0.329985
0.0286092
-0.31619
0.0415322
-0.294488
0.0593423
-0.270677
0.0898797
-0.260953
0.130303
-0.260057
0.168238
-0.230712
0.198804
-0.181058
0.221105
-0.128471
0.23668
-0.0845343
0.247669
-0.0535055
0.255766
-0.0349221
0.261869
-0.0264772
0.266114
-0.0256982
-0.0305172
0.100883
-0.0308632
0.0882856
-0.0363404
0.0708454
-0.0383632
0.0484332
-0.0293502
0.0215407
0.00344382
-0.00791635
0.0781575
-0.0358431
0.215822
-0.054349
0.432264
-0.0508946
0.719567
-0.015584
1.00623
0.0333696
1.1137
0.0572382
0.921689
0.050941
0.619085
0.0274945
0.351005
-0.00199298
0.161405
-0.0311368
0.047087
-0.0567468
-0.0113419
-0.0775598
-0.0344002
-0.093377
-0.0385758
-0.104472
-0.0347645
-0.111395
-0.029184
-0.114899
-0.0251453
-0.115829
-0.0247046
-0.114901
-0.029878
-0.112434
-0.0433
-0.108118
-0.0681188
-0.100986
-0.106866
-0.0897025
-0.158947
-0.0733966
-0.217005
-0.052762
-0.265105
-0.0310774
-0.283395
-0.0185765
-0.272197
-0.0131718
-0.283794
-0.00903863
-0.306862
-0.00440001
-0.326985
0.000807733
-0.337441
0.00585688
-0.335034
0.0101838
-0.320517
0.0146294
-0.298934
0.0231593
-0.279206
0.0396309
-0.277424
0.0605904
-0.281016
0.0792024
-0.249324
0.0934083
-0.195264
0.103027
-0.13809
0.109093
-0.0905998
0.112789
-0.0572015
0.114824
-0.0369576
0.115261
-0.0269137
0.113613
-0.0240506
-0.0260001
-0.0720473
-0.0182165
-0.0887066
-0.0196811
-0.10933
-0.0177394
-0.133243
-0.00543717
-0.158529
0.0287291
-0.181022
0.100651
-0.193204
0.228003
-0.182759
0.421819
-0.133634
0.670441
-0.0375922
0.91019
0.0768307
0.999282
0.15719
0.84133
0.190809
0.585466
0.191378
0.350436
0.174221
0.178562
0.149961
0.0713473
0.124699
0.0139194
0.101681
-0.0113822
0.0822883
-0.0191827
0.0669296
-0.0194059
0.0554968
-0.0177511
0.0474933
-0.0171418
0.0421042
-0.0193155
0.0383838
-0.0261576
0.0355379
-0.0404541
0.0330955
-0.0656764
0.0308735
-0.104644
0.0288013
-0.156875
0.0266501
-0.214854
0.0241802
-0.262635
0.0213186
-0.280533
0.0159285
-0.266807
0.00996364
-0.277829
0.00554435
-0.302443
0.00222408
-0.323665
-0.000559837
-0.334657
-0.00348482
-0.332109
-0.00719987
-0.316802
-0.0122157
-0.293918
-0.018728
-0.272694
-0.0234073
-0.272745
-0.0265465
-0.277877
-0.0290901
-0.24678
-0.031099
-0.193255
-0.0330066
-0.136183
-0.0350554
-0.088551
-0.0373848
-0.0548722
-0.0402829
-0.0340595
-0.044334
-0.0228625
-0.0504001
-0.0179845
-0.0169995
-0.233388
-0.00411525
-0.25124
-0.00182845
-0.272408
0.00342779
-0.295353
0.0175087
-0.316598
0.0499741
-0.329737
0.11379
-0.324235
0.222501
-0.285211
0.382796
-0.19659
0.58182
-0.054133
0.767733
0.108535
0.836614
0.233921
0.715944
0.303879
0.515508
0.329344
0.324972
0.326816
0.181089
0.309835
0.0883281
0.287356
0.0363986
0.264653
0.0113206
0.244416
0.0010543
0.227732
-0.00272133
0.21478
-0.00479932
0.205148
-0.00751047
0.197929
-0.0120955
0.191899
-0.0201277
0.185829
-0.0343844
0.178527
-0.0583746
0.168605
-0.0947211
0.154354
-0.142624
0.133972
-0.194472
0.107086
-0.235749
0.0765689
-0.250016
0.0510556
-0.241293
0.0335574
-0.260331
0.0205048
-0.289391
0.00903508
-0.312195
-0.00203201
-0.32359
-0.0131952
-0.320946
-0.025071
-0.304926
-0.0396849
-0.279304
-0.0629318
-0.249447
-0.0916576
-0.244019
-0.120739
-0.248796
-0.144745
-0.222774
-0.162165
-0.175835
-0.174187
-0.12416
-0.182625
-0.080113
-0.189065
-0.0484326
-0.194778
-0.0283468
-0.200919
-0.0167212
-0.208711
-0.0101927
-0.00642411
-0.365379
0.00913998
-0.382282
0.0150745
-0.401995
0.0231409
-0.422131
0.0376447
-0.437839
0.0656814
-0.440759
0.116711
-0.418384
0.200126
-0.35516
0.319571
-0.237218
0.463878
-0.0647817
0.595297
0.127659
0.644174
0.283717
0.559885
0.382173
0.417052
0.42975
0.277396
0.441851
0.168988
0.433335
0.0968436
0.415301
0.0544327
0.394817
0.0318052
0.375784
0.0200873
0.35998
0.0130827
0.347871
0.00730963
0.339063
0.00129702
0.332403
-0.00543516
0.326186
-0.013911
0.31862
-0.0268183
0.307794
-0.0475483
0.291285
-0.078213
0.266232
-0.11757
0.229784
-0.158025
0.181364
-0.187329
0.12701
-0.195661
0.0845157
-0.198799
0.0586907
-0.234506
0.0373136
-0.268014
0.016749
-0.291631
-0.00388353
-0.302957
-0.0245284
-0.300301
-0.0452956
-0.284159
-0.0685204
-0.25608
-0.100859
-0.217108
-0.148821
-0.196058
-0.202305
-0.195311
-0.246395
-0.178685
-0.278091
-0.144138
-0.299407
-0.102844
-0.313289
-0.066231
-0.322495
-0.0392268
-0.329227
-0.0216148
-0.335273
-0.0106752
-0.342388
-0.00307787
0.00331237
-0.449549
0.0201447
-0.463662
0.0291874
-0.479817
0.0392955
-0.495207
0.0530349
-0.504286
0.0747601
-0.497829
0.110254
-0.462841
0.165138
-0.384567
0.241297
-0.252017
0.331328
-0.0687483
0.412028
0.132982
0.442444
0.301869
0.390998
0.416052
0.302869
0.478443
0.215005
0.502286
0.145145
0.502229
0.0969006
0.490134
0.0665282
0.473943
0.0479961
0.458181
0.0358494
0.444972
0.026291
0.434977
0.0173045
0.427901
0.0083737
0.42247
-4.90994e-06
0.416535
-0.0079751
0.407816
-0.0180995
0.393824
-0.0335569
0.371452
-0.0558409
0.337516
-0.0836346
0.289232
-0.10974
0.226539
-0.124636
0.16349
-0.132613
0.119722
-0.155032
0.0878501
-0.202634
0.0574806
-0.237644
0.0260388
-0.260189
-0.00615363
-0.270765
-0.0382059
-0.268249
-0.0693616
-0.253003
-0.099921
-0.22552
-0.131974
-0.185055
-0.182967
-0.145066
-0.250636
-0.127642
-0.309115
-0.120206
-0.352031
-0.101222
-0.381444
-0.0734315
-0.400353
-0.0473218
-0.412063
-0.0275166
-0.419483
-0.0141951
-0.424932
-0.00522612
-0.430648
0.00263825
0.0112086
-0.466598
0.0279151
-0.475723
0.0383126
-0.485366
0.0489382
-0.493172
0.0608409
-0.494272
0.0758598
-0.480441
0.0964238
-0.440185
0.124882
-0.360881
0.161993
-0.23404
0.204487
-0.0641702
0.242158
0.121566
0.256708
0.27991
0.232654
0.391348
0.191431
0.456775
0.149577
0.486976
0.114945
0.494725
0.0891515
0.490617
0.0706364
0.481746
0.0568664
0.472055
0.0455412
0.46329
0.0350559
0.455967
0.0246271
0.449944
0.0143966
0.444329
0.00561021
0.437369
-0.00101545
0.426895
-0.007625
0.41006
-0.0167217
0.383391
-0.029172
0.344625
-0.0448688
0.294813
-0.0599279
0.239488
-0.0693115
0.192537
-0.0856617
0.159492
-0.121986
0.122103
-0.165245
0.0807851
-0.196326
0.0367263
-0.21613
-0.00866694
-0.225372
-0.0537459
-0.22317
-0.0969152
-0.209834
-0.136486
-0.18595
-0.171372
-0.150169
-0.209724
-0.106714
-0.260846
-0.0765194
-0.314714
-0.0663383
-0.360604
-0.0553317
-0.394814
-0.0392213
-0.417541
-0.0245952
-0.431711
-0.0133465
-0.440661
-0.00524448
-0.44691
0.00102282
-0.452466
0.008194
0.0175703
-0.410468
0.0305431
-0.411118
0.0389625
-0.409593
0.0474139
-0.404887
0.0561347
-0.394395
0.0653674
-0.373276
0.0753054
-0.334397
0.0860021
-0.269612
0.0972085
-0.173224
0.108098
-0.0479355
0.11687
0.0886158
0.120157
0.20649
0.11478
0.292944
0.104977
0.348732
0.0937884
0.381023
0.082654
0.398002
0.0721729
0.406176
0.0624624
0.409635
0.053407
0.410387
0.0447887
0.409084
0.0363593
0.405814
0.0278969
0.4008
0.0194108
0.394712
0.0116989
0.388175
0.00552134
0.380526
2.32831e-05
0.369504
-0.00569933
0.352184
-0.0118516
0.326049
-0.0187338
0.293523
-0.0274025
0.263573
-0.0393615
0.23633
-0.0584183
0.202014
-0.0876705
0.156357
-0.119587
0.103799
-0.143769
0.0472571
-0.159588
-0.0111398
-0.166975
-0.069098
-0.165212
-0.124383
-0.154549
-0.174705
-0.135627
-0.216628
-0.108246
-0.247834
-0.0755077
-0.274147
-0.0502064
-0.305826
-0.0346594
-0.336994
-0.024164
-0.359875
-0.0163404
-0.374671
-0.00979893
-0.384208
-0.0038096
-0.391241
0.00178847
-0.397578
0.00736002
-0.403365
0.0139812
0.022045
-0.355493
0.0187656
-0.339376
0.0228449
-0.318949
0.0269871
-0.294078
0.0312641
-0.264428
0.0357171
-0.229437
0.0403148
-0.188345
0.0449096
-0.140334
0.0491974
-0.0849524
0.0527168
-0.023041
0.0549584
0.0415445
0.0555712
0.101861
0.0544636
0.155044
0.0517936
0.200855
0.0479779
0.239967
0.043541
0.27323
0.0389098
0.301354
0.0343393
0.324825
0.0299354
0.343912
0.0257016
0.358691
0.0215809
0.369082
0.017505
0.374966
0.0135271
0.376665
0.00999987
0.375102
0.00708455
0.370809
0.00431658
0.363628
0.00148116
0.35321
-0.00143392
0.339207
-0.00473004
0.321286
-0.00948134
0.299391
-0.0174664
0.271763
-0.0307909
0.233161
-0.0490687
0.18186
-0.0682863
0.121524
-0.0834327
0.0555344
-0.0935982
-0.0130653
-0.0983749
-0.081044
-0.0972332
-0.145245
-0.0903488
-0.202598
-0.0782737
-0.249483
-0.0613615
-0.28329
-0.0417001
-0.308215
-0.0252817
-0.328698
-0.0141767
-0.345255
-0.00760626
-0.358013
-0.00358307
-0.367314
-0.000497552
-0.373504
0.00238068
-0.376912
0.00519609
-0.37752
0.00796832
-0.374573
0.0110339
0.0147428
-0.343271
-0.325926
-0.30418
-0.277839
-0.24666
-0.210422
-0.169047
-0.122773
-0.072361
-0.0192054
0.0347262
0.0872629
0.136563
0.181416
0.221236
0.255908
0.285573
0.310471
0.330837
0.346842
0.358598
0.366277
0.370375
0.371546
0.370074
0.366092
0.359793
0.351199
0.339547
0.32262
0.296275
0.256312
0.201764
0.135806
0.0623299
-0.0146472
-0.0907864
-0.161862
-0.223946
-0.273213
-0.30761
-0.329961
-0.344688
-0.355162
-0.363006
-0.368604
-0.371817
-0.372467
-0.370417
-0.365265
)
;

boundaryField
{
    top
    {
        type            calculated;
        value           nonuniform List<scalar> 
51
(
0.00569568
0.00550023
0.00524133
0.00492272
0.00453821
0.00407727
0.00353432
0.00292374
0.00230444
0.00180277
0.00163951
0.00192688
0.00249373
0.00312482
0.00372051
0.00423858
0.00467438
0.00503684
0.00533611
0.00557576
0.00574871
0.00584802
0.00590226
0.00591317
0.00578867
0.00546343
0.00486483
0.00386404
0.00217057
-0.000539495
-0.00444545
-0.00910558
-0.0137392
-0.0174743
-0.020122
-0.0213978
-0.021094
-0.0192735
-0.0161895
-0.0120942
-0.00730342
-0.00293024
0.000550322
0.00286717
0.0042613
0.00510068
0.00559363
0.00584585
0.0059177
0.00588226
0.00581841
)
;
    }
    bottom
    {
        type            calculated;
        value           uniform 0;
    }
    frontAndBack
    {
        type            empty;
        value           nonuniform 0();
    }
    left_cyc
    {
        type            cyclic;
        value           nonuniform List<scalar> 
15
(
-0.31041
-0.538904
-0.563734
-0.504122
-0.402489
-0.268052
-0.109096
0.0594006
0.219286
0.352124
0.438545
0.458828
0.40784
0.367271
0.35634
)
;
    }
    right_cyc
    {
        type            cyclic;
        value           nonuniform List<scalar> 
15
(
0.31041
0.538904
0.563734
0.504122
0.402489
0.268052
0.109096
-0.0594006
-0.219286
-0.352124
-0.438545
-0.458828
-0.40784
-0.367271
-0.35634
)
;
    }
}


// ************************************************************************* //
