/*--------------------------------*- C++ -*----------------------------------*\
| =========                 |                                                 |
| \\      /  F ield         | OpenFOAM: The Open Source CFD Toolbox           |
|  \\    /   O peration     | Version:  2.3.0                                 |
|   \\  /    A nd           | Web:      www.OpenFOAM.org                      |
|    \\/     M anipulation  |                                                 |
\*---------------------------------------------------------------------------*/
FoamFile
{
    version     2.0;
    format      ascii;
    class       volScalarField;
    location    "18000";
    object      T;
}
// * * * * * * * * * * * * * * * * * * * * * * * * * * * * * * * * * * * * * //

dimensions      [0 0 0 1 0 0 0];

internalField   nonuniform List<scalar> 
765
(
31.4903
31.6144
31.8318
32.1308
32.5018
32.9352
33.4104
33.846
34.2705
34.679
35.0447
35.3211
35.4457
35.3646
35.117
34.7673
34.3659
33.9443
33.5107
33.0407
32.5956
32.2094
31.8928
31.6552
31.5076
31.4642
31.5367
31.7093
31.9686
32.304
32.7065
33.1623
33.6217
34.0532
34.472
34.8642
35.1933
35.4045
35.4328
35.263
34.9584
34.578
34.1633
33.7345
33.2867
32.8205
32.4021
32.0486
31.7691
31.5738
31.4752
23.1579
23.4527
23.9666
24.6714
25.5461
26.5737
27.7317
28.9717
30.2049
31.3793
32.415
33.1984
33.5619
33.3235
32.6185
31.6305
30.4809
29.2611
28.0285
26.8303
25.7672
24.8552
24.1091
23.5478
23.1975
23.0939
23.2669
23.6757
24.2876
25.0784
26.0301
27.1266
28.3436
29.5792
30.787
31.9058
32.8343
33.4397
33.5233
33.0324
32.172
31.0912
29.8977
28.6606
27.43
26.3017
25.3111
24.4776
23.8185
23.3564
23.1218
17.2524
17.6496
18.3386
19.2768
20.4351
21.7964
23.3503
25.0792
26.903
28.7024
30.2999
31.4989
32.0535
31.689
30.6112
29.0876
27.3174
25.4876
23.7294
22.132
20.7252
19.5191
18.5276
17.7765
17.3048
17.1652
17.3985
17.9482
18.7657
19.815
21.074
22.5311
24.1769
25.9603
27.7883
29.5138
30.9424
31.8664
31.9945
31.2457
29.9256
28.2581
26.4393
24.6322
22.9424
21.4356
20.1245
19.0197
18.1407
17.5202
17.2038
13.533
14.0019
14.8085
15.8905
17.2047
18.7325
20.4782
22.4577
24.6084
26.7762
28.7347
30.2059
30.873
30.436
29.1172
27.2431
25.1
22.9287
20.8993
19.1048
17.5298
16.1666
15.028
14.1514
13.5953
13.4308
13.7063
14.3533
15.3037
16.5036
17.9223
19.5534
21.4076
23.4854
25.6674
27.7654
29.525
30.6503
30.8034
29.8972
28.2731
26.237
24.0558
21.9377
20.0185
18.329
16.8547
15.5962
14.5783
13.8497
13.476
11.3369
11.88
12.8055
14.0208
15.4569
17.0833
18.9119
20.9873
23.2548
25.5595
27.6586
29.2337
29.9321
29.4772
28.0683
26.0569
23.7732
21.4788
19.3467
17.4735
15.8065
14.3272
13.0563
12.0547
11.411
11.2214
11.5402
12.2878
13.3681
14.698
16.2269
17.9463
19.8857
22.068
24.3772
26.6174
28.5063
29.7028
29.8611
28.9049
27.163
24.9846
22.6711
20.4425
18.4331
16.6583
15.0794
13.6944
12.5438
11.7045
11.2715
10.0282
10.6637
11.7384
13.1195
14.6995
16.4235
18.2976
20.3776
22.6189
24.8881
26.9509
28.4873
29.1536
28.7221
27.3518
25.3767
23.1293
20.8659
18.7418
16.8306
15.0779
13.4642
12.0298
10.8711
10.1181
9.89749
10.2698
11.1433
12.3866
13.8754
15.527
17.3181
19.2837
21.4497
23.7251
25.9288
27.7808
28.9387
29.0879
28.1691
26.4652
24.3231
22.0447
19.8378
17.8138
15.9805
14.291
12.7534
11.4371
10.4589
9.95245
9.1631
9.90915
11.1649
12.7506
14.5132
16.363
18.2848
20.3208
22.4494
24.5714
26.4807
27.8855
28.4827
28.0978
26.8493
25.0256
22.9296
20.7908
18.7326
16.7915
14.9294
13.1441
11.5064
10.1566
9.2722
9.01482
9.45081
10.4761
11.9186
13.6062
15.4151
17.2949
19.2644
21.347
23.4885
25.5384
27.2434
28.2934
28.4257
27.5975
26.0341
24.0464
21.9093
19.8014
17.7981
15.8965
14.0648
12.3353
10.8153
9.66927
9.07513
8.47912
9.34573
10.7972
12.607
14.5762
16.578
18.5656
20.5364
22.5086
24.4204
26.1098
27.3381
27.8576
27.5231
26.4336
24.8253
22.9463
20.98
19.0104
17.0331
15.0365
13.0549
11.1935
9.63668
8.60951
8.31134
8.81746
10.0073
11.6661
13.5744
15.5658
17.5586
19.529
21.4983
23.4524
25.2812
26.7799
27.6946
27.8095
27.0885
25.7182
23.9527
22.0158
20.0441
18.0743
16.0813
14.0818
12.1372
10.3953
9.06763
8.37748
7.83262
8.81947
10.4542
12.4695
14.6299
16.7708
18.806
20.7129
22.5315
24.2328
25.7022
26.7581
27.2048
26.917
25.9819
24.5885
22.9272
21.131
19.2477
17.2486
15.1319
12.9678
10.9011
9.15212
7.98546
7.64305
8.22302
9.57078
11.4293
13.5407
15.7029
17.7925
19.7543
21.613
23.3806
24.9872
26.2812
27.0658
27.1647
26.5456
25.3655
23.8228
22.0859
20.2478
18.3164
16.2504
14.0934
11.9499
10.004
8.50426
7.71572
7.12438
8.20051
9.96053
12.1128
14.4046
16.649
18.7264
20.5928
22.2938
23.822
25.1039
26.0109
26.3945
26.1473
25.3458
24.1366
22.6565
20.9935
19.1693
17.147
14.9376
12.646
10.442
8.56306
7.29536
6.91713
7.55536
9.01498
11.0073
13.2557
15.5396
17.7079
19.6699
21.4484
23.0671
24.4869
25.6046
26.2765
26.3615
25.8307
24.8145
23.4606
21.886
20.1481
18.2396
16.1102
13.8388
11.5601
9.47807
7.85877
6.99488
6.28661
7.3904
9.17734
11.3548
13.6753
15.949
18.038
19.8795
21.5044
22.9112
24.0545
24.8476
25.1823
24.9667
24.2681
23.1964
21.8453
20.2706
18.4828
16.4561
14.2185
11.8969
9.6669
7.76178
6.46548
6.07293
6.73297
8.22136
10.2394
12.5148
14.83
17.0236
18.98
20.7086
22.2265
23.5113
24.4961
25.0808
25.155
24.6926
23.8008
22.5848
21.122
19.4469
17.5531
15.4045
13.1024
10.796
8.68886
7.04157
6.15182
5.27537
6.31863
7.99459
10.0363
12.226
14.395
16.4113
18.2006
19.7609
21.0805
22.1259
22.8379
23.1372
22.9447
22.3197
21.3453
20.0861
18.5815
16.8472
14.8854
12.7442
10.5479
8.45473
6.66911
5.44698
5.07226
5.70037
7.10049
8.99136
11.1304
13.3267
15.4328
17.3312
19.004
20.4458
21.6351
22.5258
23.0477
23.1139
22.7009
21.8974
20.7786
19.3973
17.7809
15.9381
13.8715
11.6826
9.51124
7.53697
5.99016
5.14638
4.0613
4.93618
6.33227
8.03365
9.87393
11.729
13.503
15.1267
16.5557
17.7587
18.7011
19.336
19.6024
19.4313
18.8754
17.9999
16.8548
15.4772
13.8981
12.1569
10.3149
8.46279
6.71612
5.22948
4.20684
3.88996
4.4197
5.58894
7.16276
8.95076
10.8103
12.634
14.3359
15.8643
17.1835
18.262
19.0598
19.5235
19.5822
19.215
18.4968
17.4849
16.2226
14.7422
13.0761
11.2744
9.41342
7.59464
5.9512
4.66153
3.95198
2.62662
3.21995
4.15888
5.29926
6.53889
7.81212
9.08198
10.3086
11.416
12.3594
13.1011
13.6008
13.8106
13.676
13.2387
12.5498
11.6508
10.5794
9.37791
8.1127
6.83909
5.58776
4.41666
3.41816
2.7262
2.50966
2.87081
3.66003
4.71563
5.91502
7.17577
8.44757
9.70619
10.8784
11.9082
12.7561
13.3839
13.7485
13.7948
13.5056
12.9403
12.1441
11.1558
10.0131
8.76385
7.49361
6.22583
5.00425
3.9029
3.03422
2.55177
0.960802
1.17674
1.51241
1.91248
2.34217
2.78796
3.26288
3.76938
4.24549
4.66119
4.99314
5.21874
5.31386
5.25286
5.05526
4.74614
4.34828
3.88468
3.38316
2.89596
2.44632
2.01283
1.60357
1.24825
0.99738
0.917801
1.05017
1.33495
1.70856
2.12584
2.5624
3.01584
3.51717
4.01246
4.46123
4.83813
5.12057
5.28555
5.30647
5.17548
4.92064
4.56536
4.13204
3.6443
3.13425
2.67333
2.2331
1.80938
1.42146
1.10948
0.933249
)
;

boundaryField
{
    top
    {
        type            fixedValue;
        value           uniform 0;
    }
    bottom
    {
        type            fixedValue;
        value           uniform 36.5;
    }
    frontAndBack
    {
        type            empty;
    }
    left_cyc
    {
        type            cyclic;
    }
    right_cyc
    {
        type            cyclic;
    }
}


// ************************************************************************* //
