/*--------------------------------*- C++ -*----------------------------------*\
| =========                 |                                                 |
| \\      /  F ield         | OpenFOAM: The Open Source CFD Toolbox           |
|  \\    /   O peration     | Version:  2.3.0                                 |
|   \\  /    A nd           | Web:      www.OpenFOAM.org                      |
|    \\/     M anipulation  |                                                 |
\*---------------------------------------------------------------------------*/
FoamFile
{
    version     2.0;
    format      ascii;
    class       volScalarField;
    location    "18000";
    object      T;
}
// * * * * * * * * * * * * * * * * * * * * * * * * * * * * * * * * * * * * * //

dimensions      [0 0 0 1 0 0 0];

internalField   nonuniform List<scalar> 
3060
(
34.1965
34.2076
34.2279
34.2571
34.2946
34.3399
34.3928
34.4531
34.5205
34.5951
34.677
34.7664
34.8628
34.9642
35.0682
35.1747
35.2837
35.3942
35.5043
35.6115
35.7128
35.8045
35.8825
35.9424
35.98
35.9917
35.9758
35.9344
35.8713
35.7909
35.6973
35.5948
35.4868
35.3763
35.2658
35.157
35.0506
34.9467
34.8456
34.7501
34.6618
34.5811
34.5078
34.4417
34.383
34.3317
34.2881
34.2526
34.2256
34.2075
34.199
34.2004
34.2115
34.232
34.2614
34.2991
34.3448
34.3982
34.4589
34.5269
34.6022
34.6849
34.7752
34.8725
34.9745
35.079
35.1861
35.2955
35.4062
35.5163
35.6232
35.7236
35.814
35.8903
35.9479
35.9827
35.9912
35.9723
35.9283
35.863
35.7809
35.6862
35.583
35.4747
35.3643
35.2541
35.1458
35.0399
34.9366
34.8361
34.7415
34.6541
34.5741
34.5015
34.436
34.3778
34.3269
34.2836
34.2483
34.2215
34.2036
34.1951
29.722
29.753
29.8099
29.8915
29.9965
30.1239
30.273
30.4432
30.6345
30.8472
31.0816
31.3382
31.617
31.9173
32.2297
32.5494
32.8764
33.2077
33.5376
33.8588
34.1621
34.437
34.6717
34.8529
34.9671
35.0028
34.9542
34.8287
34.6381
34.3962
34.1158
33.8087
33.4853
33.1542
32.8228
32.4963
32.1772
31.8647
31.5673
31.2917
31.0386
30.8079
30.599
30.4117
30.2458
30.1014
29.9791
29.8796
29.804
29.7536
29.7297
29.7335
29.7647
29.822
29.9042
30.0099
30.1383
30.2886
30.4603
30.6533
30.868
31.1048
31.3639
31.6454
31.9483
32.2621
32.5834
32.9117
33.2438
33.5736
33.8936
34.1946
34.4658
34.6952
34.8695
34.9754
35.0015
34.9436
34.81
34.613
34.3662
34.0824
33.7733
33.449
33.1181
32.7876
32.4625
32.1452
31.8342
31.5395
31.2666
31.016
30.7875
30.5807
30.395
30.2305
30.0873
29.9658
29.867
29.792
29.742
29.7182
25.5532
25.6019
25.6912
25.8192
25.9842
26.1847
26.4196
26.6882
26.9903
27.3262
27.6963
28.1012
28.5408
29.0143
29.5188
30.04
30.5759
31.1201
31.6623
32.1898
32.6882
33.1407
33.5281
33.8287
34.0195
34.0796
33.998
33.7885
33.4727
33.0735
32.6122
32.1077
31.5763
31.0323
30.488
29.9533
29.4342
28.9322
28.463
28.0285
27.6292
27.2649
26.9351
26.6394
26.3777
26.1502
25.9577
25.8013
25.6828
25.6037
25.5661
25.5721
25.6211
25.711
25.84
26.0062
26.2083
26.4451
26.716
27.0209
27.3599
27.7336
28.1424
28.5861
29.0637
29.5715
30.0958
30.6341
31.1795
31.7216
32.2472
32.7418
33.1883
33.5672
33.8565
34.0334
34.0773
33.9801
33.7574
33.431
33.0239
32.5573
32.0495
31.5166
30.9727
30.43
29.8978
29.3817
28.8836
28.4186
27.9882
27.5928
27.232
26.9052
26.6122
26.3527
26.127
25.936
25.7808
25.6631
25.5846
25.5472
21.8384
21.9025
22.0199
22.1882
22.4052
22.6688
22.9777
23.3307
23.7275
24.1681
24.6529
25.1826
25.7573
26.3766
27.0383
27.7322
28.4531
29.1905
29.9285
30.648
31.3278
31.9454
32.4753
32.8881
33.1514
33.2347
33.1216
32.8329
32.3996
31.8538
31.2243
30.5361
29.8115
29.0714
28.3346
27.6163
26.9259
26.2695
25.6565
25.0885
24.566
24.0887
23.656
23.2677
22.9236
22.6245
22.3713
22.1657
22.0098
21.9058
21.8564
21.8642
21.9287
22.047
22.2165
22.4351
22.7009
23.0122
23.3683
23.7686
24.2133
24.7028
25.2375
25.8176
26.4422
27.109
27.8076
28.5322
29.2717
30.0096
30.7265
31.4011
32.0106
32.529
32.9264
33.1706
33.2316
33.0969
32.7899
32.3424
31.786
31.1492
30.4565
29.73
28.9903
28.256
27.5413
26.8549
26.2048
25.5974
25.0348
24.5173
24.0445
23.6157
23.2308
22.8896
22.5929
22.3417
22.1377
21.9829
21.8797
21.8306
18.6698
18.7469
18.8883
19.0909
19.3517
19.6683
20.0386
20.4612
20.9351
21.4603
22.0371
22.6664
23.3487
24.084
24.8703
25.7037
26.5761
27.4741
28.3786
29.2653
30.1058
30.8699
31.5257
32.0375
32.3649
32.4689
32.3279
31.969
31.4321
30.7567
29.978
29.1274
28.2351
27.329
26.4327
25.5647
24.7373
23.9576
23.2299
22.5557
21.9349
21.3669
20.851
20.3869
19.975
19.6161
19.312
19.0648
18.8771
18.7519
18.6923
18.7018
18.7794
18.9219
19.1259
19.3888
19.7079
20.0812
20.5073
20.9854
21.5153
22.0976
22.7327
23.4214
24.1633
24.9562
25.7956
26.6728
27.5738
28.4787
29.3626
30.1968
30.9507
31.5924
32.0852
32.3889
32.4649
32.297
31.9156
31.3611
30.6726
29.8848
29.0288
28.1346
27.2297
26.337
25.4741
24.653
23.8799
23.1588
22.4908
21.8758
21.313
20.8017
20.3416
19.9332
19.5772
19.2755
19.0301
18.8438
18.7195
18.6603
16.0743
16.1627
16.3248
16.5566
16.8545
17.2153
17.6359
18.1143
18.6491
19.2399
19.8871
20.5917
21.3549
22.1776
23.0587
23.9984
24.9873
26.0101
27.0456
28.0661
29.0382
29.9243
30.6849
31.2779
31.6573
31.7779
31.6145
31.1988
30.5766
29.7932
28.8904
27.9075
26.8814
25.845
24.8251
23.8419
22.9099
22.037
21.2231
20.4689
19.7736
19.136
18.5553
18.0312
17.5644
17.1566
16.8099
16.5273
16.3124
16.1689
16.1005
16.1114
16.2005
16.3637
16.5972
16.8974
17.2609
17.685
18.1673
18.7068
19.3029
19.956
20.6672
21.4376
22.2677
23.1565
24.1034
25.0981
26.1248
27.1612
28.1789
29.144
30.0184
30.7624
31.3333
31.6852
31.7733
31.5786
31.1368
30.4941
29.6955
28.7822
27.7934
26.7658
25.7312
24.7158
23.7392
22.8152
21.9491
21.1424
20.3951
19.7062
19.0744
18.4987
17.9791
17.5162
17.1115
16.7675
16.4871
16.2738
16.1313
16.0634
14.0222
14.121
14.3017
14.5598
14.8904
15.2892
15.7521
16.276
16.8589
17.4998
18.1992
18.9582
19.779
20.6634
21.6123
22.6279
23.7001
24.813
25.9437
27.0625
28.1326
29.1112
29.9518
30.6057
31.0228
31.155
30.9759
30.5187
29.8323
28.9665
27.97
26.8887
25.7646
24.6336
23.5245
22.459
21.4519
20.5129
19.6382
18.827
18.0775
17.388
16.7573
16.1855
15.6737
15.2244
14.8407
14.527
14.2876
14.1274
14.0511
14.0633
14.1627
14.3448
14.6047
14.9378
15.3396
15.8061
16.3343
16.9222
17.5687
18.2744
19.0405
19.8689
20.7616
21.7189
22.7426
23.8214
24.9387
26.0708
27.187
28.2496
29.2154
30.0375
30.6669
31.0535
31.15
30.9364
30.4503
29.7409
28.8582
27.8503
26.763
25.6376
24.509
23.4051
22.3468
21.3482
20.4172
19.5503
18.7466
18.0039
17.3205
16.6953
16.1282
15.6205
15.1747
14.7939
14.4825
14.2449
14.0859
14.0101
12.445
12.554
12.7531
13.0367
13.3986
13.8328
14.3339
14.8974
15.5201
16.2005
16.9386
17.736
18.5956
19.5207
20.5141
21.5788
22.7046
23.8754
25.0681
26.2513
27.3859
28.4257
29.3193
30.013
30.4533
30.592
30.404
29.921
29.1925
28.2721
27.2136
26.0677
24.8795
23.6871
22.5206
21.4021
20.3467
19.3639
18.4487
17.5987
16.8105
16.0819
15.4115
14.7998
14.2485
13.7614
13.3431
12.9994
12.7362
12.5596
12.4755
12.4889
12.5985
12.7991
13.0847
13.4492
13.8866
14.3915
14.9594
15.5872
16.2733
17.018
17.8227
18.6903
19.6241
20.6266
21.6998
22.8327
24.0085
25.2029
26.3836
27.5106
28.5368
29.4106
30.0779
30.4856
30.5867
30.3623
29.8484
29.0952
28.1567
27.0863
25.9342
24.7448
23.5551
22.3943
21.2835
20.2368
19.2629
18.3562
17.5139
16.7328
16.0105
15.3457
14.7388
14.1919
13.7084
13.2932
12.9519
12.6906
12.5153
12.4317
11.2554
11.3752
11.594
11.9046
12.2992
12.7697
13.3088
13.9101
14.569
15.283
16.0516
16.8766
17.7615
18.7111
19.7302
20.8213
21.9751
23.1759
24.4006
25.6174
26.7856
27.8569
28.7771
29.4895
29.9392
30.0798
29.889
29.3952
28.6467
27.6989
26.6084
25.4287
24.2072
22.983
21.7869
20.6407
19.559
18.5505
17.6106
16.7345
15.918
15.158
14.4532
13.8045
13.2152
12.6902
12.2363
11.8611
11.5726
11.3786
11.2861
11.3008
11.4214
11.6417
11.9544
12.3517
12.8255
13.3685
13.9743
14.6384
15.3582
16.1334
16.9658
17.8589
18.8173
19.8458
20.9457
22.1069
23.3129
24.5395
25.7539
26.9143
27.9715
28.871
29.556
29.9721
30.0745
29.8465
29.3206
28.5464
27.5797
26.477
25.2911
24.0684
22.8471
21.6569
20.5186
19.4458
18.4466
17.5153
16.6472
15.8378
15.0841
14.385
13.7413
13.1563
12.6351
12.1844
11.8118
11.5253
11.3326
11.2407
10.3636
10.4956
10.7364
11.0772
11.508
12.0183
12.5982
13.2393
13.9349
14.681
15.4765
16.323
17.2246
18.1871
19.2174
20.3168
21.4773
22.6844
23.9156
25.1389
26.3135
27.3899
28.3128
29.0249
29.472
29.6109
29.4223
28.9309
28.1822
27.2312
26.1355
24.9494
23.7213
22.4908
21.2883
20.1351
19.0447
18.0243
17.0705
16.1766
15.3372
14.5489
13.8106
13.1244
12.4947
11.9289
11.4358
11.0257
10.709
10.4954
10.3935
10.4097
10.5425
10.7849
11.1279
11.5614
12.0752
12.6591
13.3047
14.0054
14.7573
15.5593
16.4131
17.3227
18.2941
19.3338
20.442
21.61
22.8223
24.0554
25.2764
26.443
27.5051
28.4069
29.0912
29.5046
29.6056
29.3801
28.8564
28.0816
27.1115
26.0032
24.8108
23.5815
22.354
21.1574
20.0121
18.9306
17.9196
16.9743
16.0883
15.256
14.4739
13.7413
13.06
12.4348
11.8727
11.383
10.9755
10.6609
10.4487
10.3474
9.68853
9.83437
10.1002
10.4753
10.9471
11.5023
12.1282
12.8132
13.5487
14.3287
15.1511
16.0169
16.9305
17.8987
18.9293
20.0232
21.1737
22.3679
23.5843
24.7917
25.9495
27.0086
27.9144
28.6105
29.0452
29.1794
28.997
28.5187
27.7863
26.8526
25.774
24.6046
23.3924
22.1764
20.9864
19.8424
18.7565
17.7344
16.7734
15.8657
15.0052
14.1882
13.4144
12.687
12.0126
11.4008
10.8635
10.4138
10.065
9.82928
9.71672
9.73458
9.88128
10.1487
10.5261
11.0008
11.5595
12.1893
12.8789
13.6194
14.4051
15.2337
16.1066
17.0281
18.0048
19.0446
20.147
21.3048
22.5041
23.7223
24.9271
26.0769
27.1218
28.0065
28.675
29.0767
29.1743
28.9561
28.446
27.6878
26.7349
25.6437
24.4679
23.2543
22.0412
20.8569
19.7206
18.6434
17.6303
16.6777
15.7777
14.924
14.1131
13.3448
12.6223
11.9523
11.3444
10.8105
10.3636
10.0169
9.7826
9.67075
9.16309
9.32441
9.61829
10.0319
10.55
11.1558
11.8333
12.5679
13.348
14.1657
15.0172
15.903
16.8271
17.7968
18.8205
19.8987
21.0267
22.1931
23.3779
24.5512
25.6736
26.6977
27.5705
28.2385
28.6535
28.7809
28.6075
28.1504
27.4471
26.5468
25.5035
24.3693
23.1908
22.0058
20.8427
19.72
18.6482
17.631
16.6665
15.7461
14.8635
14.0152
13.2018
12.4283
11.7036
11.0401
10.453
9.95877
9.57388
9.31324
9.18881
9.20853
9.37074
9.66629
10.0823
10.6033
11.2127
11.8942
12.6332
13.4183
14.2414
15.099
15.9914
16.923
17.9009
18.9331
20.0194
21.1543
22.3255
23.5118
24.6823
25.7968
26.8067
27.6589
28.3001
28.6834
28.7761
28.5686
28.081
27.3525
26.4333
25.3775
24.2368
23.0568
21.8744
20.7167
19.6012
18.5376
17.5289
16.5724
15.6593
14.7831
13.9407
13.1326
12.3639
11.6435
10.984
10.4003
9.9089
9.52625
9.26714
9.14344
8.73489
8.91315
9.23783
9.69387
10.2628
10.9245
11.6592
12.4488
13.2788
14.1387
15.023
15.9309
16.8662
17.836
18.848
19.9037
21.0004
22.1282
23.2687
24.3941
25.467
26.4425
27.2707
27.9018
28.2921
28.4113
28.2487
27.8185
27.1535
26.2986
25.3041
24.2193
23.0882
21.9465
20.8207
19.7278
18.6763
17.6681
16.7013
15.7674
14.86
13.9765
13.1189
12.294
11.5134
10.7928
10.1507
9.60745
9.18294
8.89501
8.75759
8.77933
8.95852
9.28493
9.74343
10.3154
10.9807
11.7193
12.5134
13.3481
14.2132
15.1032
16.0174
16.9596
17.937
18.9568
20.0199
21.1228
22.2549
23.3967
24.5191
25.584
26.5457
27.3541
27.9596
28.32
28.4068
28.2123
27.7532
27.0641
26.191
25.1843
24.0929
22.9601
21.8205
20.6996
19.6133
18.5693
17.5689
16.6095
15.6823
14.7811
13.9031
13.0506
12.2303
11.454
10.7373
10.0987
9.55838
9.1362
8.84986
8.71323
8.36509
8.56137
8.91888
9.4202
10.0436
10.7652
11.5613
12.4105
13.295
14.2016
15.1226
16.0557
17.0038
17.9736
18.9717
20.0011
21.0609
22.1431
23.2307
24.2982
25.3113
26.2286
27.0043
27.5926
27.955
28.0654
27.9146
27.5148
26.8942
26.0929
25.157
24.1318
23.0578
21.9679
20.8861
19.8282
18.8006
17.8035
16.8339
15.8843
14.9489
14.0263
13.1199
12.239
11.3981
10.6159
9.91504
9.31939
8.85261
8.53559
8.38437
8.40826
8.60551
8.96482
9.46867
10.0952
10.8204
11.6205
12.474
13.3631
14.2746
15.2009
16.1398
17.0942
18.0708
19.0758
20.1118
21.1772
22.263
23.3512
24.4156
25.4208
26.3248
27.0817
27.6461
27.9808
28.0613
27.8811
27.4543
26.811
25.9924
25.0448
24.013
22.9369
21.8486
20.7711
19.7189
18.698
17.7077
16.7449
15.8015
14.8717
13.9542
13.0527
12.1763
11.3396
10.5614
9.86402
9.27141
8.80703
8.49168
8.34128
8.02578
8.24072
8.63221
9.18032
9.85998
10.6436
11.5038
12.4153
13.3573
14.314
15.2752
16.2367
17.1999
18.1706
19.1543
20.1559
21.1762
22.2096
23.2386
24.2415
25.1878
26.0403
26.7582
27.3013
27.6354
27.7371
27.598
27.2291
26.6559
25.9136
25.043
24.0843
23.074
22.0412
21.0064
19.9858
18.9835
17.9979
17.024
16.0562
15.0898
14.1244
13.1659
12.2261
11.3221
10.4761
9.71431
9.06449
8.55399
8.20688
8.04138
8.06749
8.28343
8.67678
9.22751
9.91037
10.6977
11.5618
12.4776
13.424
14.3854
15.3513
16.3179
17.2867
18.2633
19.2531
20.2604
21.2856
22.3216
23.3507
24.3502
25.2888
26.1287
26.8292
27.3503
27.659
27.7333
27.5673
27.1738
26.5796
25.8212
24.9393
23.9741
22.9614
21.9293
20.8981
19.8826
18.886
17.9064
16.9384
15.976
15.0146
14.054
13.1
12.1646
11.2647
10.4227
9.66447
9.01778
8.50977
8.1644
7.99975
7.69734
7.9311
8.35667
8.95152
9.68726
10.5327
11.4568
12.431
13.4314
14.4402
15.4439
16.4361
17.4167
18.3898
19.3603
20.3343
21.3135
22.2935
23.2615
24.1979
25.0757
25.8624
26.5222
27.0201
27.326
27.419
27.2914
26.9534
26.4275
25.7447
24.9404
24.05
23.1053
22.1321
21.1486
20.1666
19.1892
18.2137
17.2341
16.2458
15.2459
14.2356
13.2233
12.2237
11.2565
10.3468
9.52435
8.82055
8.26634
7.889
7.70907
7.73743
7.97223
8.39973
8.99727
9.73628
10.5854
11.5134
12.4918
13.4965
14.5097
15.5177
16.5144
17.4998
18.4778
19.4534
20.432
21.415
22.3971
23.3647
24.2974
25.1679
25.9428
26.5866
27.0645
27.3473
27.4156
27.2636
26.9032
26.3582
25.6605
24.8456
23.9489
23.0015
22.0286
21.0478
20.0699
19.0972
18.1267
17.152
16.1684
15.1729
14.1667
13.1589
12.1636
11.2004
10.2947
9.47587
8.77527
8.22364
7.8481
7.66906
7.36599
7.61838
8.07709
8.71685
9.50609
10.4103
11.3953
12.4294
13.4859
14.544
15.5887
16.6119
17.6112
18.5883
19.548
20.4967
21.4374
22.367
23.2758
24.1471
24.9581
25.6805
26.2838
26.7378
27.0164
27.1011
26.9846
26.6764
26.1964
25.5714
24.8318
24.0081
23.1274
22.2118
21.2767
20.3307
19.3756
18.408
17.4212
16.4115
15.3781
14.3247
13.2614
12.2047
11.177
10.2068
9.32655
8.57118
7.97487
7.568
7.37368
7.40433
7.6578
8.1185
8.76102
9.55359
10.4616
11.4504
12.4886
13.5492
14.6113
15.66
16.6872
17.6904
18.6714
19.6351
20.5876
21.5311
22.462
23.3699
24.2376
25.0414
25.753
26.3417
26.7776
27.0356
27.098
26.9595
26.6313
26.1341
25.4954
24.746
23.9161
23.0326
22.1168
21.1834
20.2405
19.2892
18.3257
17.3427
16.337
15.3075
14.258
13.1987
12.146
11.1224
10.1561
9.27957
8.52747
7.93381
7.52881
7.33542
7.02118
7.29092
7.77979
8.45981
9.29657
10.2528
11.2918
12.3795
13.4869
14.591
15.6751
16.7288
17.7474
18.7305
19.6825
20.6102
21.5169
22.401
23.2552
24.0659
24.814
25.476
26.0261
26.4388
26.6917
26.7685
26.6625
26.3824
25.9455
25.3748
24.696
23.9347
23.1136
22.251
21.3592
20.4447
19.508
18.5453
17.5496
16.518
15.452
14.3577
13.2471
12.1387
11.0571
10.0332
9.10191
8.30065
7.66647
7.2326
7.02478
7.05761
7.32846
7.81937
8.50219
9.34232
10.3023
11.3452
12.4369
13.5482
14.6561
15.7437
16.8009
17.8228
18.8088
19.7639
20.6943
21.6029
22.4877
23.3405
24.1474
24.8888
25.5409
26.0779
26.4744
26.7088
26.7657
26.6401
26.342
25.8898
25.3068
24.6189
23.8517
23.0275
22.1641
21.2733
20.361
19.4272
18.4675
17.4748
16.4465
15.3839
14.2931
13.1863
12.0817
11.0042
9.98422
9.05664
8.2587
7.62724
7.19528
6.98842
6.65466
6.93901
7.45287
8.16585
9.04126
10.0398
11.1229
12.255
13.4055
14.5496
15.6689
16.751
17.7889
18.7794
19.7273
20.6388
21.5173
22.3624
23.1685
23.9251
24.6167
25.224
25.7258
26.1008
26.3301
26.3997
26.3032
26.0487
25.6512
25.1298
24.506
23.8007
23.0326
22.2162
21.3615
20.4728
19.5499
18.5888
17.5831
16.5303
15.4343
14.3036
13.1522
12.0003
10.8744
9.8066
8.83378
7.99518
7.32992
6.87358
6.65435
6.68906
6.97453
7.49044
8.20625
9.08505
10.0874
11.1744
12.3104
13.4647
14.6123
15.7349
16.8199
17.8604
18.8532
19.8033
20.7166
21.5962
22.4412
23.2457
23.9984
24.6836
25.2818
25.7717
26.1323
26.3453
26.3972
26.2833
26.0129
25.6017
25.0692
24.437
23.726
22.9546
22.137
21.2825
20.3951
19.4742
18.5154
17.5119
16.4617
15.3687
14.2413
13.0935
11.9454
10.8233
9.75952
8.79045
7.95519
7.29268
6.83828
6.62003
6.26057
6.55556
7.08722
7.82327
8.72546
9.75336
10.8674
12.0314
13.2137
14.3885
15.536
16.6418
17.6968
18.6955
19.6421
20.5421
21.3987
22.2119
22.9779
23.6883
24.331
24.8907
25.3501
25.6919
25.9004
25.9636
25.8755
25.6436
25.2805
24.8023
24.2262
23.5692
22.8461
22.0684
21.2435
20.3746
19.4611
18.4992
17.4835
16.4121
15.2914
14.132
12.9496
11.7658
10.6082
9.50986
8.50829
7.64377
6.95669
6.48427
6.25666
6.29277
6.58888
7.1226
7.86147
8.76706
9.79871
10.9167
12.0845
13.2705
14.4487
15.5992
16.7076
17.7647
18.7649
19.7131
20.6141
21.4711
22.2837
23.0475
23.754
24.3907
24.942
25.3907
25.7198
25.9139
25.9614
25.8579
25.6119
25.2367
24.7484
24.1646
23.5021
22.7755
21.9961
21.1708
20.3025
19.3902
18.4298
17.4157
16.3464
15.2284
14.072
12.8931
11.7131
10.5594
9.46495
8.46713
7.60596
6.92163
6.45116
6.22453
5.83473
6.13529
6.67564
7.42232
8.33645
9.37738
10.5056
11.685
12.884
14.0763
15.2411
16.3626
17.4298
18.4348
19.3814
20.2736
21.1138
21.9021
22.6358
23.3084
23.9107
24.4304
24.8541
25.1677
25.3585
25.4161
25.3352
25.1224
24.7886
24.3466
23.8103
23.1932
22.5068
21.7599
20.9582
20.104
19.1967
18.2334
17.2101
16.1258
14.9891
13.8124
12.6128
11.4127
10.24
9.12783
8.11355
7.23743
6.54016
6.05977
5.82771
5.86459
6.16625
6.70863
7.45811
8.3756
9.42025
10.5524
11.7356
12.9382
14.1338
15.3014
16.4252
17.4941
18.5003
19.4478
20.3404
21.1803
21.9675
22.6987
23.3674
23.9639
24.4759
24.89
25.1923
25.3704
25.4141
25.3196
25.0944
24.7497
24.2986
23.7553
23.1328
22.4428
21.6938
20.8912
20.0369
19.1302
18.1679
17.1457
16.0632
14.9289
13.7551
12.5588
11.3624
10.1937
9.08537
8.07481
7.20201
6.50747
6.029
5.79792
5.37428
5.67428
6.21244
6.95498
7.86332
8.89764
10.0195
11.1939
12.3901
13.582
14.7486
15.8734
16.9437
17.9499
18.8945
19.7796
20.6068
21.3756
22.0837
22.7262
23.2958
23.7832
24.1776
24.4681
24.6443
24.6973
24.6223
24.4252
24.1152
23.7028
23.1988
22.6137
21.9564
21.2338
20.4504
19.608
18.7065
17.7445
16.7198
15.6324
14.4929
13.315
12.1165
10.9199
9.75279
8.64718
7.63944
6.76879
6.0752
5.59653
5.36474
5.40164
5.70271
6.24285
6.98811
7.89974
8.93771
10.0634
11.2416
12.4412
13.6364
14.8057
15.9326
17.0044
18.0114
18.9565
19.8417
20.6682
21.4354
22.1408
22.7793
23.3435
23.8237
24.2096
24.49
24.6549
24.6956
24.6085
24.4004
24.0807
23.66
23.1493
22.5591
21.8982
21.1732
20.3884
19.5455
18.6442
17.6827
16.6588
15.573
14.4357
13.2606
12.0655
10.8726
9.70925
8.60748
7.6034
6.736
6.04507
5.56827
5.33744
4.87734
5.16977
5.69335
6.41488
7.29713
8.30212
9.39356
10.5384
11.7075
12.8762
14.0239
15.1339
16.1929
17.1899
18.1257
19.0005
19.8139
20.565
21.2514
21.8691
22.4121
22.8731
23.2439
23.5157
23.68
23.7292
23.6589
23.4746
23.1839
22.7953
22.3175
21.7585
21.1254
20.4237
19.6571
18.8277
17.9364
16.9832
15.9682
14.8931
13.7695
12.6117
11.4376
10.2689
9.13185
8.0567
7.07773
6.23208
5.55797
5.09208
4.86599
4.90204
5.1955
5.72096
6.4451
7.33051
8.33902
9.43415
10.5826
11.7552
12.927
14.0773
15.1894
16.2497
17.2475
18.1837
19.0582
19.8707
20.62
21.3035
21.9172
22.4549
22.9095
23.2724
23.5351
23.6893
23.7276
23.6466
23.4524
23.153
22.7569
22.2729
21.709
21.0722
20.3679
19.5997
18.7694
17.8779
16.9251
15.9108
14.8372
13.7158
12.5608
11.39
10.2249
9.09157
8.02015
7.0447
6.20218
5.53061
5.06652
4.84134
4.3429
4.62009
5.11551
5.79754
6.63131
7.5817
8.61542
9.70228
10.8158
11.9332
13.0355
14.1066
15.1333
16.1043
17.0182
17.8727
18.6659
19.3957
20.0594
20.6532
21.172
21.6099
21.9602
22.216
22.3702
22.4162
22.3499
22.1763
21.9022
21.5343
21.0796
20.5447
19.9352
19.2559
18.5104
17.7013
16.8306
15.9004
14.9129
13.8718
12.7889
11.6782
10.5567
9.4446
8.36581
7.348
6.42245
5.62329
4.98597
4.54497
4.33055
4.36479
4.64292
5.1401
5.82457
6.66132
7.61503
8.65226
9.74263
10.8595
11.98
13.0847
14.1577
15.1853
16.1576
17.072
17.9262
18.7183
19.4462
20.107
20.6968
21.2107
21.6425
21.9858
22.2334
22.3785
22.4148
22.3389
22.1565
21.8745
21.4997
21.0393
20.4997
19.8865
19.2046
18.4573
17.6472
16.7762
15.8463
14.8596
13.8201
12.7393
11.6314
10.5131
9.40447
8.32926
7.315
6.39278
5.59654
4.96161
4.52228
4.30871
3.77076
4.0246
4.47761
5.10071
5.86236
6.73115
7.67762
8.67525
9.70082
10.7344
11.7592
12.7608
13.7272
14.648
15.5189
16.3355
17.0942
17.7918
18.4248
18.9893
19.4808
19.8942
20.2237
20.4635
20.6079
20.6508
20.5884
20.4256
20.168
19.8214
19.3917
18.8843
18.3043
17.656
16.9433
16.1695
15.3381
14.4526
13.518
12.5395
11.5282
10.4969
9.46064
8.4373
7.44776
6.5163
5.67043
4.94043
4.3581
3.95472
3.75826
3.78968
4.04437
4.49896
5.12427
5.88862
6.76046
7.71017
8.71107
9.73981
10.7763
11.8036
12.8071
13.7746
14.6968
15.5682
16.3844
17.142
17.8377
18.4679
19.0288
19.5157
19.9235
20.2465
20.4791
20.6153
20.6495
20.5786
20.4078
20.1431
19.7904
19.3554
18.8436
18.2601
17.6092
16.8947
16.12
15.2883
14.4032
13.4695
12.4926
11.4836
10.455
9.42177
8.40169
7.41549
6.48729
5.64447
4.91714
4.33695
3.93509
3.73939
3.16145
3.38381
3.7801
4.32474
4.99038
5.7501
6.57891
7.45452
8.35758
9.27159
10.1826
11.0789
11.9503
12.7892
13.5877
14.3399
15.0409
15.6865
16.2725
16.7948
17.2489
17.6301
17.9335
18.1541
18.2866
18.3259
18.2684
18.1186
17.8814
17.562
17.1653
16.6963
16.1594
15.5593
14.8999
14.1855
13.4204
12.6098
11.7605
10.8796
9.976
9.06034
8.14499
7.24466
6.3767
5.56137
4.82186
4.1839
3.67482
3.32184
3.14967
3.17723
3.40033
3.79798
4.34454
5.01254
5.77493
6.6066
7.48514
8.39107
9.30779
10.2212
11.1195
11.9925
12.8326
13.6316
14.3836
15.0836
15.7274
16.3109
16.8298
17.2798
17.6561
17.9537
18.1678
18.2932
18.3248
18.2597
18.1029
17.8595
17.5345
17.1331
16.66
16.1201
15.5176
14.8566
14.1413
13.3761
12.5661
11.718
10.8387
9.93735
9.02423
8.11167
7.21427
6.34928
5.53682
4.79997
4.16433
3.65711
3.30544
3.13393
2.51619
2.69931
3.02525
3.47284
4.01968
4.64394
5.32562
6.04703
6.79306
7.55098
8.31026
9.06229
9.80008
10.5185
11.208
11.8612
12.4727
13.0377
13.5516
14.0103
14.4093
14.7443
15.0108
15.2044
15.3208
15.3552
15.3046
15.1728
14.9644
14.6836
14.335
13.9228
13.4515
12.9253
12.3486
11.726
11.0624
10.3639
9.63837
8.89415
8.13723
7.37504
6.61674
5.8735
5.15873
4.48834
3.88075
3.35664
2.9382
2.6478
2.50596
2.52869
2.7124
3.03946
3.48861
4.03736
4.66383
5.34787
6.07175
6.82023
7.58051
8.342
9.09602
9.83555
10.5552
11.2451
11.8983
12.5091
13.0725
13.5843
14.0401
14.4356
14.7663
15.028
15.2161
15.3264
15.3543
15.2972
15.1595
14.9457
14.6602
14.3075
13.8919
13.4179
12.8897
12.3118
11.6885
11.025
10.3272
9.60306
8.86056
8.10565
7.3457
6.58979
5.84902
5.13671
4.46869
3.86328
3.34106
2.92414
2.6348
2.49349
1.83679
1.97373
2.21719
2.55118
2.95894
3.42428
3.93249
4.47077
5.02833
5.59631
6.16773
6.73733
7.30155
7.85844
8.39764
8.91193
9.39585
9.84477
10.2545
10.6211
10.9406
11.2091
11.423
11.5784
11.6718
11.6995
11.6587
11.5528
11.3854
11.1601
10.8806
10.5506
10.1741
9.75482
9.29697
8.8048
8.28315
7.73793
7.1771
6.60936
6.03701
5.46403
4.89618
4.34096
3.80777
3.30802
2.85509
2.46423
2.15192
1.93495
1.82884
1.84586
1.98323
2.22752
2.56266
2.97184
3.43881
3.94879
4.48893
5.04836
5.6182
6.19142
6.76276
7.32867
7.88666
8.42642
8.94075
9.42416
9.87201
10.2801
10.6445
10.9612
11.2264
11.4364
11.5876
11.6762
11.6987
11.6529
11.5424
11.3708
11.1417
10.859
10.5264
10.1478
9.72709
9.2683
8.77575
8.25429
7.70985
7.15049
6.58431
6.01361
5.44239
4.87637
4.32301
3.79167
3.29367
2.84235
2.45288
2.1417
1.92551
1.81979
1.12544
1.21051
1.36159
1.56859
1.82097
2.10865
2.42254
2.75481
3.09898
3.44993
3.8039
4.1586
4.51352
4.86989
5.21825
5.55277
5.86922
6.16412
6.43431
6.67679
6.88866
7.06711
7.20941
7.31296
7.37521
7.39364
7.36644
7.29582
7.1843
7.03438
6.84869
6.62996
6.38101
6.10477
5.80429
5.4828
5.14398
4.79243
4.43475
4.0786
3.7227
3.36803
3.01727
2.67456
2.34541
2.03668
1.7566
1.5146
1.321
1.18632
1.12038
1.13096
1.2163
1.36788
1.57558
1.82882
2.1175
2.43247
2.76588
3.11121
3.46334
3.8185
4.17445
4.53074
4.88797
5.23679
5.57142
5.88761
6.18188
6.45105
6.69212
6.9022
7.07849
7.21828
7.319
7.37813
7.39314
7.36261
7.28894
7.17466
7.02232
6.83456
6.61413
6.36387
6.08671
5.78568
5.46404
5.12546
4.77458
4.41818
4.06317
3.70837
3.35482
3.0052
2.66363
2.3356
2.02795
1.74885
1.5077
1.31477
1.18057
1.11487
0.384414
0.413542
0.465189
0.535804
0.621685
0.719297
0.825469
0.937502
1.0532
1.17089
1.28947
1.40857
1.52909
1.65395
1.7774
1.89679
2.01039
2.11678
2.2147
2.30292
2.38025
2.44556
2.49774
2.53576
2.55863
2.5654
2.5554
2.52946
2.48852
2.43356
2.36564
2.28585
2.19535
2.09533
1.98703
1.87177
1.75102
1.62672
1.50212
1.38162
1.26223
1.14341
1.02573
0.910445
0.799381
0.694878
0.59978
0.517381
0.451298
0.40524
0.382659
0.386284
0.415501
0.467314
0.538161
0.624328
0.722265
0.828791
0.941194
1.05727
1.17535
1.29434
1.41391
1.53511
1.66035
1.78401
1.90347
2.01701
2.1232
2.22077
2.3085
2.38519
2.44972
2.50099
2.53797
2.5597
2.56522
2.554
2.52694
2.48499
2.42915
2.36049
2.28009
2.18913
2.08881
1.98034
1.86506
1.74444
1.62046
1.49654
1.37649
1.25749
1.13903
1.02172
0.9068
0.7961
0.691946
0.597169
0.51505
0.449192
0.403292
0.380793
)
;

boundaryField
{
    top
    {
        type            fixedValue;
        value           uniform 0;
    }
    bottom
    {
        type            fixedValue;
        value           uniform 36.5;
    }
    frontAndBack
    {
        type            empty;
    }
    left_cyc
    {
        type            cyclic;
    }
    right_cyc
    {
        type            cyclic;
    }
}


// ************************************************************************* //
