/*--------------------------------*- C++ -*----------------------------------*\
| =========                 |                                                 |
| \\      /  F ield         | OpenFOAM: The Open Source CFD Toolbox           |
|  \\    /   O peration     | Version:  2.3.0                                 |
|   \\  /    A nd           | Web:      www.OpenFOAM.org                      |
|    \\/     M anipulation  |                                                 |
\*---------------------------------------------------------------------------*/
FoamFile
{
    version     2.0;
    format      ascii;
    class       volScalarField;
    location    "18000";
    object      T;
}
// * * * * * * * * * * * * * * * * * * * * * * * * * * * * * * * * * * * * * //

dimensions      [0 0 0 1 0 0 0];

internalField   nonuniform List<scalar> 
3060
(
34.1821
34.1933
34.214
34.2435
34.2815
34.3275
34.3812
34.4421
34.5102
34.5854
34.6679
34.7577
34.8544
34.956
35.0603
35.1672
35.2766
35.3876
35.4984
35.6063
35.7081
35.8003
35.8786
35.9387
35.9763
35.9878
35.9717
35.9299
35.8664
35.7853
35.6912
35.588
35.4793
35.3682
35.2571
35.1479
35.0413
34.9372
34.8359
34.7401
34.6516
34.5704
34.4965
34.4298
34.3704
34.3185
34.2743
34.2383
34.211
34.1928
34.1841
34.1855
34.1968
34.2176
34.2473
34.2855
34.3319
34.3859
34.4473
34.5159
34.5918
34.6749
34.7655
34.863
34.9651
35.0698
35.1772
35.2871
35.3984
35.5091
35.6167
35.7178
35.8088
35.8855
35.9436
35.9787
35.9874
35.9686
35.9244
35.8589
35.7764
35.6812
35.5774
35.4685
35.3574
35.2467
35.1379
35.0318
34.9282
34.8275
34.7325
34.6447
34.5643
34.491
34.4248
34.3658
34.3142
34.2704
34.2346
34.2074
34.1893
34.1807
29.6817
29.7131
29.7707
29.8532
29.9594
30.0882
30.2388
30.4108
30.6038
30.818
31.0539
31.3118
31.5917
31.8929
32.2061
32.5268
32.8552
33.1883
33.5202
33.8433
34.1482
34.4246
34.6602
34.8418
34.9562
34.9914
34.942
34.8153
34.6233
34.3797
34.0975
33.7884
33.4629
33.1298
32.7968
32.4692
32.1493
31.8361
31.538
31.2616
31.0075
30.7756
30.5654
30.3766
30.2092
30.0634
29.9398
29.8393
29.763
29.7121
29.6879
29.6918
29.7234
29.7813
29.8643
29.9712
30.1009
30.2526
30.4259
30.6204
30.8365
31.0744
31.3345
31.6168
31.9204
32.2349
32.5571
32.8867
33.2204
33.5523
33.8744
34.1773
34.4502
34.6811
34.8567
34.9635
34.9902
34.9325
34.7986
34.6009
34.3529
34.0677
33.7568
33.4305
33.0976
32.7655
32.4392
32.1209
31.8091
31.5134
31.2394
30.9875
30.7576
30.5491
30.3618
30.1957
30.0509
29.9281
29.8283
29.7524
29.7019
29.6778
25.4913
25.5404
25.6306
25.7597
25.9261
26.1283
26.3651
26.6358
26.9401
27.2781
27.6502
28.057
28.4983
28.9735
29.4795
30.0025
30.5406
31.0876
31.6331
32.1639
32.6651
33.1201
33.5093
33.8109
34.0019
34.0613
33.9782
33.7667
33.4484
33.0462
32.5817
32.0738
31.5389
30.9916
30.4448
29.9083
29.3878
28.8847
28.4143
27.9785
27.5778
27.2118
26.8803
26.5828
26.3193
26.0902
25.8963
25.7388
25.6193
25.5397
25.5018
25.5079
25.5573
25.648
25.778
25.9455
26.1491
26.3876
26.6604
26.9671
27.3079
27.6832
28.0934
28.5385
29.0173
29.5263
30.052
30.5924
31.1406
31.686
32.2151
32.713
33.1625
33.5441
33.8357
34.0142
34.0593
33.9623
33.7389
33.4112
33.002
32.5327
32.0218
31.4857
30.9386
30.3932
29.859
29.3413
28.8416
28.375
27.9429
27.5455
27.1827
26.8539
26.5587
26.2972
26.0698
25.8772
25.7207
25.602
25.5229
25.4853
21.7603
21.8248
21.943
22.1124
22.3307
22.5959
22.9066
23.2616
23.6605
24.1033
24.5903
25.1221
25.6989
26.3203
26.9842
27.6807
28.4046
29.1457
29.8879
30.6116
31.2957
31.9169
32.4496
32.864
33.1278
33.2103
33.0951
32.8033
32.3662
31.8161
31.182
30.4889
29.7597
29.0155
28.2754
27.5546
26.8624
26.2044
25.5898
25.0204
24.4964
24.0174
23.5831
23.1931
22.8475
22.5469
22.2925
22.0859
21.9292
21.8247
21.775
21.783
21.8478
21.9668
22.1372
22.357
22.6241
22.9371
23.2948
23.6969
24.1433
24.6344
25.1707
25.7523
26.3785
27.047
27.7477
28.475
29.218
29.9602
30.6817
31.3611
31.9751
32.4975
32.8983
33.1449
33.2074
33.0729
32.7649
32.3151
31.7556
31.1149
30.4178
29.687
28.9433
28.2055
27.488
26.7994
26.147
25.5375
24.9728
24.4532
23.9783
23.5475
23.1605
22.8175
22.5191
22.2664
22.0613
21.9056
21.8018
21.7524
18.581
18.6585
18.8005
19.0038
19.2657
19.5836
19.9553
20.3794
20.855
21.382
21.9608
22.592
23.2765
24.0141
24.8032
25.6396
26.5157
27.418
28.3275
29.2195
30.0654
30.8342
31.4938
32.0079
32.3362
32.4392
32.2954
31.9326
31.3906
30.7096
29.9248
29.0681
28.1703
27.2594
26.3593
25.4882
24.6586
23.8771
23.1479
22.4723
21.8502
21.281
20.7639
20.2986
19.8856
19.5258
19.2209
18.973
18.7848
18.6592
18.5994
18.609
18.687
18.8299
19.0346
19.2983
19.6183
19.9928
20.4201
20.8994
21.4307
22.0142
22.6508
23.3409
24.0845
24.8794
25.7213
26.6017
27.5069
28.4168
29.3064
30.1466
30.9064
31.5533
32.0506
32.3576
32.4356
32.2678
31.8848
31.3272
30.6345
29.8416
28.9802
28.0807
27.1709
26.2741
25.4078
24.5838
23.8082
23.0848
22.4148
21.7979
21.2333
20.7203
20.2587
19.8487
19.4915
19.1887
18.9425
18.7555
18.6308
18.5714
15.9797
16.0684
16.2308
16.4631
16.7617
17.1231
17.5445
18.0238
18.5597
19.1517
19.8003
20.5065
21.2716
22.0965
22.9804
23.9236
24.9166
25.9444
26.9855
28.0122
28.9905
29.8825
30.6477
31.2437
31.6243
31.7438
31.5771
31.1565
30.5283
29.7381
28.8279
27.8379
26.8055
25.7637
24.7394
23.753
22.8185
21.9438
21.1287
20.3736
19.6775
19.0393
18.458
17.9335
17.4664
17.0581
16.7112
16.4284
16.2134
16.0697
16.0013
16.0123
16.1016
16.265
16.4988
16.7994
17.1633
17.5877
18.0706
18.6106
19.2073
19.8612
20.5733
21.3448
22.1764
23.0673
24.0169
25.0152
26.0465
27.0886
28.1129
29.085
29.9665
30.7169
31.2933
31.6492
31.7396
31.545
31.1011
30.4545
29.6507
28.7313
27.7361
26.7024
25.6623
24.6422
23.6617
22.7345
21.8659
21.0572
20.3082
19.6179
18.9848
18.4081
17.8875
17.4238
17.0185
16.6739
16.3931
16.1795
16.0367
15.9688
13.9259
14.0248
14.2056
14.4637
14.7945
15.1933
15.6563
16.1804
16.7636
17.405
18.1049
18.865
19.6871
20.5735
21.525
22.5442
23.6208
24.739
25.876
27.0017
28.0788
29.064
29.9101
30.5677
30.9862
31.1172
30.9344
30.4717
29.7783
28.9046
27.8998
26.8107
25.6795
24.5427
23.4289
22.3599
21.3505
20.41
19.5344
18.7228
17.9733
17.284
16.6537
16.0822
15.5708
15.1218
14.7385
14.4251
14.186
14.0259
13.9497
13.962
14.0614
14.2434
14.5032
14.8361
15.2377
15.7039
16.2319
16.8194
17.4658
18.1714
18.9377
19.7667
20.6605
21.6197
22.6461
23.7287
24.851
25.9894
27.1128
28.1834
29.1572
29.9867
30.6224
31.0136
31.1127
30.8991
30.4104
29.6965
28.8077
27.7929
26.6985
25.5662
24.4316
23.3226
22.2602
21.2583
20.3251
19.4566
18.6517
17.9083
17.2244
16.5989
16.0317
15.524
15.0781
14.6974
14.386
14.1484
13.9894
13.9137
12.3498
12.4587
12.6577
12.941
13.3025
13.7362
14.2367
14.7996
15.4217
16.1017
16.8396
17.6372
18.4976
19.4241
20.4199
21.488
22.6183
23.7948
24.9941
26.1847
27.3269
28.3739
29.2737
29.9715
30.4134
30.5508
30.3589
29.8699
29.1337
28.2047
27.1372
25.9828
24.787
23.5884
22.4171
21.2952
20.2377
19.2537
18.3383
17.4886
16.7013
15.9737
15.3045
14.6939
14.1438
13.6577
13.2404
12.8974
12.6348
12.4587
12.3747
12.3882
12.4978
12.698
12.9831
13.3469
13.7834
14.2873
14.8542
15.4809
16.166
16.9097
17.7139
18.5814
19.5157
20.5198
21.5955
22.7323
23.9133
25.1143
26.3028
27.4383
28.4733
29.3553
30.0295
30.4422
30.5461
30.3216
29.8048
29.0466
28.1014
27.0234
25.8636
24.6669
23.4708
22.3047
21.1897
20.14
19.1642
18.2563
17.4136
16.6325
15.9106
15.2464
14.6402
14.0939
13.6111
13.1965
12.8557
12.5948
12.4198
12.3364
11.1628
11.2825
11.5009
11.8109
12.2046
12.6741
13.212
13.812
14.4696
15.1823
15.9499
16.7743
17.6593
18.6097
19.6308
20.725
21.8832
23.0898
24.3214
25.5459
26.7221
27.8011
28.7277
29.4446
29.8961
30.0355
29.8407
29.3405
28.5838
27.6268
26.5269
25.3383
24.1089
22.8784
21.6774
20.528
19.4445
18.4353
17.4958
16.6208
15.8059
15.0477
14.3449
13.6982
13.1108
12.5875
12.1351
11.7611
11.4735
11.2801
11.1879
11.2027
11.323
11.5428
11.8546
12.2508
12.7232
13.2645
13.8685
14.5307
15.2487
16.0222
16.8532
17.7454
18.7038
19.7334
20.8356
22.0005
23.2118
24.4453
25.6678
26.8372
27.9036
28.8118
29.5041
29.9255
30.0307
29.8026
29.2737
28.494
27.5202
26.4094
25.2154
23.9851
22.7573
21.5617
20.4194
19.3439
18.3432
17.4115
16.5436
15.7351
14.9826
14.2848
13.6426
13.059
12.5391
12.0895
11.7178
11.432
11.2398
11.1481
10.2746
10.4064
10.6467
10.9866
11.4162
11.925
12.5032
13.1423
13.8359
14.58
15.3737
16.2188
17.1197
18.0825
19.1142
20.2164
21.3811
22.5939
23.832
25.0633
26.2461
27.3304
28.2601
28.9768
29.4259
29.5636
29.3709
28.8729
28.1158
27.1554
26.05
24.8548
23.6186
22.3817
21.1745
20.0183
18.9264
17.906
16.9531
16.061
15.224
14.4383
13.7027
13.0191
12.392
11.8284
11.3372
10.9287
10.6131
10.4003
10.2988
10.3151
10.4476
10.6892
11.0311
11.4631
11.975
12.5567
13.1999
13.898
14.6473
15.4468
16.2984
17.2066
18.1773
19.2175
20.3277
21.4992
22.7169
23.9569
25.1861
26.3619
27.4335
28.3443
29.0361
29.455
29.5588
29.3331
28.8062
28.0258
27.0482
25.9317
24.7309
23.4939
22.2597
21.0579
19.9089
18.8251
17.8131
16.868
15.983
15.1523
14.3722
13.6416
12.9625
12.3392
11.779
11.2908
10.8846
10.5709
10.3594
10.2584
9.6035
9.74906
10.0142
10.3882
10.8586
11.412
12.0357
12.7183
13.4511
14.2285
15.0483
15.9121
16.8244
17.7921
18.8237
19.9199
21.0744
22.2741
23.4973
24.7126
25.8788
26.946
27.8585
28.5594
28.9962
29.1293
28.9428
28.4579
27.7171
26.7738
25.6854
24.5068
23.2866
22.0642
20.8696
19.7229
18.636
17.6143
16.6549
15.7497
14.8922
14.0784
13.308
12.5838
11.9124
11.3033
10.7682
10.3203
9.97288
9.73804
9.62596
9.64387
9.79018
10.0567
10.4328
10.9057
11.4622
12.0894
12.776
13.5133
14.2958
15.1213
15.9914
16.9107
17.8862
18.926
20.03
21.1911
22.3955
23.6205
24.8337
25.9928
27.0472
27.941
28.6171
29.0243
29.1247
28.9061
28.3928
27.6288
26.6684
25.5689
24.3846
23.1634
21.9437
20.7544
19.6147
18.5356
17.5221
16.5703
15.6719
14.8205
14.0123
13.2467
12.5269
11.8594
11.2537
10.7216
10.2762
9.93064
9.6971
9.58565
9.08192
9.24294
9.5361
9.94858
10.465
11.0688
11.7437
12.4755
13.2525
14.0671
14.9155
15.7986
16.7208
17.6895
18.7136
19.7937
20.9253
22.097
23.2884
24.4695
25.6003
26.6323
27.512
28.1847
28.6019
28.7284
28.551
28.0874
27.3756
26.4659
25.4127
24.2694
23.083
21.8918
20.7244
19.5994
18.5269
17.5106
16.5482
15.6308
14.7517
13.9071
13.0976
12.3277
11.6064
10.9458
10.3612
9.86894
9.48554
9.22589
9.10197
9.12175
9.28354
9.57818
9.99275
10.5118
11.1187
11.7972
12.5329
13.3143
14.1337
14.9876
15.8767
16.8056
17.7817
18.8135
19.901
21.0389
22.2149
23.4079
24.5867
25.7104
26.7299
27.5911
28.2399
28.6287
28.724
28.5161
28.0251
27.2908
26.3642
25.3
24.151
22.9634
21.7746
20.6122
19.4937
18.4287
17.4201
16.4649
15.5541
14.6808
13.8415
13.0367
12.2711
11.5535
10.8965
10.3149
9.82516
9.44375
9.18546
9.06221
8.65741
8.83536
9.1593
9.61415
10.1814
10.8409
11.5728
12.3594
13.1859
14.0423
14.9231
15.8279
16.7607
17.7291
18.741
19.7982
20.898
22.0307
23.1777
24.3107
25.3917
26.375
27.21
27.8458
28.2384
28.3568
28.1904
27.7538
27.0805
26.2163
25.2122
24.1185
22.9796
21.832
20.7022
19.6072
18.5554
17.5485
16.5842
15.6537
14.7502
13.8709
13.0174
12.1965
11.4194
10.7019
10.0625
9.52128
9.09832
8.81142
8.67454
8.69635
8.87512
9.20059
9.65759
10.2275
10.8902
11.6257
12.4161
13.2469
14.1079
14.9938
15.9043
16.8433
17.8186
18.8375
19.9014
21.007
22.1437
23.2919
24.4224
25.4964
26.4674
27.2846
27.8977
28.2634
28.3527
28.1577
27.6952
27.0004
26.1199
25.105
24.0055
22.8652
21.7196
20.5943
19.5054
18.4604
17.4606
16.503
15.5786
14.6806
13.8062
12.9572
12.1404
11.3672
10.6531
10.0168
9.47821
9.05732
8.77184
8.63566
8.29107
8.48707
8.84389
9.34403
9.96571
10.6851
11.4785
12.3245
13.2053
14.1081
15.0253
15.9551
16.9004
17.8683
18.8658
19.8962
20.9587
22.0454
23.1392
24.214
25.235
26.1598
26.9419
27.5352
27.8998
28.0095
27.8552
27.4492
26.8204
26.0102
25.0651
24.0313
22.9498
21.8541
20.7687
19.709
18.6815
17.6861
16.7192
15.7733
14.8421
13.9237
13.0217
12.1449
11.3076
10.5287
9.8304
9.23683
8.77158
8.4556
8.30492
8.32889
8.52574
8.88414
9.38651
10.011
10.7336
11.5305
12.3803
13.2652
14.1723
15.0943
16.0292
16.9802
17.9543
18.9581
19.9946
21.0622
22.1523
23.2469
24.319
25.333
26.246
27.0114
27.5831
27.9229
28.0058
27.825
27.3949
26.7458
25.9202
24.9646
23.925
22.8418
21.7476
20.6662
19.6119
18.5904
17.6012
16.6405
15.7001
14.7739
13.8602
12.9625
12.0897
11.2562
10.4807
9.78558
9.19471
8.73161
8.4171
8.26716
7.95504
8.16976
8.56062
9.10766
9.78575
10.5673
11.4248
12.3331
13.2714
14.2241
15.1815
16.1394
17.0996
18.0681
19.051
20.0532
21.0755
22.1128
23.148
24.1579
25.1117
25.9714
26.6955
27.2432
27.5794
27.6804
27.538
27.1635
26.5826
25.8319
24.9524
23.9855
22.968
21.9292
20.8914
19.8696
18.8676
17.8839
16.913
15.949
14.9867
14.0256
13.0716
12.1359
11.2355
10.3926
9.63331
8.98548
8.47645
8.13034
7.96536
7.99157
8.20716
8.59967
9.14901
9.82994
10.6147
11.4757
12.3878
13.33
14.2869
15.2486
16.2111
17.1763
18.1502
19.1385
20.1459
21.1727
22.213
23.2482
24.2552
25.2021
26.0507
26.7591
27.2871
27.6005
27.677
27.5104
27.1138
26.5142
25.749
24.8596
23.8869
22.8674
21.8293
20.795
19.7778
18.7812
17.8028
16.8372
15.8781
14.9203
13.9635
13.0136
12.0817
11.185
10.3456
9.58953
8.94448
8.43767
8.0931
7.9289
7.62977
7.86337
8.28843
8.88239
9.61678
10.4604
11.382
12.3532
13.35
14.3544
15.3549
16.3436
17.3211
18.2918
19.2612
20.2354
21.2165
22.2001
23.1734
24.1162
25.0009
25.7943
26.4599
26.962
27.2699
27.3624
27.2318
26.8885
26.3556
25.6649
24.8524
23.9543
23.003
22.0246
21.0383
20.0552
19.0783
18.1048
17.1282
16.1436
15.1477
14.1411
13.1335
12.138
11.1741
10.2673
9.44711
8.74511
8.19225
7.81582
7.6364
7.66487
7.89938
8.32615
8.92247
9.65976
10.5066
11.4318
12.4067
13.4073
14.4157
15.4199
16.4127
17.3945
18.3697
19.3437
20.3222
21.3068
22.2925
23.2657
24.2053
25.0835
25.8664
26.5177
27.0018
27.289
27.3593
27.2067
26.8434
26.2935
25.5894
24.7675
23.8638
22.9103
21.9323
20.9485
19.9691
18.9967
18.0277
17.0555
16.0752
15.0831
14.0805
13.0768
12.085
11.1248
10.2215
9.40451
8.70536
8.15479
7.77998
7.60135
7.30157
7.55387
8.01222
8.65133
9.43954
10.3423
11.3252
12.3568
13.4102
14.4647
15.5061
16.5258
17.5219
18.4966
19.4549
20.4036
21.3458
22.2785
23.1919
24.0689
24.886
25.6145
26.2231
26.6809
26.9613
27.0456
26.9263
26.6134
26.1271
25.4948
24.7478
23.9171
23.0305
22.1105
21.1727
20.2258
19.2715
18.3059
17.322
16.3159
15.2864
14.2368
13.1774
12.1241
11.0994
10.1315
9.25325
8.4994
7.90424
7.49819
7.30435
7.33513
7.58838
8.04848
8.69003
9.48119
10.3873
11.3737
12.4089
13.4659
14.524
15.5689
16.5922
17.5919
18.5702
19.5322
20.4843
21.4292
22.3633
23.276
24.1498
24.9607
25.6796
26.2751
26.7167
26.9785
27.0427
26.9038
26.5728
26.0711
25.4267
24.671
23.8348
22.9458
22.0256
21.0897
20.1457
19.1948
18.2329
17.2526
16.25
15.224
14.178
13.1222
12.0724
11.0513
10.0869
9.21196
8.46102
7.86822
7.46384
7.27085
6.96004
7.22983
7.71859
8.39831
9.23449
10.1898
11.2273
12.313
13.418
14.5192
15.6001
16.6507
17.6663
18.6469
19.5975
20.5249
21.4326
22.3193
23.1773
23.9929
24.7464
25.4138
25.9685
26.3846
26.6391
26.7155
26.607
26.3227
25.8802
25.3031
24.6177
23.8502
23.024
22.1575
21.2636
20.3485
19.4126
18.4519
17.459
16.4307
15.3682
14.2773
13.1699
12.0642
10.985
9.96296
9.03309
8.23295
7.59961
7.16635
6.95893
6.99193
7.26269
7.75325
8.43545
9.27461
10.2332
11.2742
12.3635
13.4719
14.5765
15.6606
16.7143
17.7329
18.7163
19.6697
20.5996
21.5092
22.3966
23.2536
24.0659
24.8135
25.472
26.0149
26.4165
26.6544
26.713
26.5869
26.2864
25.8302
25.2421
24.5486
23.7759
22.947
22.08
21.1871
20.274
19.3408
18.3829
17.3928
16.3674
15.308
14.2203
13.1163
12.0141
10.9384
9.91984
8.99329
8.19611
7.56519
7.13364
6.9271
6.59698
6.88157
7.39567
8.10881
8.98419
9.98244
11.0648
12.1957
13.3445
14.4865
15.6032
16.6826
17.7178
18.7062
19.6525
20.5634
21.4426
22.2897
23.0989
23.8596
24.5557
25.1676
25.6733
26.0512
26.2819
26.3511
26.2525
25.9943
25.5918
25.0649
24.4354
23.7249
22.9524
22.1329
21.2764
20.3873
19.4653
18.5061
17.5029
16.4529
15.3598
14.2319
13.0829
11.933
10.8086
9.74201
8.77
7.93198
7.26714
6.81114
6.59218
6.62708
6.91264
7.42855
8.1442
9.0226
10.0242
11.11
12.2444
13.3966
14.5417
15.6614
16.7435
17.7811
18.7715
19.7199
20.6326
21.5129
22.36
23.1678
23.9251
24.6156
25.2194
25.7145
26.0795
26.2955
26.3489
26.2346
25.9621
25.5474
25.0105
24.3735
23.658
22.8827
22.0622
21.206
20.3183
19.3981
18.441
17.4398
16.3922
15.3018
14.1768
13.031
11.8845
10.7636
9.70055
8.73189
7.89685
7.23446
6.7802
6.56213
6.20656
6.50203
7.03432
7.77108
8.67392
9.70229
10.8165
11.9802
13.1617
14.3353
15.481
16.5848
17.6377
18.6345
19.5798
20.4791
21.3361
22.1508
22.9191
23.6328
24.2792
24.8426
25.3052
25.6494
25.8591
25.9219
25.8319
25.5968
25.2296
24.7467
24.1659
23.5045
22.7778
21.9975
21.1713
20.3023
19.3895
18.4293
17.4155
16.3463
15.2278
14.0702
12.8893
11.7066
10.5496
9.45159
8.45009
7.5855
6.89833
6.4259
6.1984
6.23473
6.53118
7.06529
7.80455
8.71042
9.74212
10.8598
12.0269
13.2117
14.3883
15.5368
16.643
17.6978
18.6961
19.6427
20.5431
21.4006
22.2147
22.9813
23.6915
24.3326
24.8885
25.3417
25.6744
25.8711
25.9199
25.8161
25.5684
25.1903
24.6983
24.1106
23.4444
22.7147
21.933
21.1066
20.2381
19.3266
18.3677
17.3555
16.2882
15.172
14.0172
12.8394
11.66
10.5066
9.41201
8.41386
7.55227
6.86756
6.39688
6.17027
5.78465
6.08593
6.62737
7.37539
8.29093
9.3332
10.4626
11.6427
12.842
14.0342
15.1983
16.3188
17.3846
18.3883
19.3338
20.2254
21.0658
21.8552
22.5907
23.2659
23.871
24.3937
24.8199
25.1354
25.3271
25.3844
25.3018
25.0864
24.7491
24.3032
23.7631
23.1424
22.4531
21.7042
20.9014
20.047
19.1403
18.1782
17.1562
16.0732
14.9377
13.7617
12.5625
11.3624
10.1893
9.0765
8.06144
7.18451
6.48658
6.00577
5.77362
5.81077
6.11302
6.65625
7.40675
8.32529
9.37087
10.5037
11.6873
12.8898
14.0849
15.2515
16.3741
17.4416
18.4463
19.3927
20.2848
21.1251
21.9135
22.6469
23.3186
23.9186
24.4344
24.8521
25.1575
25.3377
25.3826
25.2878
25.0613
24.7142
24.2602
23.7137
23.0884
22.3959
21.6452
20.8417
19.9874
19.0813
18.12
17.0991
16.0177
14.8843
13.711
12.5148
11.318
10.1484
9.03905
8.02731
7.15337
6.45788
5.97881
5.74754
5.32839
5.62939
6.16913
6.91365
7.82421
8.8608
9.98488
11.1612
12.3588
13.5518
14.7191
15.844
16.9139
17.9196
18.8636
19.7486
20.576
21.3456
22.0552
22.6996
23.2715
23.7611
24.1576
24.4495
24.6264
24.679
24.6026
24.4033
24.0905
23.6749
23.1677
22.5797
21.9201
21.1958
20.4113
19.5686
18.6674
17.7059
16.6815
15.5944
14.4548
13.2764
12.077
10.8793
9.71059
8.6033
7.59386
6.72163
6.02675
5.54721
5.31511
5.35232
5.65426
6.19575
6.9427
7.85619
8.89604
10.0235
11.2032
12.404
13.5999
14.7696
15.8964
16.9678
17.9742
18.9187
19.8038
20.6306
21.399
22.1062
22.7471
23.3141
23.7974
24.1862
24.4691
24.6358
24.6774
24.5902
24.381
24.0595
23.6365
23.1234
22.5309
21.868
21.1417
20.3561
19.513
18.6119
17.6509
16.6273
15.5417
14.4041
13.2282
12.0319
10.8374
9.67211
8.56826
7.56209
6.69278
6.00029
5.52245
5.29122
4.83593
5.12964
5.65526
6.37942
7.26468
8.27288
9.36754
10.5154
11.6873
12.8584
14.0081
15.1196
16.1795
17.1769
18.1131
18.9882
19.8022
20.5543
21.242
21.8613
22.4061
22.869
23.2413
23.5142
23.679
23.7278
23.6563
23.4701
23.1771
22.7859
22.3054
21.744
21.1088
20.4054
19.6377
18.8075
17.9157
16.9621
15.9465
14.8704
13.7453
12.5857
11.4094
10.2382
9.09848
8.02061
7.03901
6.191
5.51497
5.04777
4.82114
4.85753
5.15214
5.67944
6.40592
7.294
8.30536
9.40333
10.5545
11.7295
12.9034
14.0555
15.1688
16.2299
17.2281
18.1646
19.0395
19.8528
20.6033
21.2885
21.9043
22.4445
22.9015
23.2668
23.5316
23.6873
23.7264
23.6453
23.4503
23.1494
22.7515
22.2655
21.6997
21.0613
20.3556
19.5864
18.7556
17.8637
16.9104
15.8954
14.8207
13.6976
12.5405
11.3671
10.1992
9.06283
7.9883
7.00988
6.16468
5.49094
5.02537
4.79957
4.30626
4.58497
5.08286
5.76809
6.60559
7.56002
8.59792
9.68894
10.8065
11.9276
13.0332
14.1071
15.136
16.1087
17.024
17.8797
18.6742
19.4054
20.0706
20.666
21.1864
21.626
21.9776
22.2343
22.3889
22.4345
22.3672
22.1921
21.9159
21.5457
21.0886
20.5513
19.9397
19.2585
18.5113
17.7008
16.8287
15.8969
14.9076
13.8642
12.7784
11.6645
10.5396
9.4238
8.34126
7.31976
6.39075
5.58851
4.9487
4.50598
4.2908
4.3254
4.60494
5.10439
5.79181
6.63196
7.58938
8.63043
9.72462
10.8451
11.969
13.0769
14.1525
15.1823
16.1562
17.0719
17.9274
18.7209
19.4504
20.1131
20.705
21.2211
21.6552
22.0005
22.2499
22.3963
22.4332
22.3573
22.1743
21.891
21.5147
21.0525
20.511
19.8962
19.2126
18.4639
17.6525
16.7802
15.8487
14.8601
13.818
12.7343
11.6229
10.5008
9.38817
8.30886
7.29056
6.36455
5.56496
4.92729
4.48609
4.27169
3.73919
3.99473
4.45052
5.07725
5.84315
6.71661
7.668
8.67064
9.70119
10.7396
11.7689
12.7746
13.7444
14.6683
15.5418
16.3606
17.1215
17.8211
18.4561
19.0226
19.5159
19.9309
20.2617
20.5025
20.6471
20.6898
20.6265
20.4621
20.2026
19.8539
19.4218
18.9119
18.3294
17.6787
16.9636
16.1875
15.3535
14.4654
13.5276
12.5455
11.5301
10.4945
9.45369
8.4257
7.43156
6.49566
5.64568
4.91206
4.32677
3.92134
3.72394
3.75572
4.01202
4.46922
5.09793
5.86626
6.74246
7.69677
8.70237
9.73577
10.7768
11.8083
12.8157
13.7866
14.7117
15.5857
16.4043
17.1642
17.8621
18.4947
19.0579
19.5471
19.9571
20.2822
20.5164
20.6538
20.6886
20.6176
20.4462
20.1803
19.826
19.3892
18.8754
18.2898
17.6368
16.9202
16.1432
15.309
14.4212
13.4843
12.5037
11.4903
10.4571
9.41908
8.39404
7.40292
6.46997
5.62273
4.89152
4.30819
3.90413
3.70743
3.13524
3.35937
3.75859
4.30706
4.97719
5.74188
6.57597
7.45705
8.36564
9.28513
10.2014
11.1027
11.9787
12.8217
13.6239
14.3794
15.0835
15.7319
16.3206
16.8453
17.3016
17.6847
17.9896
18.2112
18.3441
18.3832
18.3249
18.1735
17.9344
17.6127
17.2134
16.7416
16.2018
15.5986
14.936
14.2182
13.4496
12.6353
11.7819
10.8963
9.98782
9.06703
8.14645
7.2409
6.36786
5.54769
4.80372
4.16183
3.64955
3.29433
3.1211
3.14902
3.37382
3.77426
4.32445
4.9967
5.7638
6.60049
7.48422
8.39541
9.31735
10.2358
11.1389
12.0164
12.8604
13.6631
14.4185
15.1217
15.7686
16.355
16.8767
17.3293
17.708
18.0077
18.2235
18.35
18.3822
18.317
18.1594
17.9147
17.588
17.1845
16.7091
16.1665
15.5612
14.8972
14.1787
13.41
12.5961
11.7438
10.8598
9.95326
9.03477
8.11672
7.21384
6.34348
5.52591
4.78435
4.14456
3.63398
3.27995
3.10733
2.4956
2.68044
3.00921
3.4605
4.01167
4.64076
5.32758
6.05437
6.80588
7.56932
8.33406
9.0914
9.83425
10.5574
11.2512
11.9086
12.5239
13.0923
13.6095
14.071
14.4726
14.8097
15.078
15.2728
15.3897
15.424
15.3725
15.2393
15.0289
14.7457
14.3942
13.9789
13.5042
12.9744
12.394
11.7673
11.0995
10.3966
9.66635
8.91712
8.15501
7.38754
6.62395
5.8755
5.1557
4.48054
3.86857
3.3406
2.91901
2.62637
2.48345
2.50651
2.69188
3.02166
3.47436
4.02727
4.65834
5.34731
6.07633
6.83007
7.59566
8.36241
9.12156
9.866
10.5902
11.2845
11.9418
12.5564
13.1236
13.6388
14.0978
14.4962
14.8296
15.0934
15.2833
15.3947
15.4231
15.3658
15.2273
15.012
14.7246
14.3695
13.9512
13.474
12.9425
12.3609
11.7337
11.0659
10.3636
9.63467
8.88701
8.12672
7.36128
6.59987
5.85366
5.1361
4.46309
3.8531
3.32685
2.90664
2.61497
2.47255
1.82205
1.96047
2.20637
2.54353
2.95501
3.42446
3.93707
4.47994
5.04221
5.61498
6.19121
6.76559
7.33452
7.89599
8.43956
8.958
9.44581
9.89837
10.3115
10.681
11.0032
11.274
11.4896
11.6463
11.7403
11.7679
11.7264
11.6192
11.4499
11.2222
10.9399
10.6068
10.2269
9.80398
9.34226
8.84602
8.32013
7.77051
7.20518
6.63284
6.05583
5.47821
4.90576
4.34605
3.80853
3.30466
2.84795
2.45374
2.13869
1.91975
1.81268
1.82997
1.96878
2.21542
2.55363
2.96639
3.43732
3.95154
4.4961
5.06008
5.63454
6.21241
6.78837
7.35885
7.92132
8.46541
8.98389
9.47127
9.92288
10.3345
10.7021
11.0218
11.2896
11.5018
11.6545
11.7443
11.7672
11.7212
11.6097
11.4366
11.2056
10.9205
10.585
10.2032
9.77898
9.31642
8.81986
8.29414
7.74524
7.18124
6.61032
6.03482
5.45881
4.88803
4.33001
3.79416
3.2919
2.83666
2.44372
2.12969
1.91146
1.80476
1.11669
1.20281
1.3556
1.5648
1.81975
2.11026
2.42715
2.76254
3.10991
3.46412
3.82138
4.17942
4.53776
4.89758
5.24933
5.58712
5.90669
6.20452
6.47743
6.72239
6.93645
7.11675
7.26052
7.3651
7.42792
7.44636
7.4186
7.34693
7.23391
7.08212
6.89423
6.673
6.42133
6.14217
5.8386
5.5139
5.17177
4.81684
4.4558
4.09637
3.73725
3.37939
3.0255
2.67973
2.34761
2.03606
1.75335
1.50901
1.31346
1.17738
1.11075
1.12152
1.20788
1.36111
1.57095
1.82669
2.1181
2.43598
2.77241
3.12084
3.47612
3.83448
4.19365
4.55324
4.91385
5.26603
5.60392
5.92327
6.22054
6.49254
6.73623
6.94868
7.12703
7.26853
7.37056
7.43054
7.44589
7.41511
7.34068
7.22518
7.0712
6.88144
6.65868
6.40583
6.12584
5.82179
5.49696
5.15505
4.80073
4.44086
4.08247
3.72436
3.36753
3.01468
2.66995
2.33885
2.02828
1.74646
1.5029
1.30798
1.17234
1.10593
0.38164
0.411163
0.463456
0.534898
0.621732
0.720376
0.827629
0.940769
1.05759
1.1764
1.29611
1.41638
1.53816
1.6644
1.78923
1.90998
2.02489
2.13254
2.23163
2.32093
2.39922
2.46535
2.51818
2.55667
2.5798
2.58659
2.57637
2.54997
2.50839
2.45263
2.38376
2.3029
2.21123
2.10996
2.00036
1.88375
1.76164
1.63598
1.51007
1.38839
1.26789
1.14797
1.0292
0.912842
0.800717
0.695186
0.599119
0.515843
0.449025
0.402431
0.379582
0.383277
0.412879
0.465322
0.536975
0.624069
0.72301
0.830586
0.944063
1.06123
1.1804
1.30048
1.42118
1.54358
1.67016
1.7952
1.91601
2.03087
2.13834
2.23713
2.32598
2.4037
2.46912
2.52113
2.55867
2.58077
2.58642
2.57509
2.54768
2.50519
2.44863
2.37908
2.29767
2.20559
2.10405
1.99431
1.87768
1.75569
1.63032
1.50503
1.38377
1.26362
1.14404
1.0256
0.909576
0.797783
0.692572
0.596798
0.513779
0.447168
0.40072
0.377947
)
;

boundaryField
{
    top
    {
        type            fixedValue;
        value           uniform 0;
    }
    bottom
    {
        type            fixedValue;
        value           uniform 36.5;
    }
    frontAndBack
    {
        type            empty;
    }
    left_cyc
    {
        type            cyclic;
    }
    right_cyc
    {
        type            cyclic;
    }
}


// ************************************************************************* //
