/*--------------------------------*- C++ -*----------------------------------*\
| =========                 |                                                 |
| \\      /  F ield         | OpenFOAM: The Open Source CFD Toolbox           |
|  \\    /   O peration     | Version:  2.3.0                                 |
|   \\  /    A nd           | Web:      www.OpenFOAM.org                      |
|    \\/     M anipulation  |                                                 |
\*---------------------------------------------------------------------------*/
FoamFile
{
    version     2.0;
    format      ascii;
    class       volVectorField;
    location    "18000";
    object      U;
}
// * * * * * * * * * * * * * * * * * * * * * * * * * * * * * * * * * * * * * //

dimensions      [0 1 -1 0 0 0 0];

internalField   nonuniform List<vector> 
3060
(
(6.08628e-06 0 -4.09061e-06)
(1.55786e-05 0 -3.95102e-06)
(2.48361e-05 0 -3.69327e-06)
(3.37252e-05 0 -3.32401e-06)
(4.21232e-05 0 -2.85403e-06)
(4.99213e-05 0 -2.30153e-06)
(5.70265e-05 0 -1.69506e-06)
(6.3362e-05 0 -1.07341e-06)
(6.8865e-05 0 -4.80049e-07)
(7.34774e-05 0 4.72234e-08)
(7.71305e-05 0 4.85547e-07)
(7.97264e-05 0 8.29546e-07)
(8.11231e-05 0 1.08687e-06)
(8.11274e-05 0 1.27042e-06)
(7.95247e-05 0 1.40701e-06)
(7.61228e-05 0 1.55913e-06)
(7.08616e-05 0 1.78383e-06)
(6.388e-05 0 2.04004e-06)
(5.55302e-05 0 2.20018e-06)
(4.6381e-05 0 2.18223e-06)
(3.7062e-05 0 2.0105e-06)
(2.81225e-05 0 1.73988e-06)
(1.99284e-05 0 1.44668e-06)
(1.25622e-05 0 1.20063e-06)
(5.8588e-06 0 1.04489e-06)
(-4.97082e-07 0 9.97465e-07)
(-6.88231e-06 0 1.06238e-06)
(-1.36689e-05 0 1.234e-06)
(-2.11553e-05 0 1.49105e-06)
(-2.94731e-05 0 1.78572e-06)
(-3.84946e-05 0 2.04557e-06)
(-4.78148e-05 0 2.19549e-06)
(-5.68637e-05 0 2.18467e-06)
(-6.50096e-05 0 2.00075e-06)
(-7.17091e-05 0 1.74196e-06)
(-7.66459e-05 0 1.52907e-06)
(-7.9711e-05 0 1.38309e-06)
(-8.09954e-05 0 1.23849e-06)
(-8.06986e-05 0 1.03956e-06)
(-7.90375e-05 0 7.63514e-07)
(-7.61974e-05 0 3.98057e-07)
(-7.23132e-05 0 -6.20873e-08)
(-6.74782e-05 0 -6.07843e-07)
(-6.17597e-05 0 -1.21245e-06)
(-5.52179e-05 0 -1.83568e-06)
(-4.79203e-05 0 -2.434e-06)
(-3.99487e-05 0 -2.97025e-06)
(-3.14016e-05 0 -3.41809e-06)
(-2.23925e-05 0 -3.76111e-06)
(-1.30479e-05 0 -3.98963e-06)
(-3.50502e-06 0 -4.09745e-06)
(6.09158e-06 0 -4.08046e-06)
(1.55949e-05 0 -3.93956e-06)
(2.4862e-05 0 -3.67943e-06)
(3.37585e-05 0 -3.30693e-06)
(4.21608e-05 0 -2.83324e-06)
(4.99595e-05 0 -2.27717e-06)
(5.70605e-05 0 -1.66806e-06)
(6.33862e-05 0 -1.04551e-06)
(6.88722e-05 0 -4.53255e-07)
(7.34579e-05 0 7.12589e-08)
(7.70709e-05 0 5.05993e-07)
(7.96079e-05 0 8.46354e-07)
(8.09211e-05 0 1.10045e-06)
(8.08117e-05 0 1.28145e-06)
(7.90652e-05 0 1.41877e-06)
(7.54954e-05 0 1.57854e-06)
(7.00635e-05 0 1.81131e-06)
(6.2932e-05 0 2.06355e-06)
(5.44813e-05 0 2.20603e-06)
(4.52966e-05 0 2.16908e-06)
(3.60064e-05 0 1.98313e-06)
(2.71459e-05 0 1.70629e-06)
(1.90521e-05 0 1.4154e-06)
(1.17764e-05 0 1.17799e-06)
(5.1319e-06 0 1.03398e-06)
(-1.20764e-06 0 9.99219e-07)
(-7.62144e-06 0 1.07665e-06)
(-1.44771e-05 0 1.25943e-06)
(-2.20595e-05 0 1.52374e-06)
(-3.0475e-05 0 1.81848e-06)
(-3.95641e-05 0 2.06976e-06)
(-4.8897e-05 0 2.20411e-06)
(-5.78926e-05 0 2.17322e-06)
(-6.59215e-05 0 1.97455e-06)
(-7.2463e-05 0 1.71588e-06)
(-7.72273e-05 0 1.51219e-06)
(-8.01289e-05 0 1.37225e-06)
(-8.12773e-05 0 1.22704e-06)
(-8.08749e-05 0 1.0251e-06)
(-7.91372e-05 0 7.45636e-07)
(-7.62435e-05 0 3.76447e-07)
(-7.23229e-05 0 -8.71969e-08)
(-6.74637e-05 0 -6.35375e-07)
(-6.17299e-05 0 -1.24058e-06)
(-5.51796e-05 0 -1.86239e-06)
(-4.78788e-05 0 -2.45773e-06)
(-3.99086e-05 0 -2.99025e-06)
(-3.13665e-05 0 -3.43441e-06)
(-2.23651e-05 0 -3.77435e-06)
(-1.30305e-05 0 -4.00071e-06)
(-3.49879e-06 0 -4.10748e-06)
(9.17744e-06 0 -1.6629e-05)
(2.35645e-05 0 -1.64177e-05)
(3.77866e-05 0 -1.603e-05)
(5.17503e-05 0 -1.5482e-05)
(6.53711e-05 0 -1.47916e-05)
(7.85702e-05 0 -1.39739e-05)
(9.12643e-05 0 -1.30343e-05)
(0.00010335 0 -1.19638e-05)
(0.000114686 0 -1.07354e-05)
(0.000125082 0 -9.30403e-06)
(0.000134293 0 -7.60448e-06)
(0.000142023 0 -5.55105e-06)
(0.000147917 0 -3.04125e-06)
(0.00015156 0 1.99832e-08)
(0.000152461 0 3.62149e-06)
(0.000150077 0 7.47594e-06)
(0.000143969 0 1.1054e-05)
(0.000133996 0 1.39322e-05)
(0.000120358 0 1.58915e-05)
(0.00010383 0 1.68644e-05)
(8.55959e-05 0 1.6854e-05)
(6.68507e-05 0 1.59853e-05)
(4.85629e-05 0 1.46688e-05)
(3.12042e-05 0 1.33883e-05)
(1.47347e-05 0 1.25106e-05)
(-1.23361e-06 0 1.22326e-05)
(-1.72431e-05 0 1.26081e-05)
(-3.38235e-05 0 1.35629e-05)
(-5.13216e-05 0 1.48739e-05)
(-6.97043e-05 0 1.61488e-05)
(-8.84141e-05 0 1.68997e-05)
(-0.000106424 0 1.67479e-05)
(-0.000122519 0 1.56102e-05)
(-0.000135554 0 1.34862e-05)
(-0.000144847 0 1.04632e-05)
(-0.000150268 0 6.78992e-06)
(-0.00015201 0 2.92758e-06)
(-0.000150547 0 -6.09559e-07)
(-0.000146423 0 -3.58665e-06)
(-0.000140116 0 -6.02229e-06)
(-0.000132033 0 -8.01666e-06)
(-0.000122521 0 -9.67042e-06)
(-0.000111871 0 -1.10659e-05)
(-0.000100318 0 -1.22649e-05)
(-8.80457e-05 0 -1.33093e-05)
(-7.51879e-05 0 -1.42229e-05)
(-6.18446e-05 0 -1.50118e-05)
(-4.80987e-05 0 -1.56684e-05)
(-3.40308e-05 0 -1.61769e-05)
(-1.97282e-05 0 -1.65196e-05)
(-5.28715e-06 0 -1.66819e-05)
(9.19124e-06 0 -1.66564e-05)
(2.36049e-05 0 -1.64444e-05)
(3.78532e-05 0 -1.60554e-05)
(5.18426e-05 0 -1.55051e-05)
(6.54878e-05 0 -1.48115e-05)
(7.87087e-05 0 -1.39886e-05)
(9.14195e-05 0 -1.3041e-05)
(0.000103513 0 -1.19579e-05)
(0.000114842 0 -1.07108e-05)
(0.000125211 0 -9.25241e-06)
(0.000134368 0 -7.51555e-06)
(0.000142007 0 -5.41243e-06)
(0.000147767 0 -2.83965e-06)
(0.000151224 0 2.93747e-07)
(0.000151876 0 3.95621e-06)
(0.000149177 0 7.82423e-06)
(0.000142717 0 1.13581e-05)
(0.000132382 0 1.41551e-05)
(0.000118428 0 1.60158e-05)
(0.000101692 0 1.68868e-05)
(8.3378e-05 0 1.67734e-05)
(6.46718e-05 0 1.58356e-05)
(4.64959e-05 0 1.45043e-05)
(2.92618e-05 0 1.32578e-05)
(1.28804e-05 0 1.24446e-05)
(-3.06273e-06 0 1.22434e-05)
(-1.91162e-05 0 1.26937e-05)
(-3.57984e-05 0 1.37066e-05)
(-5.34235e-05 0 1.504e-05)
(-7.19041e-05 0 1.62847e-05)
(-9.06234e-05 0 1.69543e-05)
(-0.00010852 0 1.66983e-05)
(-0.000124373 0 1.54586e-05)
(-0.000137072 0 1.3239e-05)
(-0.000146002 0 1.01425e-05)
(-0.000151077 0 6.43843e-06)
(-0.00015252 0 2.60527e-06)
(-0.000150826 0 -8.64646e-07)
(-0.000146529 0 -3.77073e-06)
(-0.000140101 0 -6.14682e-06)
(-0.000131937 0 -8.09499e-06)
(-0.000122378 0 -9.71443e-06)
(-0.000111706 0 -1.10853e-05)
(-0.000100151 0 -1.22673e-05)
(-8.78892e-05 0 -1.33006e-05)
(-7.50496e-05 0 -1.42069e-05)
(-6.17287e-05 0 -1.49913e-05)
(-4.80074e-05 0 -1.56449e-05)
(-3.39652e-05 0 -1.61514e-05)
(-1.96889e-05 0 -1.64927e-05)
(-5.27437e-06 0 -1.66545e-05)
(1.02869e-05 0 -3.16299e-05)
(2.64022e-05 0 -3.12933e-05)
(4.23011e-05 0 -3.06713e-05)
(5.78524e-05 0 -2.9782e-05)
(7.29249e-05 0 -2.86445e-05)
(8.73848e-05 0 -2.72705e-05)
(0.000101093 0 -2.56567e-05)
(0.000113902 0 -2.37785e-05)
(0.000125656 0 -2.15894e-05)
(0.000136194 0 -1.90235e-05)
(0.000145354 0 -1.60006e-05)
(0.000152985 0 -1.24296e-05)
(0.000158958 0 -8.21645e-06)
(0.000163174 0 -3.27574e-06)
(0.000165556 0 2.46785e-06)
(0.000165924 0 9.09692e-06)
(0.000163711 0 1.6616e-05)
(0.000157928 0 2.45533e-05)
(0.000147618 0 3.15773e-05)
(0.00013229 0 3.62041e-05)
(0.000112644 0 3.81916e-05)
(9.02699e-05 0 3.79871e-05)
(6.68819e-05 0 3.63551e-05)
(4.35868e-05 0 3.43398e-05)
(2.07651e-05 0 3.28294e-05)
(-1.7187e-06 0 3.23331e-05)
(-2.42281e-05 0 3.2995e-05)
(-4.71086e-05 0 3.46168e-05)
(-7.04344e-05 0 3.66265e-05)
(-9.37185e-05 0 3.80872e-05)
(-0.00011574 0 3.79729e-05)
(-0.000134739 0 3.55692e-05)
(-0.000149224 0 3.04908e-05)
(-0.000158692 0 2.31838e-05)
(-0.000163766 0 1.52282e-05)
(-0.000165435 0 7.82244e-06)
(-0.000164647 0 1.32418e-06)
(-0.000161887 0 -4.30077e-06)
(-0.000157301 0 -9.13213e-06)
(-0.000150966 0 -1.32457e-05)
(-0.000142987 0 -1.67286e-05)
(-0.0001335 0 -1.9675e-05)
(-0.00012266 0 -2.21745e-05)
(-0.000110631 0 -2.43055e-05)
(-9.75756e-05 0 -2.6131e-05)
(-8.36503e-05 0 -2.76938e-05)
(-6.90026e-05 0 -2.90146e-05)
(-5.37723e-05 0 -3.00935e-05)
(-3.80941e-05 0 -3.09169e-05)
(-2.21008e-05 0 -3.1466e-05)
(-5.92513e-06 0 -3.17245e-05)
(1.02994e-05 0 -3.1684e-05)
(2.6439e-05 0 -3.13459e-05)
(4.23603e-05 0 -3.0721e-05)
(5.79308e-05 0 -2.98268e-05)
(7.30173e-05 0 -2.86818e-05)
(8.74841e-05 0 -2.72964e-05)
(0.00010119 0 -2.56656e-05)
(0.000113983 0 -2.37627e-05)
(0.000125708 0 -2.1539e-05)
(0.000136199 0 -1.8927e-05)
(0.000145293 0 -1.58447e-05)
(0.00015284 0 -1.22005e-05)
(0.000158711 0 -7.90087e-06)
(0.000162811 0 -2.86231e-06)
(0.000165059 0 2.98949e-06)
(0.000165253 0 9.7364e-06)
(0.000162769 0 1.73559e-05)
(0.0001566 0 2.52919e-05)
(0.000145804 0 3.21291e-05)
(0.000129997 0 3.64726e-05)
(0.000110008 0 3.8203e-05)
(8.74866e-05 0 3.78083e-05)
(6.41015e-05 0 3.60937e-05)
(4.08766e-05 0 3.41099e-05)
(1.81198e-05 0 3.27079e-05)
(-4.34409e-06 0 3.23531e-05)
(-2.6888e-05 0 3.31513e-05)
(-4.98404e-05 0 3.48652e-05)
(-7.32267e-05 0 3.68779e-05)
(-9.64804e-05 0 3.82226e-05)
(-0.000118301 0 3.78976e-05)
(-0.000136912 0 3.52251e-05)
(-0.0001509 0 2.98702e-05)
(-0.000159904 0 2.24279e-05)
(-0.00016462 0 1.45089e-05)
(-0.000166049 0 7.21391e-06)
(-0.000165103 0 8.31753e-07)
(-0.000162214 0 -4.68784e-06)
(-0.000157515 0 -9.42419e-06)
(-0.000151083 0 -1.34547e-05)
(-0.000143025 0 -1.68681e-05)
(-0.000133477 0 -1.97588e-05)
(-0.000122594 0 -2.22154e-05)
(-0.000110539 0 -2.43146e-05)
(-9.74715e-05 0 -2.61176e-05)
(-8.35459e-05 0 -2.76651e-05)
(-6.8907e-05 0 -2.89756e-05)
(-5.3692e-05 0 -3.00477e-05)
(-3.80339e-05 0 -3.08666e-05)
(-2.20635e-05 0 -3.1413e-05)
(-5.91248e-06 0 -3.16703e-05)
(1.07648e-05 0 -4.83464e-05)
(2.76093e-05 0 -4.78261e-05)
(4.41761e-05 0 -4.68597e-05)
(6.02967e-05 0 -4.54658e-05)
(7.58039e-05 0 -4.36632e-05)
(9.05319e-05 0 -4.14637e-05)
(0.000104317 0 -3.88653e-05)
(0.000117002 0 -3.58491e-05)
(0.000128435 0 -3.2379e-05)
(0.000138477 0 -2.84055e-05)
(0.000147004 0 -2.38697e-05)
(0.000153908 0 -1.87058e-05)
(0.000159102 0 -1.28416e-05)
(0.000162516 0 -6.19127e-06)
(0.000164079 0 1.37057e-06)
(0.000163714 0 1.0027e-05)
(0.000161334 0 1.98835e-05)
(0.000156822 0 3.06846e-05)
(0.000149769 0 4.17723e-05)
(0.000138969 0 5.19906e-05)
(0.000122879 0 5.91682e-05)
(0.000101621 0 6.19394e-05)
(7.69592e-05 0 6.14741e-05)
(5.08684e-05 0 5.961e-05)
(2.44385e-05 0 5.79184e-05)
(-2.00106e-06 0 5.73272e-05)
(-2.84357e-05 0 5.81004e-05)
(-5.48273e-05 0 5.98752e-05)
(-8.07584e-05 0 6.1612e-05)
(-0.000104986 0 6.16649e-05)
(-0.000125473 0 5.82094e-05)
(-0.000140621 0 5.03632e-05)
(-0.000150659 0 3.9865e-05)
(-0.000157195 0 2.8741e-05)
(-0.000161295 0 1.80326e-05)
(-0.000163281 0 8.34172e-06)
(-0.00016326 0 -1.47573e-07)
(-0.000161317 0 -7.5725e-06)
(-0.000157529 0 -1.41082e-05)
(-0.000151965 0 -1.98701e-05)
(-0.000144699 0 -2.49394e-05)
(-0.000135822 0 -2.93865e-05)
(-0.000125447 0 -3.32756e-05)
(-0.000113702 0 -3.66644e-05)
(-0.000100732 0 -3.96004e-05)
(-8.66911e-05 0 -4.21166e-05)
(-7.17407e-05 0 -4.4229e-05)
(-5.60472e-05 0 -4.59367e-05)
(-3.97791e-05 0 -4.72266e-05)
(-2.31059e-05 0 -4.808e-05)
(-6.19813e-06 0 -4.84801e-05)
(1.07725e-05 0 -4.84175e-05)
(2.76338e-05 0 -4.78938e-05)
(4.42145e-05 0 -4.69208e-05)
(6.03442e-05 0 -4.55164e-05)
(7.58536e-05 0 -4.36985e-05)
(9.05748e-05 0 -4.14777e-05)
(0.000104343 0 -3.88504e-05)
(0.000116996 0 -3.5796e-05)
(0.000128385 0 -3.22771e-05)
(0.000138368 0 -2.82431e-05)
(0.000146819 0 -2.36343e-05)
(0.000153634 0 -1.83848e-05)
(0.000158725 0 -1.24225e-05)
(0.000162021 0 -5.66011e-06)
(0.000163453 0 2.03255e-06)
(0.000162941 0 1.08403e-05)
(0.000160396 0 2.08432e-05)
(0.000155692 0 3.17374e-05)
(0.000148353 0 4.28247e-05)
(0.000137081 0 5.28539e-05)
(0.000120414 0 5.95745e-05)
(9.87164e-05 0 6.19219e-05)
(7.38466e-05 0 6.12326e-05)
(4.77109e-05 0 5.93437e-05)
(2.12904e-05 0 5.77675e-05)
(-5.1432e-06 0 5.73526e-05)
(-3.15876e-05 0 5.82925e-05)
(-5.79821e-05 0 6.01526e-05)
(-8.38366e-05 0 6.18138e-05)
(-0.000107793 0 6.15846e-05)
(-0.000127787 0 5.76665e-05)
(-0.00014236 0 4.94208e-05)
(-0.000151981 0 3.87987e-05)
(-0.000158266 0 2.77044e-05)
(-0.000162184 0 1.71077e-05)
(-0.00016401 0 7.56912e-06)
(-0.000163846 0 -7.73305e-07)
(-0.000161775 0 -8.07308e-06)
(-0.000157874 0 -1.45008e-05)
(-0.000152209 0 -2.01681e-05)
(-0.000144857 0 -2.51553e-05)
(-0.000135909 0 -2.95328e-05)
(-0.000125478 0 -3.33646e-05)
(-0.000113692 0 -3.67075e-05)
(-0.000100695 0 -3.96079e-05)
(-8.6639e-05 0 -4.20973e-05)
(-7.16841e-05 0 -4.419e-05)
(-5.59946e-05 0 -4.58837e-05)
(-3.97369e-05 0 -4.7164e-05)
(-2.30784e-05 0 -4.80114e-05)
(-6.18786e-06 0 -4.84087e-05)
(1.08625e-05 0 -6.55882e-05)
(2.78436e-05 0 -6.48612e-05)
(4.45015e-05 0 -6.35073e-05)
(6.0642e-05 0 -6.15468e-05)
(7.60753e-05 0 -5.90013e-05)
(9.06179e-05 0 -5.58863e-05)
(0.000104096 0 -5.22059e-05)
(0.000116347 0 -4.79492e-05)
(0.000127224 0 -4.30909e-05)
(0.000136598 0 -3.75939e-05)
(0.000144357 0 -3.14138e-05)
(0.000150403 0 -2.45011e-05)
(0.000154657 0 -1.68018e-05)
(0.000157049 0 -8.25152e-06)
(0.000157527 0 1.23703e-06)
(0.000156079 0 1.17742e-05)
(0.000152771 0 2.34245e-05)
(0.000147681 0 3.61136e-05)
(0.00014076 0 4.96154e-05)
(0.000131743 0 6.32755e-05)
(0.000119693 0 7.55481e-05)
(0.000102738 0 8.40306e-05)
(8.01641e-05 0 8.71915e-05)
(5.39815e-05 0 8.68829e-05)
(2.61973e-05 0 8.57011e-05)
(-2.12591e-06 0 8.52044e-05)
(-3.04e-05 0 8.58252e-05)
(-5.80033e-05 0 8.69681e-05)
(-8.37421e-05 0 8.68836e-05)
(-0.000105493 0 8.29089e-05)
(-0.000121505 0 7.36232e-05)
(-0.000132928 0 6.09634e-05)
(-0.000141531 0 4.72207e-05)
(-0.000148099 0 3.37942e-05)
(-0.000152849 0 2.12302e-05)
(-0.000155802 0 9.72693e-06)
(-0.000156871 0 -6.65005e-07)
(-0.000156006 0 -1.00244e-05)
(-0.000153225 0 -1.84585e-05)
(-0.000148587 0 -2.60487e-05)
(-0.000142163 0 -3.28557e-05)
(-0.000134037 0 -3.89316e-05)
(-0.000124311 0 -4.43244e-05)
(-0.0001131 0 -4.90772e-05)
(-0.000100541 0 -5.3225e-05)
(-8.67854e-05 0 -5.67906e-05)
(-7.20001e-05 0 -5.97821e-05)
(-5.63641e-05 0 -6.21933e-05)
(-4.00645e-05 0 -6.40073e-05)
(-2.32947e-05 0 -6.52033e-05)
(-6.25179e-06 0 -6.57627e-05)
(1.08643e-05 0 -6.56752e-05)
(2.78531e-05 0 -6.49426e-05)
(4.45153e-05 0 -6.35778e-05)
(6.06546e-05 0 -6.16007e-05)
(7.60792e-05 0 -5.90316e-05)
(9.06038e-05 0 -5.5885e-05)
(0.000104052 0 -5.21636e-05)
(0.000116262 0 -4.78551e-05)
(0.000127084 0 -4.29331e-05)
(0.000136389 0 -3.736e-05)
(0.000144064 0 -3.10912e-05)
(0.000150014 0 -2.40777e-05)
(0.000154157 0 -1.62657e-05)
(0.000156425 0 -7.5908e-06)
(0.000156768 0 2.03598e-06)
(0.000155181 0 1.27238e-05)
(0.000151736 0 2.45249e-05)
(0.000146504 0 3.73479e-05)
(0.000139419 0 5.09425e-05)
(0.000130174 0 6.45688e-05)
(0.00011772 0 7.65785e-05)
(0.000100143 0 8.45067e-05)
(7.7076e-05 0 8.71732e-05)
(5.06587e-05 0 8.66848e-05)
(2.27936e-05 0 8.55633e-05)
(-5.54603e-06 0 8.52284e-05)
(-3.37902e-05 0 8.59955e-05)
(-6.12833e-05 0 8.71478e-05)
(-8.67238e-05 0 8.67972e-05)
(-0.000107915 0 8.22645e-05)
(-0.000123344 0 7.24922e-05)
(-0.000134422 0 5.96414e-05)
(-0.000142823 0 4.59097e-05)
(-0.000149234 0 3.2592e-05)
(-0.000153845 0 2.01679e-05)
(-0.00015666 0 8.81721e-06)
(-0.00015759 0 -1.42665e-06)
(-0.000156592 0 -1.06517e-05)
(-0.000153691 0 -1.89646e-05)
(-0.000148945 0 -2.64455e-05)
(-0.000142427 0 -3.3155e-05)
(-0.000134222 0 -3.91456e-05)
(-0.00012443 0 -4.44657e-05)
(-0.000113167 0 -4.91581e-05)
(-0.000100569 0 -5.3257e-05)
(-8.67872e-05 0 -5.67841e-05)
(-7.19861e-05 0 -5.97461e-05)
(-5.63433e-05 0 -6.21354e-05)
(-4.0044e-05 0 -6.3934e-05)
(-2.32794e-05 0 -6.51203e-05)
(-6.24468e-06 0 -6.56752e-05)
(1.06616e-05 0 -8.25456e-05)
(2.73147e-05 0 -8.15796e-05)
(4.36133e-05 0 -7.97791e-05)
(5.93464e-05 0 -7.71697e-05)
(7.43108e-05 0 -7.37804e-05)
(8.83136e-05 0 -6.96376e-05)
(0.000101176 0 -6.47593e-05)
(0.000112737 0 -5.9152e-05)
(0.000122854 0 -5.28095e-05)
(0.000131405 0 -4.57145e-05)
(0.000138288 0 -3.78405e-05)
(0.000143418 0 -2.91536e-05)
(0.000146728 0 -1.96125e-05)
(0.000148164 0 -9.16659e-06)
(0.000147698 0 2.24485e-06)
(0.000145343 0 1.4679e-05)
(0.000141171 0 2.81353e-05)
(0.000135292 0 4.24992e-05)
(0.000127807 0 5.75624e-05)
(0.000118764 0 7.30228e-05)
(0.000107973 0 8.82189e-05)
(9.44698e-05 0 0.00010148)
(7.63391e-05 0 0.000110251)
(5.28313e-05 0 0.00011363)
(2.60261e-05 0 0.000114076)
(-2.09844e-06 0 0.000113972)
(-3.01097e-05 0 0.000114028)
(-5.65343e-05 0 0.00011327)
(-7.92713e-05 0 0.000109114)
(-9.6521e-05 0 9.94477e-05)
(-0.00010945 0 8.56844e-05)
(-0.000119894 0 7.03367e-05)
(-0.000128644 0 5.48738e-05)
(-0.00013583 0 3.98682e-05)
(-0.000141387 0 2.5599e-05)
(-0.000145211 0 1.22638e-05)
(-0.000147197 0 -4.12407e-08)
(-0.000147279 0 -1.13288e-05)
(-0.000145454 0 -2.16574e-05)
(-0.000141757 0 -3.1085e-05)
(-0.000136244 0 -3.96588e-05)
(-0.000128987 0 -4.74175e-05)
(-0.000120074 0 -5.43926e-05)
(-0.000109614 0 -6.06083e-05)
(-9.77344e-05 0 -6.60796e-05)
(-8.45829e-05 0 -7.081e-05)
(-7.03274e-05 0 -7.47907e-05)
(-5.51524e-05 0 -7.80021e-05)
(-3.92554e-05 0 -8.04172e-05)
(-2.28442e-05 0 -8.20082e-05)
(-6.13355e-06 0 -8.27518e-05)
(1.06575e-05 0 -8.26355e-05)
(2.73087e-05 0 -8.16615e-05)
(4.36021e-05 0 -7.98456e-05)
(5.93244e-05 0 -7.72127e-05)
(7.42702e-05 0 -7.37913e-05)
(8.82452e-05 0 -6.96066e-05)
(0.000101069 0 -6.46757e-05)
(0.00011258 0 -5.90041e-05)
(0.000122634 0 -5.2585e-05)
(0.000131109 0 -4.54007e-05)
(0.000137903 0 -3.7425e-05)
(0.000142933 0 -2.86243e-05)
(0.000146129 0 -1.8958e-05)
(0.000147441 0 -8.37621e-06)
(0.000146842 0 3.18086e-06)
(0.000144351 0 1.57662e-05)
(0.000140048 0 2.9368e-05)
(0.000134041 0 4.38583e-05)
(0.00012643 0 5.90203e-05)
(0.00011725 0 7.45304e-05)
(0.000106261 0 8.96527e-05)
(9.23702e-05 0 0.000102573)
(7.36345e-05 0 0.000110742)
(4.96494e-05 0 0.00011368)
(2.26281e-05 0 0.000114022)
(-5.54765e-06 0 0.000113984)
(-3.34676e-05 0 0.00011408)
(-5.96165e-05 0 0.000113137)
(-8.18033e-05 0 0.000108453)
(-9.8491e-05 0 9.82318e-05)
(-0.000111095 0 8.42083e-05)
(-0.000121367 0 6.88335e-05)
(-0.000129985 0 5.34377e-05)
(-0.000137046 0 3.85391e-05)
(-0.000142474 0 2.44025e-05)
(-0.000146164 0 1.12158e-05)
(-0.000148014 0 -9.38749e-07)
(-0.000147965 0 -1.20833e-05)
(-0.000146018 0 -2.22791e-05)
(-0.000142211 0 -3.15848e-05)
(-0.000136599 0 -4.00481e-05)
(-0.000129256 0 -4.77083e-05)
(-0.000120271 0 -5.45975e-05)
(-0.000109751 0 -6.07399e-05)
(-9.78238e-05 0 -6.615e-05)
(-8.46363e-05 0 -7.08306e-05)
(-7.03553e-05 0 -7.47719e-05)
(-5.51637e-05 0 -7.79532e-05)
(-3.92572e-05 0 -8.03468e-05)
(-2.28417e-05 0 -8.19239e-05)
(-6.12984e-06 0 -8.26611e-05)
(1.0216e-05 0 -9.90094e-05)
(2.61606e-05 0 -9.77887e-05)
(4.17327e-05 0 -9.55135e-05)
(5.67121e-05 0 -9.22168e-05)
(7.08892e-05 0 -8.79385e-05)
(8.40685e-05 0 -8.27193e-05)
(9.6072e-05 0 -7.65945e-05)
(0.000106742 0 -6.95906e-05)
(0.000115944 0 -6.17224e-05)
(0.000123563 0 -5.29935e-05)
(0.00012951 0 -4.33971e-05)
(0.000133711 0 -3.29173e-05)
(0.000136113 0 -2.1531e-05)
(0.000136684 0 -9.21012e-06)
(0.000135415 0 4.07244e-06)
(0.000132338 0 1.83271e-05)
(0.000127529 0 3.35129e-05)
(0.000121095 0 4.95068e-05)
(0.00011315 0 6.61041e-05)
(0.000103806 0 8.30084e-05)
(9.313e-05 0 9.97827e-05)
(8.09457e-05 0 0.000115638)
(6.61825e-05 0 0.000128835)
(4.71124e-05 0 0.000137163)
(2.36744e-05 0 0.000140664)
(-1.89789e-06 0 0.000141402)
(-2.72903e-05 0 0.000140282)
(-5.01557e-05 0 0.000136098)
(-6.84506e-05 0 0.000126875)
(-8.26689e-05 0 0.000113056)
(-9.45479e-05 0 9.69308e-05)
(-0.000104978 0 8.00567e-05)
(-0.000114065 0 6.31328e-05)
(-0.000121731 0 4.65702e-05)
(-0.000127859 0 3.0648e-05)
(-0.000132336 0 1.55594e-05)
(-0.000135058 0 1.41458e-06)
(-0.000135957 0 -1.17548e-05)
(-0.000135008 0 -2.39621e-05)
(-0.000132225 0 -3.52335e-05)
(-0.000127646 0 -4.55948e-05)
(-0.000121328 0 -5.5066e-05)
(-0.000113348 0 -6.366e-05)
(-0.000103803 0 -7.13808e-05)
(-9.28122e-05 0 -7.82218e-05)
(-8.05178e-05 0 -8.41653e-05)
(-6.7084e-05 0 -8.91829e-05)
(-5.26951e-05 0 -9.32379e-05)
(-3.75525e-05 0 -9.62899e-05)
(-2.18709e-05 0 -9.83007e-05)
(-5.87465e-06 0 -9.92406e-05)
(1.02062e-05 0 -9.90936e-05)
(2.61401e-05 0 -9.78626e-05)
(4.1698e-05 0 -9.55674e-05)
(5.66578e-05 0 -9.22407e-05)
(7.08081e-05 0 -8.7922e-05)
(8.39518e-05 0 -8.26511e-05)
(9.59097e-05 0 -7.64628e-05)
(0.000106523 0 -6.93828e-05)
(0.000115657 0 -6.14258e-05)
(0.000123197 0 -5.25953e-05)
(0.000129052 0 -4.2885e-05)
(0.000133151 0 -3.22797e-05)
(0.000135441 0 -2.07577e-05)
(0.000135891 0 -8.29264e-06)
(0.000134496 0 5.13994e-06)
(0.000131291 0 1.95453e-05)
(0.000126357 0 3.48732e-05)
(0.000119802 0 5.09902e-05)
(0.000111742 0 6.76824e-05)
(0.000102287 0 8.46392e-05)
(9.14932e-05 0 0.000101404)
(7.91224e-05 0 0.000117112)
(6.3975e-05 0 0.000129896)
(4.43675e-05 0 0.00013766)
(2.05726e-05 0 0.000140801)
(-5.08839e-06 0 0.000141385)
(-3.03236e-05 0 0.000140076)
(-5.27573e-05 0 0.000135456)
(-7.05313e-05 0 0.000125675)
(-8.44258e-05 0 0.00011152)
(-9.6149e-05 0 9.52967e-05)
(-0.000106466 0 7.84334e-05)
(-0.000115441 0 6.15749e-05)
(-0.00012299 0 4.51157e-05)
(-0.000128996 0 2.93228e-05)
(-0.000133347 0 1.43797e-05)
(-0.000135941 0 3.85956e-07)
(-0.000136713 0 -1.26348e-05)
(-0.000135645 0 -2.47003e-05)
(-0.000132753 0 -3.58389e-05)
(-0.000128074 0 -4.60778e-05)
(-0.000121668 0 -5.54384e-05)
(-0.000113611 0 -6.39343e-05)
(-0.000104 0 -7.15696e-05)
(-9.29553e-05 0 -7.83378e-05)
(-8.06176e-05 0 -8.42208e-05)
(-6.71503e-05 0 -8.91895e-05)
(-5.27364e-05 0 -9.32065e-05)
(-3.75756e-05 0 -9.62308e-05)
(-2.18808e-05 0 -9.82238e-05)
(-5.87427e-06 0 -9.91553e-05)
(9.57226e-06 0 -0.000114587)
(2.45007e-05 0 -0.000113103)
(3.90498e-05 0 -0.000110338)
(5.2997e-05 0 -0.000106334)
(6.61324e-05 0 -0.000101145)
(7.82627e-05 0 -9.48288e-05)
(8.92149e-05 0 -8.74418e-05)
(9.88387e-05 0 -7.90325e-05)
(0.000107008 0 -6.96394e-05)
(0.000113621 0 -5.9289e-05)
(0.000118598 0 -4.79957e-05)
(0.000121883 0 -3.57642e-05)
(0.000123439 0 -2.25918e-05)
(0.000123251 0 -8.47401e-06)
(0.00012133 0 6.58599e-06)
(0.00011772 0 2.25611e-05)
(0.000112498 0 3.93751e-05)
(0.00010577 0 5.68844e-05)
(9.76547e-05 0 7.48773e-05)
(8.8277e-05 0 9.30722e-05)
(7.77509e-05 0 0.000111099)
(6.61534e-05 0 0.000128416)
(5.32502e-05 0 0.000144018)
(3.79749e-05 0 0.000156091)
(1.9365e-05 0 0.000163032)
(-1.53723e-06 0 0.000164935)
(-2.22317e-05 0 0.000162225)
(-4.03166e-05 0 0.000154384)
(-5.5116e-05 0 0.000141564)
(-6.77444e-05 0 0.000125543)
(-7.91475e-05 0 0.000108016)
(-8.94661e-05 0 8.98842e-05)
(-9.86132e-05 0 7.16489e-05)
(-0.000106471 0 5.36644e-05)
(-0.000112915 0 3.62004e-05)
(-0.000117827 0 1.94595e-05)
(-0.000121105 0 3.57514e-06)
(-0.000122678 0 -1.13841e-05)
(-0.000122508 0 -2.53949e-05)
(-0.000120589 0 -3.8454e-05)
(-0.000116939 0 -5.0564e-05)
(-0.000111602 0 -6.17242e-05)
(-0.000104638 0 -7.19267e-05)
(-9.61328e-05 0 -8.11532e-05)
(-8.61947e-05 0 -8.93736e-05)
(-7.49569e-05 0 -9.65466e-05)
(-6.25767e-05 0 -0.000102621)
(-4.9234e-05 0 -0.000107541)
(-3.51284e-05 0 -0.000111248)
(-2.04754e-05 0 -0.000113693)
(-5.50203e-06 0 -0.000114836)
(9.55749e-06 0 -0.000114657)
(2.44672e-05 0 -0.00011316)
(3.89945e-05 0 -0.00011037)
(5.29149e-05 0 -0.00010633)
(6.60167e-05 0 -0.000101093)
(7.81054e-05 0 -9.47166e-05)
(8.90069e-05 0 -8.72561e-05)
(9.85704e-05 0 -7.87602e-05)
(0.000106669 0 -6.92675e-05)
(0.000113202 0 -5.88047e-05)
(0.000118089 0 -4.73872e-05)
(0.000121274 0 -3.50206e-05)
(0.000122722 0 -2.17042e-05)
(0.00012242 0 -7.43597e-06)
(0.000120381 0 7.77695e-06)
(0.000116653 0 2.39016e-05)
(0.000111317 0 4.08536e-05)
(0.000104479 0 5.84805e-05)
(9.62604e-05 0 7.65623e-05)
(8.67861e-05 0 9.48082e-05)
(7.61676e-05 0 0.000112837)
(6.44723e-05 0 0.000130073)
(5.13869e-05 0 0.000145432)
(3.57705e-05 0 0.000157032)
(1.68079e-05 0 0.000163431)
(-4.2013e-06 0 0.000164876)
(-2.471e-05 0 0.000161686)
(-4.24156e-05 0 0.000153297)
(-5.69139e-05 0 0.000140062)
(-6.93947e-05 0 0.000123852)
(-8.07051e-05 0 0.000106271)
(-9.09305e-05 0 8.81561e-05)
(-9.99793e-05 0 6.99829e-05)
(-0.000107732 0 5.20957e-05)
(-0.000114064 0 3.47555e-05)
(-0.00011886 0 1.81565e-05)
(-0.00012202 0 2.42307e-06)
(-0.000123475 0 -1.23838e-05)
(-0.000123192 0 -2.62459e-05)
(-0.000121167 0 -3.91634e-05)
(-0.00011742 0 -5.11412e-05)
(-0.000111994 0 -6.21804e-05)
(-0.000104952 0 -7.22739e-05)
(-9.63786e-05 0 -8.14041e-05)
(-8.63823e-05 0 -8.95412e-05)
(-7.50959e-05 0 -9.66439e-05)
(-6.2676e-05 0 -0.000102661)
(-4.93014e-05 0 -0.000107535)
(-3.51702e-05 0 -0.000111209)
(-2.04962e-05 0 -0.000113632)
(-5.50469e-06 0 -0.000114765)
(8.76807e-06 0 -0.000129014)
(2.24316e-05 0 -0.000127266)
(3.57191e-05 0 -0.000124009)
(4.84112e-05 0 -0.000119298)
(6.03029e-05 0 -0.000113203)
(7.12077e-05 0 -0.0001058)
(8.09611e-05 0 -9.71689e-05)
(8.94234e-05 0 -8.73819e-05)
(9.648e-05 0 -7.65026e-05)
(0.000102042 0 -6.45819e-05)
(0.000106045 0 -5.16576e-05)
(0.000108449 0 -3.77564e-05)
(0.000109233 0 -2.28976e-05)
(0.000108401 0 -7.10064e-06)
(0.000105982 0 9.60423e-06)
(0.00010203 0 2.71596e-05)
(9.66296e-05 0 4.54616e-05)
(8.98869e-05 0 6.43475e-05)
(8.19241e-05 0 8.35918e-05)
(7.28768e-05 0 0.000102906)
(6.28879e-05 0 0.000121932)
(5.21048e-05 0 0.000140211)
(4.06412e-05 0 0.000156999)
(2.82279e-05 0 0.000170933)
(1.42472e-05 0 0.000180053)
(-1.10336e-06 0 0.000182862)
(-1.63144e-05 0 0.000178941)
(-3.00195e-05 0 0.000168874)
(-4.22302e-05 0 0.00015431)
(-5.35668e-05 0 0.000137159)
(-6.42118e-05 0 0.000118669)
(-7.40319e-05 0 9.95152e-05)
(-8.28811e-05 0 8.01331e-05)
(-9.0617e-05 0 6.08695e-05)
(-9.71056e-05 0 4.20031e-05)
(-0.000102227 0 2.37507e-05)
(-0.000105877 0 6.26673e-06)
(-0.000107978 0 -1.03516e-05)
(-0.000108478 0 -2.60507e-05)
(-0.000107355 0 -4.08005e-05)
(-0.000104609 0 -5.45797e-05)
(-0.000100265 0 -6.73655e-05)
(-9.43688e-05 0 -7.91271e-05)
(-8.69912e-05 0 -8.98222e-05)
(-7.82278e-05 0 -9.9396e-05)
(-6.82001e-05 0 -0.000107782)
(-5.70555e-05 0 -0.000114905)
(-4.49653e-05 0 -0.000120685)
(-3.21228e-05 0 -0.000125048)
(-1.87389e-05 0 -0.000127926)
(-5.03756e-06 0 -0.000129273)
(8.74925e-06 0 -0.000129062)
(2.23875e-05 0 -0.000127299)
(3.5647e-05 0 -0.000124014)
(4.83066e-05 0 -0.000119262)
(6.01597e-05 0 -0.000113111)
(7.10189e-05 0 -0.00010564)
(8.07188e-05 0 -9.6926e-05)
(8.91191e-05 0 -8.70432e-05)
(9.61052e-05 0 -7.6055e-05)
(0.000101588 0 -6.40128e-05)
(0.000105505 0 -5.09557e-05)
(0.000107814 0 -3.69119e-05)
(0.000108498 0 -2.1903e-05)
(0.000107563 0 -5.95151e-06)
(0.000105037 0 1.09076e-05)
(0.000100981 0 2.86107e-05)
(9.54795e-05 0 4.70465e-05)
(8.86415e-05 0 6.60437e-05)
(8.05912e-05 0 8.53693e-05)
(7.14656e-05 0 0.000104727)
(6.14077e-05 0 0.00012375)
(5.0567e-05 0 0.000141962)
(3.90375e-05 0 0.000158568)
(2.64854e-05 0 0.000172121)
(1.23155e-05 0 0.000180648)
(-3.10882e-06 0 0.000182767)
(-1.81979e-05 0 0.00017817)
(-3.17149e-05 0 0.000167559)
(-4.38108e-05 0 0.000152675)
(-5.50891e-05 0 0.00013538)
(-6.56735e-05 0 0.000116844)
(-7.54221e-05 0 9.77002e-05)
(-8.41902e-05 0 7.83722e-05)
(-9.18363e-05 0 5.91986e-05)
(-9.82278e-05 0 4.04503e-05)
(-0.000103246 0 2.2336e-05)
(-0.000106791 0 5.00192e-06)
(-0.000108786 0 -1.1462e-05)
(-0.000109183 0 -2.70077e-05)
(-0.000107961 0 -4.16094e-05)
(-0.000105122 0 -5.52486e-05)
(-0.000100693 0 -6.79045e-05)
(-9.47193e-05 0 -7.9548e-05)
(-8.7273e-05 0 -9.01375e-05)
(-7.84495e-05 0 -9.96189e-05)
(-6.837e-05 0 -0.000107926)
(-5.71814e-05 0 -0.000114983)
(-4.50541e-05 0 -0.000120711)
(-3.21802e-05 0 -0.000125035)
(-1.87689e-05 0 -0.000127889)
(-5.04283e-06 0 -0.000129223)
(7.83448e-06 0 -0.000142063)
(2.00327e-05 0 -0.000140055)
(3.18673e-05 0 -0.000136318)
(4.31272e-05 0 -0.000130919)
(5.36168e-05 0 -0.000123942)
(6.31603e-05 0 -0.000115488)
(7.16053e-05 0 -0.000105659)
(7.88248e-05 0 -9.45525e-05)
(8.47186e-05 0 -8.22593e-05)
(8.92126e-05 0 -6.88554e-05)
(9.22582e-05 0 -5.44031e-05)
(9.3831e-05 0 -3.89523e-05)
(9.39293e-05 0 -2.2545e-05)
(9.25745e-05 0 -5.22382e-06)
(8.98108e-05 0 1.29563e-05)
(8.57068e-05 0 3.19124e-05)
(8.0355e-05 0 5.1517e-05)
(7.38687e-05 0 7.15883e-05)
(6.6379e-05 0 9.18844e-05)
(5.80351e-05 0 0.000112101)
(4.90062e-05 0 0.000131865)
(3.94877e-05 0 0.000150708)
(2.9713e-05 0 0.000167959)
(1.98299e-05 0 0.000182436)
(9.7106e-06 0 0.000192242)
(-7.17247e-07 0 0.000195369)
(-1.11087e-05 0 0.000191023)
(-2.11717e-05 0 0.00018027)
(-3.10256e-05 0 0.000165183)
(-4.076e-05 0 0.000147558)
(-5.01954e-05 0 0.000128472)
(-5.9102e-05 0 0.000108547)
(-6.72894e-05 0 8.82315e-05)
(-7.45916e-05 0 6.78873e-05)
(-8.08621e-05 0 4.78092e-05)
(-8.59724e-05 0 2.82305e-05)
(-8.98123e-05 0 9.32558e-06)
(-9.22931e-05 0 -8.78402e-06)
(-9.33502e-05 0 -2.60187e-05)
(-9.29437e-05 0 -4.2324e-05)
(-9.1057e-05 0 -5.76549e-05)
(-8.76965e-05 0 -7.19657e-05)
(-8.28921e-05 0 -8.52016e-05)
(-7.66987e-05 0 -9.72953e-05)
(-6.91969e-05 0 -0.000108166)
(-6.04944e-05 0 -0.00011772)
(-5.07256e-05 0 -0.000125857)
(-4.00501e-05 0 -0.000132475)
(-2.86505e-05 0 -0.000137476)
(-1.67282e-05 0 -0.000140779)
(-4.49916e-06 0 -0.000142325)
(7.81266e-06 0 -0.000142083)
(1.99808e-05 0 -0.000140059)
(3.17827e-05 0 -0.000136291)
(4.30061e-05 0 -0.000130844)
(5.3454e-05 0 -0.000123807)
(6.29498e-05 0 -0.000115277)
(7.13404e-05 0 -0.000105357)
(7.84985e-05 0 -9.41477e-05)
(8.43239e-05 0 -8.17379e-05)
(8.87429e-05 0 -6.82053e-05)
(9.17076e-05 0 -5.36137e-05)
(9.31944e-05 0 -3.80149e-05)
(9.32033e-05 0 -2.14536e-05)
(9.17571e-05 0 -3.976e-06)
(8.89022e-05 0 1.43579e-05)
(8.47096e-05 0 3.34587e-05)
(7.92745e-05 0 5.31917e-05)
(7.2712e-05 0 7.3367e-05)
(6.51555e-05 0 9.37349e-05)
(5.67567e-05 0 0.000113983)
(4.76872e-05 0 0.000133731)
(3.81471e-05 0 0.000152496)
(2.83713e-05 0 0.000169569)
(1.84811e-05 0 0.000183691)
(8.32756e-06 0 0.000192902)
(-2.11845e-06 0 0.000195262)
(-1.24811e-05 0 0.000190179)
(-2.25154e-05 0 0.000178895)
(-3.23677e-05 0 0.00016351)
(-4.20964e-05 0 0.000145741)
(-5.15044e-05 0 0.000126594)
(-6.03663e-05 0 0.000106667)
(-6.84952e-05 0 8.63948e-05)
(-7.57278e-05 0 6.61317e-05)
(-8.19198e-05 0 4.61646e-05)
(-8.69448e-05 0 2.67191e-05)
(-9.06949e-05 0 7.96177e-06)
(-9.30838e-05 0 -9.99314e-06)
(-9.40494e-05 0 -2.7072e-05)
(-9.35539e-05 0 -4.32248e-05)
(-9.15821e-05 0 -5.841e-05)
(-8.81417e-05 0 -7.25843e-05)