/*--------------------------------*- C++ -*----------------------------------*\
| =========                 |                                                 |
| \\      /  F ield         | OpenFOAM: The Open Source CFD Toolbox           |
|  \\    /   O peration     | Version:  2.3.0                                 |
|   \\  /    A nd           | Web:      www.OpenFOAM.org                      |
|    \\/     M anipulation  |                                                 |
\*---------------------------------------------------------------------------*/
FoamFile
{
    version     2.0;
    format      ascii;
    class       volVectorField;
    location    "18000";
    object      U;
}
// * * * * * * * * * * * * * * * * * * * * * * * * * * * * * * * * * * * * * //

dimensions      [0 1 -1 0 0 0 0];

internalField   nonuniform List<vector> 
3060
(
(1.59575 0 -2.31842)
(4.18856 0 -2.23012)
(6.65913 0 -2.06173)
(8.93262 0 -1.81309)
(10.9368 0 -1.48554)
(12.6053 0 -1.08577)
(13.8845 0 -0.632184)
(14.7435 0 -0.162555)
(15.1889 0 0.264793)
(15.2776 0 0.58921)
(15.1018 0 0.777532)
(14.7551 0 0.842586)
(14.2784 0 0.825954)
(13.6753 0 0.766569)
(12.9169 0 0.688806)
(11.9729 0 0.610997)
(10.8317 0 0.564296)
(9.50392 0 0.564165)
(8.01938 0 0.575022)
(6.46132 0 0.549441)
(4.94706 0 0.482323)
(3.57476 0 0.388247)
(2.40758 0 0.288994)
(1.45525 0 0.20538)
(0.674155 0 0.151281)
(-0.0142088 0 0.133069)
(-0.703697 0 0.152406)
(-1.48792 0 0.207505)
(-2.44455 0 0.291766)
(-3.61557 0 0.391009)
(-4.98917 0 0.484247)
(-6.50046 0 0.549814)
(-8.04982 0 0.573558)
(-9.52014 0 0.562265)
(-10.8304 0 0.563988)
(-11.9513 0 0.612032)
(-12.8727 0 0.689052)
(-13.6069 0 0.764024)
(-14.1847 0 0.81786)
(-14.6319 0 0.824837)
(-14.9425 0 0.745865)
(-15.0717 0 0.541704)
(-14.9247 0 0.205343)
(-14.4164 0 -0.226406)
(-13.4949 0 -0.693047)
(-12.1593 0 -1.13824)
(-10.4437 0 -1.52656)
(-8.40399 0 -1.84116)
(-6.10764 0 -2.07601)
(-3.62784 0 -2.22992)
(-1.04021 0 -2.30291)
(1.57835 0 -2.29476)
(4.15047 0 -2.20557)
(6.59948 0 -2.03545)
(8.8501 0 -1.78445)
(10.8299 0 -1.45436)
(12.4732 0 -1.05278)
(13.7274 0 -0.599654)
(14.5642 0 -0.13474)
(14.9939 0 0.28271)
(15.0768 0 0.594231)
(14.9042 0 0.771337)
(14.5633 0 0.829825)
(14.0894 0 0.810626)
(13.4826 0 0.750832)
(12.7122 0 0.673699)
(11.7506 0 0.59952)
(10.5898 0 0.560576)
(9.24358 0 0.565529)
(7.74813 0 0.572872)
(6.19595 0 0.540007)
(4.70446 0 0.4675)
(3.36664 0 0.371268)
(2.23846 0 0.273434)
(1.32037 0 0.194056)
(0.561565 0 0.145688)
(-0.120181 0 0.133718)
(-0.819651 0 0.159242)
(-1.62901 0 0.219868)
(-2.62159 0 0.307904)
(-3.83145 0 0.407855)
(-5.23751 0 0.498211)
(-6.76866 0 0.558001)
(-8.32029 0 0.574444)
(-9.77714 0 0.561315)
(-11.0684 0 0.569443)
(-12.1696 0 0.624805)
(-13.0741 0 0.704561)
(-13.7975 0 0.779853)
(-14.3728 0 0.832897)
(-14.8234 0 0.836468)
(-15.1394 0 0.74968)
(-15.2696 0 0.533307)
(-15.1138 0 0.183992)
(-14.5869 0 -0.256881)
(-13.6412 0 -0.727273)
(-12.2793 0 -1.17221)
(-10.5375 0 -1.55829)
(-8.47285 0 -1.87011)
(-6.15325 0 -2.10247)
(-3.65166 0 -2.25457)
(-1.04323 0 -2.3266)
(1.32005 0 -3.64047)
(3.47769 0 -3.53764)
(5.57313 0 -3.34412)
(7.57293 0 -3.06547)
(9.45244 0 -2.71197)
(11.1997 0 -2.30125)
(12.8187 0 -1.86088)
(14.3276 0 -1.42773)
(15.7496 0 -1.03925)
(17.0928 0 -0.715273)
(18.3318 0 -0.442629)
(19.405 0 -0.178848)
(20.2379 0 0.126166)
(20.7582 0 0.512906)
(20.8952 0 0.996775)
(20.5677 0 1.54279)
(19.6848 0 2.04773)
(18.2337 0 2.42415)
(16.2589 0 2.64157)
(13.8652 0 2.68145)
(11.2399 0 2.5579)
(8.5914 0 2.29173)
(6.09896 0 1.9505)
(3.85485 0 1.62879)
(1.84408 0 1.4061)
(-0.0303567 0 1.32823)
(-1.90563 0 1.40941)
(-3.91832 0 1.63441)
(-6.16342 0 1.95622)
(-8.65257 0 2.29424)
(-11.2899 0 2.55395)
(-13.894 0 2.66915)
(-16.2559 0 2.61972)
(-18.1911 0 2.39242)
(-19.5986 0 2.00631)
(-20.4356 0 1.49329)
(-20.7198 0 0.944753)
(-20.5432 0 0.461808)
(-19.986 0 0.0760018)
(-19.1202 0 -0.230088)
(-18.0188 0 -0.497739)
(-16.7572 0 -0.776586)
(-15.3946 0 -1.10668)
(-13.9532 0 -1.4979)
(-12.4238 0 -1.92874)
(-10.784 0 -2.36185)
(-9.01727 0 -2.7614)
(-7.12209 0 -3.10097)
(-5.11219 0 -3.36375)
(-3.01364 0 -3.53999)
(-0.860731 0 -3.6245)
(1.30801 0 -3.61504)
(3.45302 0 -3.51185)
(5.5363 0 -3.3177)
(7.52487 0 -3.03852)
(9.39481 0 -2.68522)
(11.1352 0 -2.27637)
(12.7509 0 -1.84043)
(14.2607 0 -1.41452)
(15.6859 0 -1.03451)
(17.0311 0 -0.716584)
(18.266 0 -0.443835)
(19.326 0 -0.172503)
(20.136 0 0.146527)
(20.6227 0 0.551319)
(20.7143 0 1.05201)
(20.3263 0 1.60335)
(19.3732 0 2.09601)
(17.8559 0 2.45262)
(15.8235 0 2.64549)
(13.3953 0 2.66036)
(10.7671 0 2.5137)
(8.1453 0 2.23175)
(5.69903 0 1.88907)
(3.50317 0 1.58077)
(1.52655 0 1.38137)
(-0.337371 0 1.33111)
(-2.22839 0 1.43941)
(-4.27907 0 1.68618)
(-6.57349 0 2.0187)
(-9.10613 0 2.35196)
(-11.7642 0 2.59364)
(-14.3591 0 2.68559)
(-16.6806 0 2.6104)
(-18.5549 0 2.35931)
(-19.8946 0 1.95422)
(-20.6611 0 1.4317)
(-20.8873 0 0.891638)
(-20.6673 0 0.426371)
(-20.0781 0 0.0581257)
(-19.1908 0 -0.235108)
(-18.0776 0 -0.496739)
(-16.813 0 -0.777039)
(-15.4527 0 -1.11418)
(-14.0141 0 -1.51399)
(-12.4844 0 -1.95162)
(-10.8401 0 -2.38854)
(-9.06552 0 -2.78941)
(-7.15998 0 -3.12877)
(-5.1383 0 -3.39071)
(-3.02724 0 -3.56608)
(-0.86153 0 -3.65002)
(1.25604 0 -5.7928)
(3.31471 0 -5.64876)
(5.3299 0 -5.37964)
(7.27878 0 -4.99684)
(9.14418 0 -4.51918)
(10.9152 0 -3.97466)
(12.5852 0 -3.40063)
(14.1471 0 -2.83861)
(15.5858 0 -2.32069)
(16.874 0 -1.85263)
(17.9778 0 -1.40907)
(18.8678 0 -0.947628)
(19.5276 0 -0.42865)
(19.9556 0 0.176476)
(20.1618 0 0.883724)
(20.1587 0 1.69974)
(19.9257 0 2.63382)
(19.3639 0 3.68005)
(18.317 0 4.6848)
(16.6317 0 5.33278)
(14.2741 0 5.52078)
(11.439 0 5.3148)
(8.42982 0 4.84298)
(5.4796 0 4.30627)
(2.67141 0 3.90221)
(-0.0357303 0 3.75529)
(-2.74221 0 3.90579)
(-5.54763 0 4.31078)
(-8.49034 0 4.84289)
(-11.4828 0 5.30277)
(-14.2882 0 5.49086)
(-16.6048 0 5.28118)
(-18.2461 0 4.61105)
(-19.2546 0 3.5961)
(-19.7846 0 2.55088)
(-19.992 0 1.61973)
(-19.9712 0 0.805662)
(-19.7399 0 0.0995982)
(-19.285 0 -0.505245)
(-18.5972 0 -1.0253)
(-17.6795 0 -1.48955)
(-16.5497 0 -1.93763)
(-15.2382 0 -2.41057)
(-13.7789 0 -2.93071)
(-12.1985 0 -3.48989)
(-10.5117 0 -4.0551)
(-8.72608 0 -4.58533)
(-6.84914 0 -5.04431)
(-4.89287 0 -5.40511)
(-2.87535 0 -5.64983)
(-0.820001 0 -5.76791)
(1.24643 0 -5.75467)
(3.29623 0 -5.6106)
(5.30314 0 -5.3415)
(7.24466 0 -4.95924)
(9.10392 0 -4.48339)
(10.87 0 -3.9428)
(12.5361 0 -3.37529)
(14.0936 0 -2.82163)
(15.5257 0 -2.31119)
(16.8034 0 -1.84591)
(17.8928 0 -1.3981)
(18.7653 0 -0.925701)
(19.4062 0 -0.390789)
(19.815 0 0.233258)
(20.0032 0 0.960447)
(19.9812 0 1.79683)
(19.7197 0 2.75288)
(19.1069 0 3.81115)
(17.9837 0 4.78372)
(16.2035 0 5.36121)
(13.768 0 5.48477)
(10.8999 0 5.23059)
(7.90112 0 4.73847)
(4.98228 0 4.21676)
(2.20156 0 3.85413)
(-0.496578 0 3.76091)
(-3.21636 0 3.96371)
(-6.05151 0 4.40591)
(-9.02358 0 4.94621)
(-12.019 0 5.37866)
(-14.7809 0 5.51453)
(-17.0128 0 5.23848)
(-18.5603 0 4.50011)
(-19.4971 0 3.46397)
(-19.9807 0 2.43511)
(-20.1621 0 1.52573)
(-20.1228 0 0.731829)
(-19.8728 0 0.0455995)
(-19.3983 0 -0.540789)
(-18.6912 0 -1.04579)
(-17.756 0 -1.50038)
(-16.6121 0 -1.94576)
(-15.2905 0 -2.42283)
(-13.8248 0 -2.95105)
(-12.2399 0 -3.51844)
(-10.5486 0 -4.08962)
(-8.75765 0 -4.62314)
(-6.87404 0 -5.08335)
(-4.90997 0 -5.44421)
(-2.88387 0 -5.68853)
(-0.819502 0 -5.80622)
(1.20269 0 -7.87278)
(3.17693 0 -7.70179)
(5.11756 0 -7.38353)
(7.00614 0 -6.93295)
(8.82693 0 -6.3726)
(10.566 0 -5.73231)
(12.2088 0 -5.04707)
(13.7362 0 -4.35136)
(15.1219 0 -3.6696)
(16.3347 0 -3.00665)
(17.3459 0 -2.3458)
(18.1367 0 -1.65759)
(18.6993 0 -0.912552)
(19.0345 0 -0.0883713)
(19.148 0 0.829275)
(19.0451 0 1.8508)
(18.73 0 2.98525)
(18.2208 0 4.22357)
(17.5185 0 5.52951)
(16.5079 0 6.83734)
(14.9198 0 7.87756)
(12.5894 0 8.23167)
(9.65672 0 7.97469)
(6.45119 0 7.43819)
(3.20005 0 6.96594)
(-0.0346558 0 6.78401)
(-3.26674 0 6.96592)
(-6.50934 0 7.43372)
(-9.69742 0 7.95667)
(-12.5994 0 8.18892)
(-14.8896 0 7.80266)
(-16.439 0 6.73989)
(-17.4224 0 5.4265)
(-18.1048 0 4.11971)
(-18.5945 0 2.88216)
(-18.8876 0 1.74919)
(-18.967 0 0.728324)
(-18.8287 0 -0.189677)
(-18.4674 0 -1.015)
(-17.878 0 -1.76198)
(-17.0605 0 -2.45292)
(-16.0236 0 -3.11692)
(-14.7873 0 -3.78217)
(-13.3811 0 -4.46322)
(-11.836 0 -5.15336)
(-10.178 0 -5.82723)
(-8.42633 0 -6.45043)
(-6.59583 0 -6.98867)
(-4.70099 0 -7.41305)
(-2.75808 0 -7.70213)
(-0.785916 0 -7.84205)
(1.19478 0 -7.82633)
(3.16266 0 -7.65568)
(5.0973 0 -7.33804)
(6.98037 0 -6.88875)
(8.79609 0 -6.33082)
(10.5302 0 -5.69444)
(12.1671 0 -5.01449)
(13.6866 0 -4.32445)
(15.0613 0 -3.64664)
(16.2597 0 -2.98342)
(17.2538 0 -2.31652)
(18.026 0 -1.61664)
(18.5693 0 -0.855619)
(18.8852 0 -0.0127577)
(18.9794 0 0.924959)
(18.8565 0 1.96762)
(18.5218 0 3.12318)
(17.995 0 4.37797)
(17.2657 0 5.69357)
(16.1944 0 6.98933)
(14.5018 0 7.94267)
(12.0701 0 8.18756)
(9.08316 0 7.86815)
(5.87077 0 7.32983)
(2.62814 0 6.90405)
(-0.602725 0 6.79128)
(-3.84019 0 7.03978)
(-7.09026 0 7.54627)
(-10.2644 0 8.05534)
(-13.1003 0 8.21332)
(-15.2842 0 7.71322)
(-16.7342 0 6.58052)
(-17.6658 0 5.26239)
(-18.3245 0 3.96671)
(-18.7962 0 2.74686)
(-19.069 0 1.63526)
(-19.1282 0 0.635275)
(-18.9702 0 -0.262941)
(-18.5892 0 -1.07009)
(-17.9802 0 -1.80189)
(-17.1438 0 -2.48229)
(-16.0898 0 -3.14153)
(-14.8393 0 -3.80763)
(-13.4224 0 -4.49326)
(-11.8696 0 -5.18914)
(-10.2057 0 -5.86799)
(-8.44877 0 -6.49459)
(-6.61291 0 -7.03468)
(-4.71229 0 -7.45981)
(-2.76318 0 -7.74899)
(-0.784541 0 -7.88876)
(1.14471 0 -9.80012)
(3.0248 0 -9.60895)
(4.87574 0 -9.25329)
(6.68045 0 -8.74958)
(8.42263 0 -8.12135)
(10.0858 0 -7.39778)
(11.6511 0 -6.61056)
(13.096 0 -5.78861)
(14.3929 0 -4.95106)
(15.5132 0 -4.10173)
(16.4321 0 -3.22933)
(17.1337 0 -2.31405)
(17.6115 0 -1.33613)
(17.8653 0 -0.280807)
(17.8993 0 0.860576)
(17.7201 0 2.09215)
(17.3375 0 3.4169)
(16.7665 0 4.83799)
(16.0142 0 6.35088)
(15.0824 0 7.91732)
(13.9231 0 9.41771)
(12.3001 0 10.5819)
(9.89052 0 10.9873)
(6.83134 0 10.7589)
(3.45657 0 10.3819)
(-0.0305049 0 10.2155)
(-3.51286 0 10.3744)
(-6.8731 0 10.7376)
(-9.90545 0 10.9397)
(-12.2773 0 10.4979)
(-13.8686 0 9.30898)
(-15.0083 0 7.79912)
(-15.9242 0 6.22956)
(-16.6591 0 4.71593)
(-17.2115 0 3.29417)
(-17.5733 0 1.9683)
(-17.73 0 0.735139)
(-17.6719 0 -0.408139)
(-17.393 0 -1.46551)
(-16.8897 0 -2.44549)
(-16.1625 0 -3.36267)
(-15.2191 0 -4.23634)
(-14.0763 0 -5.08526)
(-12.7594 0 -5.91917)
(-11.2974 0 -6.73276)
(-9.71753 0 -7.506)
(-8.04259 0 -8.20982)
(-6.29138 0 -8.81299)
(-4.48075 0 -9.28721)
(-2.6273 0 -9.61005)
(-0.748374 0 -9.76635)
(1.13791 0 -9.74877)
(3.01314 0 -9.55813)
(4.85931 0 -9.20337)
(6.65927 0 -8.70116)
(8.39649 0 -8.07525)
(10.0539 0 -7.35482)
(11.612 0 -6.57118)
(13.0472 0 -5.75218)
(14.3315 0 -4.91528)
(15.4361 0 -4.06258)
(16.3372 0 -3.18186)
(17.0198 0 -2.25362)
(17.4779 0 -1.25919)
(17.712 0 -0.185182)
(17.7263 0 0.975827)
(17.5274 0 2.22729)
(17.1258 0 3.57217)
(16.5366 0 5.01313)
(15.7647 0 6.54283)
(14.812 0 8.1126)
(13.6076 0 9.58766)
(11.88 0 10.6577)
(9.35227 0 10.9415)
(6.22982 0 10.6671)
(2.83307 0 10.3215)
(-0.658809 0 10.2227)
(-4.13347 0 10.4453)
(-7.46583 0 10.8272)
(-10.423 0 10.9652)
(-12.6702 0 10.3953)
(-14.1702 0 9.12905)
(-15.2718 0 7.60142)
(-16.1676 0 6.03892)
(-16.8828 0 4.54306)
(-17.4168 0 3.14127)
(-17.7591 0 1.8354)
(-17.8957 0 0.622003)
(-17.8175 0 -0.501865)
(-17.5185 0 -1.54098)
(-16.9952 0 -2.50516)
(-16.2487 0 -3.41032)
(-15.2874 0 -4.27675)
(-14.129 0 -5.12328)
(-12.7997 0 -5.95848)
(-11.3283 0 -6.77522)
(-9.74124 0 -7.55188)
(-8.06054 0 -8.25846)
(-6.30425 0 -8.86343)
(-4.48873 0 -9.33858)
(-2.63038 0 -9.66174)
(-0.746515 0 -9.81799)
(1.0795 0 -11.637)
(2.8522 0 -11.4264)
(4.59712 0 -11.0339)
(6.29719 0 -10.4764)
(7.93519 0 -9.77704)
(9.49291 0 -8.96326)
(10.95 0 -8.06384)
(12.2833 0 -7.10439)
(13.4673 0 -6.1025)
(14.4768 0 -5.06442)
(15.291 0 -3.9854)
(15.8964 0 -2.85387)
(16.2868 0 -1.65694)
(16.4616 0 -0.38416)
(16.4238 0 0.970987)
(16.179 0 2.41099)
(15.7353 0 3.93469)
(15.1054 0 5.53644)
(14.3045 0 7.20456)
(13.3481 0 8.92299)
(12.2383 0 10.6539)
(10.9146 0 12.2668)
(9.13849 0 13.4437)
(6.58045 0 13.8766)
(3.414 0 13.8356)
(-0.0244563 0 13.7612)
(-3.45613 0 13.8163)
(-6.60271 0 13.8306)
(-9.12835 0 13.3611)
(-10.8771 0 12.1543)
(-12.1844 0 10.5275)
(-13.2811 0 8.79052)
(-14.2236 0 7.06832)
(-15.0086 0 5.39695)
(-15.6207 0 3.79222)
(-16.0444 0 2.26566)
(-16.2678 0 0.822763)
(-16.2829 0 -0.535272)
(-16.0846 0 -1.81077)
(-15.6701 0 -3.00997)
(-15.0408 0 -4.14293)
(-14.2034 0 -5.22192)
(-13.1725 0 -6.25754)
(-11.9692 0 -7.25326)
(-10.6192 0 -8.20168)
(-9.14787 0 -9.08443)
(-7.57855 0 -9.87574)
(-5.93168 0 -10.5472)
(-4.22564 0 -11.0721)
(-2.47791 0 -11.4283)
(-0.705746 0 -11.6005)
(1.0734 0 -11.5812)
(2.84204 0 -11.3711)
(4.58276 0 -10.9794)
(6.27829 0 -10.4231)
(7.91109 0 -9.72518)
(9.46242 0 -8.91312)
(10.9113 0 -8.01516)
(12.234 0 -7.05598)
(13.4047 0 -6.05197)
(14.3983 0 -5.00822)
(15.1949 0 -3.91941)
(15.7814 0 -2.77417)
(16.1524 0 -1.56042)
(16.3075 0 -0.2688)
(16.25 0 1.10615)
(15.9855 0 2.56603)
(15.5227 0 4.10888)
(14.8745 0 5.72809)
(14.0565 0 7.41099)
(13.0835 0 9.14041)
(11.953 0 10.8703)
(10.5831 0 12.4453)
(8.70032 0 13.5185)
(6.02272 0 13.8544)
(2.79604 0 13.8007)
(-0.658739 0 13.7656)
(-4.06548 0 13.8543)
(-7.14075 0 13.8391)
(-9.53845 0 13.2605)
(-11.1945 0 11.9624)
(-12.4631 0 10.3074)
(-13.5404 0 8.57308)
(-14.4662 0 6.8629)
(-15.2337 0 5.20676)
(-15.827 0 3.61981)
(-16.2311 0 2.11249)
(-16.4345 0 0.689388)
(-16.4295 0 -0.649092)
(-16.2112 0 -1.9062)
(-15.777 0 -3.08924)
(-15.1285 0 -4.20932)
(-14.2733 0 -5.27942)
(-13.2266 0 -6.31018)
(-12.0102 0 -7.30435)
(-10.6497 0 -8.25328)
(-9.17035 0 -9.13742)
(-7.59469 0 -9.93015)
(-5.94258 0 -10.6027)
(-4.23196 0 -11.1281)
(-2.47997 0 -11.4846)
(-0.703701 0 -11.6567)
(1.00533 0 -13.3574)
(2.65512 0 -13.1277)
(4.277 0 -12.6991)
(5.85346 0 -12.088)
(7.36661 0 -11.3169)
(8.79757 0 -10.4117)
(10.126 0 -9.3991)
(11.3299 0 -8.30296)
(12.3866 0 -7.1406)
(13.2748 0 -5.92084)
(13.9771 0 -4.64422)
(14.4819 0 -3.3057)
(14.7833 0 -1.8983)
(14.8806 0 -0.416009)
(14.7762 0 1.14451)
(14.4752 0 2.78311)
(13.9853 0 4.49601)
(13.3173 0 6.27533)
(12.4847 0 8.10767)
(11.5029 0 9.97337)
(10.3857 0 11.845)
(9.13348 0 13.6759)
(7.65794 0 15.3233)
(5.69798 0 16.4701)
(3.04208 0 16.9843)
(-0.0162499 0 17.0945)
(-3.06671 0 16.9495)
(-5.70022 0 16.3969)
(-7.63572 0 15.2156)
(-9.09682 0 13.5482)
(-10.3386 0 11.707)
(-11.4449 0 9.82836)
(-12.4139 0 7.95682)
(-13.2317 0 6.11933)
(-13.883 0 4.33524)
(-14.3544 0 2.61783)
(-14.6355 0 0.974948)
(-14.7189 0 -0.58951)
(-14.5997 0 -2.07517)
(-14.2759 0 -3.48502)
(-13.7489 0 -4.82453)
(-13.025 0 -6.1)
(-12.1165 0 -7.31554)
(-11.0413 0 -8.46956)
(-9.82104 0 -9.55227)
(-8.47862 0 -10.5457)
(-7.03613 0 -11.4258)
(-5.51407 0 -12.1663)
(-3.9315 0 -12.7418)
(-2.30655 0 -13.131)
(-0.65696 0 -13.3189)
(0.999665 0 -13.2978)
(2.64572 0 -13.0685)
(4.26356 0 -12.6404)
(5.83544 0 -12.0297)
(7.34308 0 -11.259)
(8.76717 0 -10.3539)
(10.0869 0 -9.34074)
(11.2799 0 -8.24242)
(12.3233 0 -7.07549)
(13.196 0 -5.848)
(13.8812 0 -4.56014)
(14.3677 0 -3.20706)
(14.6504 0 -1.78243)
(14.7286 0 -0.281131)
(14.605 0 1.29919)
(14.2849 0 2.95745)
(13.7763 0 4.68902)
(13.0903 0 6.48507)
(12.2408 0 8.33109)
(11.2431 0 10.2064)
(10.1105 0 12.0823)
(8.83614 0 13.9053)
(7.30795 0 15.5034)
(5.23737 0 16.5563)
(2.48936 0 17.004)
(-0.594744 0 17.0927)
(-3.60603 0 16.9202)
(-6.13528 0 16.2906)
(-7.97009 0 15.0195)
(-9.38679 0 13.3138)
(-10.6091 0 11.4682)
(-11.6999 0 9.59502)
(-12.6526 0 7.7339)
(-13.4531 0 5.91064)
(-14.086 0 4.14361)
(-14.5383 0 2.44498)
(-14.7999 0 0.821693)
(-14.8637 0 -0.723202)
(-14.7251 0 -2.19028)
(-14.3822 0 -3.58349)
(-13.8368 0 -4.90917)
(-13.0957 0 -6.17416)
(-12.1717 0 -7.38267)
(-11.0833 0 -8.53262)
(-9.85229 0 -9.6134)
(-8.50128 0 -10.6061)
(-7.05199 0 -11.4861)
(-5.52445 0 -12.2266)
(-3.93729 0 -12.8021)
(-2.30829 0 -13.1912)
(-0.654947 0 -13.3788)
(0.92223 0 -14.9471)
(2.43403 0 -14.6981)
(3.91734 0 -14.2324)
(5.35429 0 -13.5663)
(6.72668 0 -12.7215)
(8.01577 0 -11.7232)
(9.20211 0 -10.597)
(10.2657 0 -9.36606)
(11.1869 0 -8.04856)
(11.948 0 -6.65601)
(12.5346 0 -5.19339)
(12.9371 0 -3.66088)
(13.1507 0 -2.0563)
(13.1747 0 -0.377508)
(13.0113 0 1.37589)
(12.6657 0 3.20117)
(12.1451 0 5.09187)
(11.4594 0 7.03735)
(10.6207 0 9.02228)
(9.64278 0 11.0269)
(8.53908 0 13.028)
(7.32382 0 14.9973)
(5.98858 0 16.8764)
(4.42031 0 18.4841)
(2.40182 0 19.532)
(-0.00624478 0 19.8687)
(-2.4072 0 19.482)
(-4.40898 0 18.3914)
(-5.96492 0 16.7553)
(-7.29228 0 14.8604)
(-8.49981 0 12.8804)
(-9.59383 0 10.8705)
(-10.5601 0 8.85818)
(-11.3854 0 6.86624)
(-12.056 0 4.91427)
(-12.5598 0 3.01753)
(-12.8873 0 1.1867)
(-13.0315 0 -0.57161)
(-12.9875 0 -2.2544)
(-12.7534 0 -3.86162)
(-12.3304 0 -5.39483)
(-11.7238 0 -6.85544)
(-10.9437 0 -8.24238)
(-10.0048 0 -9.54973)
(-8.92545 0 -10.7651)
(-7.72539 0 -11.8699)
(-6.42485 0 -12.8407)
(-5.04352 0 -13.6521)
(-3.60037 0 -14.2797)
(-2.11385 0 -14.7029)
(-0.602103 0 -14.9068)
(0.91684 0 -14.8839)
(2.42497 0 -14.635)
(3.90423 0 -14.1693)
(5.33645 0 -13.5028)
(6.7031 0 -12.6573)
(7.98507 0 -11.6575)
(9.16254 0 -10.5287)
(10.2153 0 -9.29344)
(11.1237 0 -7.96928)
(11.87 0 -6.56723)
(12.4404 0 -5.09207)
(12.8258 0 -3.54417)
(13.0216 0 -1.9219)
(13.0275 0 -0.223899)
(12.8461 0 1.54931)
(12.4824 0 3.39404)
(11.9441 0 5.30287)
(11.2414 0 7.26422)
(10.3866 0 9.26189)
(9.39354 0 11.2755)
(8.27546 0 13.2818)
(7.04661 0 15.2505)
(5.68686 0 17.1136)
(4.06065 0 18.6618)
(1.95999 0 19.6176)
(-0.476303 0 19.8587)
(-2.83477 0 19.3757)
(-4.75245 0 18.1968)
(-6.25881 0 16.5106)
(-7.56526 0 14.6047)
(-8.75923 0 12.6254)
(-9.83856 0 10.6214)
(-10.7894 0 8.6187)
(-11.5981 0 6.64002)
(-12.2513 0 4.70426)
(-12.7371 0 2.82579)
(-13.0463 0 1.01436)
(-13.1719 0 -0.724361)
(-13.1096 0 -2.38834)
(-12.8575 0 -3.97841)
(-12.4171 0 -5.49688)
(-11.7942 0 -6.94561)
(-10.9994 0 -8.32365)
(-10.0477 0 -9.62478)
(-8.95756 0 -10.8361)
(-7.74873 0 -11.9383)
(-6.44114 0 -12.9073)
(-5.05411 0 -13.7176)
(-3.60625 0 -14.3444)
(-2.11569 0 -14.7669)
(-0.600264 0 -14.9703)
(0.830828 0 -16.3916)
(2.19089 0 -16.1229)
(3.52209 0 -15.6194)
(4.80645 0 -14.8974)
(6.02598 0 -13.9784)
(7.16263 0 -12.8871)
(8.19836 0 -11.6491)
(9.11546 0 -10.2878)
(9.89727 0 -8.82291)
(10.5292 0 -7.26847)
(11 0 -5.63328)
(11.3019 0 -3.92176)
(11.4316 0 -2.13579)
(11.389 0 -0.276593)
(11.1768 0 1.65348)
(10.8004 0 3.64934)
(10.2671 0 5.70227)
(9.58652 0 7.7994)
(8.7701 0 9.92346)
(7.83122 0 12.0534)
(6.78413 0 14.1659)
(5.64522 0 16.2379)
(4.43632 0 18.2338)
(3.1422 0 20.0463)
(1.67363 0 21.3893)
(0.00370427 0 21.8805)
(-1.66249 0 21.3306)
(-3.12435 0 19.9446)
(-4.41398 0 18.1064)
(-5.61881 0 16.0945)
(-6.75171 0 14.0102)
(-7.79069 0 11.8871)
(-8.7196 0 9.74761)
(-9.52431 0 7.6148)
(-10.1916 0 5.50959)
(-10.7101 0 3.44921)
(-11.0704 0 1.4466)
(-11.2654 0 -0.489321)
(-11.2901 0 -2.35316)
(-11.1419 0 -4.14206)
(-10.8213 0 -5.85413)
(-10.3322 0 -7.48671)
(-9.68252 0 -9.03449)
(-8.88413 0 -10.4878)
(-7.95194 0 -11.8318)
(-6.90292 0 -13.0463)
(-5.75505 0 -14.1077)
(-4.52667 0 -14.9908)
(-3.23612 0 -15.6715)
(-1.90169 0 -16.1293)
(-0.541666 0 -16.3496)
(0.825667 0 -16.3248)
(2.18202 0 -16.0559)
(3.5091 0 -15.5518)
(4.78864 0 -14.8286)
(6.00233 0 -13.9077)
(7.13183 0 -12.8134)
(8.15883 0 -11.571)
(9.06549 0 -10.2036)
(9.83515 0 -8.73021)
(10.4534 0 -7.16475)
(10.9092 0 -5.51588)
(11.1954 0 -3.78822)
(11.3088 0 -1.98412)
(11.2495 0 -0.105538)
(11.0208 0 1.84432)
(10.628 0 3.85937)
(10.0788 0 5.92993)
(9.38287 0 8.04218)
(8.55207 0 10.178)
(7.59989 0 12.3159)
(6.54061 0 14.4328)
(5.39166 0 16.5058)
(4.17349 0 18.4944)
(2.8589 0 20.2699)
(1.35244 0 21.5183)
(-0.335121 0 21.8644)
(-1.97561 0 21.1761)
(-3.40129 0 19.7078)
(-4.67357 0 17.8414)
(-5.86953 0 15.8246)
(-6.99169 0 13.7419)
(-8.01811 0 11.6237)
(-8.93335 0 9.49278)
(-9.72328 0 7.37228)
(-10.3749 0 5.28254)
(-10.8771 0 3.23996)
(-11.2207 0 1.25652)
(-11.3988 0 -0.659825)
(-11.4066 0 -2.50465)
(-11.2419 0 -4.27592)
(-10.9052 0 -5.97243)
(-10.4011 0 -7.59191)
(-9.73766 0 -9.12919)
(-8.92713 0 -10.5745)
(-7.98454 0 -11.9124)
(-6.92686 0 -13.1226)
(-5.77189 0 -14.1808)
(-4.53771 0 -15.0615)
(-3.24235 0 -15.7405)
(-1.90381 0 -16.1972)
(-0.54008 0 -16.4167)
(0.732022 0 -17.6781)
(1.92824 0 -17.3893)
(3.09578 0 -16.848)
(4.217 0 -16.0702)
(5.27453 0 -15.0778)
(6.25145 0 -13.8957)
(7.13146 0 -12.5499)
(7.89921 0 -11.0651)
(8.54087 0 -9.46242)
(9.04485 0 -7.75876)
(9.40248 0 -5.96614)
(9.60842 0 -4.09258)
(9.66071 0 -2.14337)
(9.56045 0 -0.122753)
(9.31135 0 1.9644)
(8.91941 0 4.11079)
(8.39263 0 6.30568)
(7.74097 0 8.53423)
(6.97632 0 10.7773)
(6.11274 0 13.0117)
(5.16669 0 15.2118)
(4.15858 0 17.3507)
(3.11967 0 19.3931)
(2.08395 0 21.247)
(1.05375 0 22.6528)
(0.0111201 0 23.1819)
(-1.03165 0 22.5926)
(-2.06242 0 21.1439)
(-3.0985 0 19.2636)
(-4.13591 0 17.2032)
(-5.13998 0 15.05)
(-6.07986 0 12.8373)
(-6.93542 0 10.5915)
(-7.69036 0 8.33807)
(-8.33079 0 6.09995)
(-8.84494 0 3.89627)
(-9.22301 0 1.74197)
(-9.45717 0 -0.351976)
(-9.54164 0 -2.37793)
(-9.47296 0 -4.33045)
(-9.25034 0 -6.2046)
(-8.87608 0 -7.99426)
(-8.3559 0 -9.69051)
(-7.69885 0 -11.2804)
(-6.9169 0 -12.7465)
(-6.02421 0 -14.0669)
(-5.03648 0 -15.217)
(-3.97036 0 -16.171)
(-2.84311 0 -16.9047)
(-1.67242 0 -17.3974)
(-0.476294 0 -17.6342)
(0.727116 0 -17.6076)
(1.91959 0 -17.3185)
(3.08299 0 -16.7759)
(4.19938 0 -15.9961)
(5.25114 0 -15.0006)
(6.22111 0 -13.8141)
(7.0928 0 -12.4625)
(7.85077 0 -10.9699)
(8.48122 0 -9.35728)
(8.97274 0 -7.64134)
(9.3169 0 -5.83409)
(9.50868 0 -3.94375)
(9.54643 0 -1.9761)
(9.4315 0 0.0639882)
(9.16787 0 2.17078)
(8.76173 0 4.336)
(8.22134 0 6.54792)
(7.55688 0 8.79075)
(6.78053 0 11.0445)
(5.90666 0 13.2855)
(4.95215 0 15.4881)
(3.93854 0 17.6255)
(2.89926 0 19.6593)
(1.86544 0 21.4797)
(0.833568 0 22.7922)
(-0.210833 0 23.1641)
(-1.25086 0 22.4267)
(-2.28063 0 20.8989)
(-3.3185 0 18.9927)
(-4.35436 0 16.9258)
(-5.35203 0 14.7717)
(-6.2829 0 12.5621)
(-7.12771 0 10.3236)
(-7.87054 0 8.08143)
(-8.49779 0 5.85796)
(-8.99796 0 3.67151)
(-9.36151 0 1.53604)
(-9.58082 0 -0.538464)
(-9.65035 0 -2.54529)
(-9.56687 0 -4.47982)
(-9.32987 0 -6.33772)
(-8.942 0 -8.11326)
(-8.40927 0 -9.79768)
(-7.74099 0 -11.378)
(-6.94926 0 -12.8365)
(-6.04827 0 -14.151)
(-5.05361 0 -15.2965)
(-3.98174 0 -16.2472)
(-2.84968 0 -16.9783)
(-1.67486 0 -17.4692)
(-0.474991 0 -17.705)
(0.626734 0 -18.7949)
(1.64861 0 -18.4866)
(2.64276 0 -17.9082)
(3.59229 0 -17.0762)
(4.48095 0 -16.0129)
(5.29327 0 -14.7441)
(6.01489 0 -13.2969)
(6.63282 0 -11.6973)
(7.13592 0 -9.96861)
(7.51532 0 -8.13012)
(7.7649 0 -6.19688)
(7.88148 0 -4.18002)
(7.86484 0 -2.08785)
(7.7175 0 0.072734)
(7.44439 0 2.29447)
(7.05261 0 4.56798)
(6.55117 0 6.88061)
(5.951 0 9.21553)
(5.26508 0 11.5514)
(4.5089 0 13.8625)
(3.70141 0 16.1188)
(2.86702 0 18.2862)
(2.04127 0 20.3189)
(1.27321 0 22.1209)
(0.602101 0 23.4577)
(0.0150933 0 23.954)
(-0.574063 0 23.4001)
(-1.2494 0 22.0206)
(-2.02064 0 20.1902)
(-2.84702 0 18.137)
(-3.67949 0 15.9529)
(-4.48294 0 13.682)
(-5.23326 0 11.3578)
(-5.91169 0 9.00999)
(-6.5029 0 6.66406)
(-6.99403 0 4.34135)
(-7.37429 0 2.05879)
(-7.6348 0 -0.17072)
(-7.76865 0 -2.33739)
(-7.77111 0 -4.43339)
(-7.63992 0 -6.45105)
(-7.3756 0 -8.3812)
(-6.98164 0 -10.2118)
(-6.46454 0 -11.9269)
(-5.83351 0 -13.5065)
(-5.10007 0 -14.9268)
(-4.27757 0 -16.1616)
(-3.38076 0 -17.1842)
(-2.42548 0 -17.9694)
(-1.42836 0 -18.4961)
(-0.406632 0 -18.7491)
(0.622158 0 -18.7207)
(1.64035 0 -18.4118)
(2.63044 0 -17.8317)
(3.5753 0 -16.9968)
(4.45843 0 -15.9294)
(5.26421 0 -14.6551)
(5.97812 0 -13.2007)
(6.58715 0 -11.5921)
(7.08019 0 -9.85223)
(7.44855 0 -8.00047)
(7.68632 0 -6.05185)
(7.79061 0 -4.01777)
(7.76149 0 -1.90697)
(7.60172 0 0.272989)
(7.3165 0 2.51403)
(6.91318 0 4.80582)
(6.401 0 7.13467)
(5.79116 0 9.48279)
(5.09698 0 11.8279)
(4.33439 0 14.1437)
(3.52301 0 16.3997)
(2.68853 0 18.5611)
(1.86907 0 20.579)
(1.11471 0 22.3425)
(0.459817 0 23.5881)
(-0.120339 0 23.9372)
(-0.719072 0 23.2442)
(-1.41074 0 21.7859)
(-2.19424 0 19.9239)
(-3.02529 0 17.8583)
(-3.85662 0 15.6693)
(-4.65547 0 13.3989)
(-5.39882 0 11.0802)
(-6.06853 0 8.7422)
(-6.64966 0 6.40987)
(-7.12968 0 4.10362)
(-7.49805 0 1.83934)
(-7.74613 0 -0.371022)
(-7.86726 0 -2.51862)
(-7.85697 0 -4.59642)
(-7.71328 0 -6.59733)
(-7.43699 0 -8.51256)
(-7.03187 0 -10.3303)
(-6.50465 0 -12.0345)
(-5.86468 0 -13.6052)
(-5.12353 0 -15.0183)
(-4.29448 0 -16.2474)
(-3.39216 0 -17.2655)
(-2.4322 0 -18.0475)
(-1.43103 0 -18.5719)
(-0.405613 0 -18.8236)
(0.5158 0 -19.7323)
(1.35428 0 -19.4054)
(2.1668 0 -18.7917)
(2.93774 0 -17.9084)
(3.65233 0 -16.7788)
(4.2969 0 -15.4297)
(4.85915 0 -13.8895)
(5.32848 0 -12.1861)
(5.69624 0 -10.345)
(5.95609 0 -8.38777)
(6.10426 0 -6.33232)
(6.13965 0 -4.19254)
(6.0638 0 -1.97942)
(5.88075 0 0.297672)
(5.5968 0 2.62925)
(5.2203 0 5.00396)
(4.76142 0 7.40722)
(4.23225 0 9.82022)
(3.64699 0 12.2192)
(3.02249 0 14.5752)
(2.37938 0 16.8534)
(1.74392 0 19.0117)
(1.1517 0 20.9928)
(0.649734 0 22.6945)
(0.278002 0 23.9125)
(0.016435 0 24.3527)
(-0.247783 0 23.8589)
(-0.624964 0 22.5989)
(-1.13157 0 20.8669)
(-1.72615 0 18.8629)
(-2.3617 0 16.6855)
(-3.0029 0 14.3908)
(-3.62375 0 12.0201)
(-4.20383 0 9.60761)
(-4.72639 0 7.18222)
(-5.17737 0 4.76761)
(-5.5448 0 2.38271)
(-5.81858 0 0.0423605)
(-5.99054 0 -2.24164)
(-6.05453 0 -4.4592)
(-6.00674 0 -6.60014)
(-5.84586 0 -8.65257)
(-5.57329 0 -10.6016)
(-5.19312 0 -12.4286)
(-4.71204 0 -14.111)
(-4.13906 0 -15.6229)
(-3.48518 0 -16.9363)
(-2.76308 0 -18.0232)
(-1.98682 0 -18.8571)
(-1.17156 0 -19.4163)
(-0.33326 0 -19.6847)
(0.511661 0 -19.6546)
(1.34665 0 -19.3268)
(2.15534 0 -18.7109)
(2.92191 0 -17.8241)
(3.63142 0 -16.6895)
(4.27004 0 -15.3339)
(4.8254 0 -13.7855)
(5.28688 0 -12.072)
(5.64591 0 -10.2187)
(5.8963 0 -8.2475)
(6.03449 0 -6.17617)
(6.05964 0 -4.01894)
(5.97357 0 -1.78722)
(5.78059 0 0.508946)
(5.48725 0 2.85928)
(5.10217 0 5.25145)
(4.63578 0 7.66986)
(4.10046 0 10.0946)
(3.51078 0 12.5011)
(2.88409 0 14.8593)
(2.24176 0 17.1336)
(1.61126 0 19.2809)
(1.03026 0 21.2399)
(0.547036 0 22.8968)
(0.196687 0 24.0271)
(-0.0559812 0 24.3379)
(-0.332843 0 23.7205)
(-0.731707 0 22.3827)
(-1.25556 0 20.6119)
(-1.85982 0 18.5885)
(-2.49925 0 16.4016)
(-3.14045 0 14.1041)
(-3.75849 0 11.7365)
(-4.33363 0 9.33217)
(-4.84961 0 6.91905)
(-5.29267 0 4.51984)
(-5.65114 0 2.15246)
(-5.9152 0 -0.169273)
(-6.07692 0 -2.43447)
(-6.13042 0 -4.63382)
(-6.07217 0 -6.75773)
(-5.90114 0 -8.7947)
(-5.61896 0 -10.7301)
(-5.22997 0 -12.5452)
(-4.74099 0 -14.2176)
(-4.16108 0 -15.7212)
(-3.50122 0 -17.0279)
(-2.77402 0 -18.1095)
(-1.99339 0 -18.9395)
(-1.1743 0 -19.4958)
(-0.332505 0 -19.7628)
(0.399945 0 -20.4817)
(1.04718 0 -20.1377)
(1.67108 0 -19.4917)
(2.25776 0 -18.5617)
(2.79435 0 -17.3721)
(3.26922 0 -15.951)
(3.67232 0 -14.3285)
(3.99536 0 -12.5344)
(4.23208 0 -10.5963)
(4.37846 0 -8.53817)
(4.43284 0 -6.38046)
(4.39604 0 -4.13958)
(4.27128 0 -1.82897)
(4.06405 0 0.539714)
(3.78198 0 2.9549)
(3.43456 0 5.40333)
(3.03306 0 7.86861)
(2.59051 0 10.3299)
(2.12196 0 12.7611)
(1.64493 0 15.13)
(1.18026 0 17.3975)
(0.753385 0 19.5147)
(0.396062 0 21.4163)
(0.145656 0 22.9993)
(0.0286964 0 24.0917)
(0.0162104 0 24.4756)
(0.00122241 0 24.0424)
(-0.121207 0 22.9091)
(-0.376897 0 21.2946)
(-0.737873 0 19.3679)
(-1.16655 0 17.2297)
(-1.6313 0 14.944)
(-2.10685 0 12.5587)
(-2.57249 0 10.1126)
(-3.01081 0 7.63757)
(-3.40687 0 5.15972)
(-3.74769 0 2.69997)
(-4.02211 0 0.275004)
(-4.22072 0 -2.10146)
(-4.33606 0 -4.41721)
(-4.36278 0 -6.65974)
(-4.2979 0 -8.81467)
(-4.14085 0 -10.8645)
(-3.89355 0 -12.7882)
(-3.56037 0 -14.5606)
(-3.1479 0 -16.1537)
(-2.6648 0 -17.5376)
(-2.12153 0 -18.6825)
(-1.53009 0 -19.561)
(-0.903741 0 -20.1497)
(-0.256671 0 -20.4324)
(0.396363 0 -20.4007)
(1.04045 0 -20.0555)
(1.66091 0 -19.407)
(2.24372 0 -18.4729)
(2.77583 0 -17.2776)
(3.24555 0 -15.8492)
(3.64274 0 -14.2176)
(3.95915 0 -12.4126)
(4.1886 0 -10.4617)
(4.32723 0 -8.38908)
(4.37359 0 -6.21521)
(4.32875 0 -3.95687)
(4.19619 0 -1.62793)
(3.98167 0 0.759293)
(3.69309 0 3.19243)
(3.34022 0 5.65727)
(2.93458 0 8.13634)
(2.48951 0 10.6077)
(2.02042 0 13.0443)
(1.54528 0 15.4127)
(1.0856 0 17.6726)
(0.667746 0 19.7738)
(0.32474 0 21.647)
(0.0942859 0 23.1806)
(-0.00207248 0 24.1906)
(-0.00642889 0 24.4628)
(-0.0331077 0 23.9218)
(-0.176811 0 22.7134)
(-0.451413 0 21.0547)
(-0.825476 0 19.1025)
(-1.26219 0 16.95)
(-1.73116 0 14.6581)
(-2.20797 0 12.2733)
(-2.67253 0 9.83327)
(-3.10786 0 7.36887)
(-3.49936 0 4.90512)
(-3.83434 0 2.46185)
(-4.10191 0 0.0547385)
(-4.29292 0 -2.30342)
(-4.40018 0 -4.60119)
(-4.41862 0 -6.82663)
(-4.34553 0 -8.9658)
(-4.18057 0 -11.0015)
(-3.9259 0 -12.9126)
(-3.58601 0 -14.6741)
(-3.16758 0 -16.2581)
(-2.67927 0 -17.6344)
(-2.13151 0 -18.7734)
(-1.53617 0 -19.6472)
(-0.906375 0 -20.2328)
(-0.256148 0 -20.5138)
(0.279787 0 -21.0357)
(0.728962 0 -20.6765)
(1.15825 0 -20.0023)
(1.55599 0 -19.0317)
(1.91156 0 -17.7903)
(2.21567 0 -16.3077)
(2.46059 0 -14.6157)
(2.64036 0 -12.7459)
(2.75096 0 -10.7281)
(2.79047 0 -8.58854)
(2.75915 0 -6.34992)
(2.65948 0 -4.03099)
(2.49614 0 -1.64744)
(2.27589 0 0.786969)
(2.00743 0 3.25874)
(1.70118 0 5.75287)
(1.36916 0 8.25126)
(1.0249 0 10.7313)
(0.683658 0 13.1648)
(0.36262 0 15.5169)
(0.081369 0 17.7451)
(-0.137619 0 19.7966)
(-0.26891 0 21.6023)
(-0.286994 0 23.0642)
(-0.180685 0 24.0415)
(0.0151975 0 24.3766)
(0.2089 0 23.9961)
(0.310141 0 22.9794)
(0.286562 0 21.4853)
(0.150706 0 19.6531)
(-0.0715165 0 17.5792)
(-0.354629 0 15.3312)
(-0.676209 0 12.9613)
(-1.01674 0 10.5116)
(-1.35911 0 8.01659)
(-1.68812 0 5.50447)
(-1.99027 0 2.99794)
(-2.25362 0 0.515388)
(-2.46782 0 -1.92771)
(-2.62426 0 -4.31715)
(-2.71634 0 -6.63831)
(-2.73955 0 -8.87452)
(-2.69162 0 -11.006)
(-2.57252 0 -13.0091)
(-2.38448 0 -14.8567)
(-2.13181 0 -16.5185)
(-1.82081 0 -17.9627)
(-1.45958 0 -19.1579)
(-1.05778 0 -20.075)
(-0.626355 0 -20.6897)
(-0.17728 0 -20.9848)
(0.276889 0 -20.9517)
(0.723418 0 -20.5914)
(1.14983 0 -19.9142)
(1.54434 0 -18.9391)
(1.89623 0 -17.6914)
(2.19612 0 -16.2008)
(2.43627 0 -14.4991)