/*--------------------------------*- C++ -*----------------------------------*\
| =========                 |                                                 |
| \\      /  F ield         | OpenFOAM: The Open Source CFD Toolbox           |
|  \\    /   O peration     | Version:  2.3.0                                 |
|   \\  /    A nd           | Web:      www.OpenFOAM.org                      |
|    \\/     M anipulation  |                                                 |
\*---------------------------------------------------------------------------*/
FoamFile
{
    version     2.0;
    format      ascii;
    class       volVectorField;
    location    "18000";
    object      U;
}
// * * * * * * * * * * * * * * * * * * * * * * * * * * * * * * * * * * * * * //

dimensions      [0 1 -1 0 0 0 0];

internalField   nonuniform List<vector> 
3060
(
(0.618454 0 -0.447486)
(1.58166 0 -0.431321)
(2.52078 0 -0.40137)
(3.42189 0 -0.358184)
(4.27195 0 -0.302793)
(5.0591 0 -0.23728)
(5.77314 0 -0.165297)
(6.40594 0 -0.0920624)
(6.95155 0 -0.0234457)
(7.40528 0 0.0356431)
(7.76191 0 0.0825915)
(8.01332 0 0.117303)
(8.14653 0 0.141379)
(8.1429 0 0.157219)
(7.98119 0 0.170143)
(7.64164 0 0.190676)
(7.11692 0 0.226415)
(6.41684 0 0.270042)
(5.57184 0 0.301487)
(4.6411 0 0.305839)
(3.6937 0 0.28515)
(2.78866 0 0.247822)
(1.96524 0 0.20592)
(1.23208 0 0.170286)
(0.57076 0 0.147623)
(-0.053198 0 0.140789)
(-0.680646 0 0.150413)
(-1.3519 0 0.175585)
(-2.09946 0 0.212887)
(-2.9378 0 0.254853)
(-3.85294 0 0.290149)
(-4.80108 0 0.306898)
(-5.72056 0 0.297619)
(-6.54223 0 0.26254)
(-7.21108 0 0.219057)
(-7.7011 0 0.185929)
(-8.00518 0 0.167416)
(-8.13372 0 0.154249)
(-8.10714 0 0.13673)
(-7.94679 0 0.110359)
(-7.67035 0 0.0728742)
(-7.2899 0 0.0229746)
(-6.81299 0 -0.0387222)
(-6.24472 0 -0.109014)
(-5.59011 0 -0.182609)
(-4.85574 0 -0.25362)
(-4.05038 0 -0.317099)
(-3.18481 0 -0.36975)
(-2.2713 0 -0.409766)
(-1.32327 0 -0.436263)
(-0.354915 0 -0.448719)
(0.618925 0 -0.446743)
(1.5832 0 -0.43043)
(2.52323 0 -0.400204)
(3.42501 0 -0.356642)
(4.2754 0 -0.300818)
(5.06247 0 -0.234894)
(5.77595 0 -0.162631)
(6.40769 0 -0.0893462)
(6.95161 0 -0.0209348)
(7.4029 0 0.0377584)
(7.756 0 0.084242)
(8.00233 0 0.118526)
(8.12834 0 0.14227)
(8.11486 0 0.157961)
(7.9406 0 0.171362)
(7.58627 0 0.19333)
(7.04628 0 0.23045)
(6.33221 0 0.273842)
(5.47742 0 0.303024)
(4.54326 0 0.304693)
(3.59864 0 0.281896)
(2.70121 0 0.243591)
(1.88745 0 0.2019)
(1.16301 0 0.167349)
(0.507331 0 0.146202)
(-0.115067 0 0.14102)
(-0.745257 0 0.152275)
(-1.42314 0 0.178882)
(-2.17996 0 0.217072)
(-3.02771 0 0.258934)
(-3.94933 0 0.292925)
(-4.89873 0 0.30738)
(-5.81298 0 0.29532)
(-6.62339 0 0.258449)
(-7.27767 0 0.215283)
(-7.75237 0 0.183715)
(-8.04208 0 0.166434)
(-8.15877 0 0.153519)
(-8.12306 0 0.135757)
(-7.9561 0 0.109015)
(-7.67502 0 0.0710781)
(-7.29133 0 0.0207136)
(-6.81216 0 -0.0413439)
(-6.24234 0 -0.111779)
(-5.58676 0 -0.185255)
(-4.85193 0 -0.255938)
(-4.04658 0 -0.318986)
(-3.1814 0 -0.371207)
(-2.26861 0 -0.410864)
(-1.32152 0 -0.437112)
(-0.354258 0 -0.449447)
(0.923219 0 -1.67873)
(2.3684 0 -1.65758)
(3.79643 0 -1.61871)
(5.19766 0 -1.56354)
(6.56351 0 -1.49377)
(7.88612 0 -1.41085)
(9.15725 0 -1.31542)
(10.3665 0 -1.20678)
(11.4997 0 -1.08247)
(12.5371 0 -0.938208)
(13.4543 0 -0.767595)
(14.2215 0 -0.561876)
(14.8043 0 -0.310189)
(15.1625 0 -0.00235123)
(15.2473 0 0.359501)
(15.0051 0 0.742212)
(14.3956 0 1.09015)
(13.4035 0 1.36922)
(12.043 0 1.56499)
(10.3894 0 1.66503)
(8.55992 0 1.66519)
(6.67697 0 1.57561)
(4.84155 0 1.43817)
(3.10329 0 1.30445)
(1.45818 0 1.21317)
(-0.134543 0 1.18466)
(-1.73208 0 1.22437)
(-3.39016 0 1.32456)
(-5.14473 0 1.46184)
(-6.99141 0 1.59448)
(-8.87091 0 1.6706)
(-10.6757 0 1.65237)
(-12.2821 0 1.53464)
(-13.5774 0 1.32245)
(-14.497 0 1.02901)
(-15.0345 0 0.670094)
(-15.2089 0 0.285695)
(-15.0649 0 -0.0691184)
(-14.6563 0 -0.367451)
(-14.0304 0 -0.610831)
(-13.2264 0 -0.810059)
(-12.2781 0 -0.975724)
(-11.2144 0 -1.11615)
(-10.0592 0 -1.23733)
(-8.83096 0 -1.34322)
(-7.54337 0 -1.4359)
(-6.2063 0 -1.51581)
(-4.8279 0 -1.58209)
(-3.41625 0 -1.63321)
(-1.98028 0 -1.66753)
(-0.529915 0 -1.68374)
(0.924322 0 -1.68118)
(2.37182 0 -1.65995)
(3.80213 0 -1.62093)
(5.2056 0 -1.56552)
(6.57356 0 -1.49541)
(7.89806 0 -1.412)
(9.17063 0 -1.31584)
(10.3806 0 -1.20608)
(11.513 0 -1.08013)
(12.5479 0 -0.933528)
(13.4601 0 -0.759662)
(14.2192 0 -0.549556)
(14.7902 0 -0.292233)
(15.132 0 0.0220864)
(15.1949 0 0.389198)
(14.9252 0 0.772484)
(14.285 0 1.11614)
(13.2609 0 1.38875)
(11.8719 0 1.5764)
(10.1992 0 1.6674)
(8.36223 0 1.65802)
(6.4827 0 1.56188)
(4.65754 0 1.42295)
(2.9308 0 1.29239)
(1.29388 0 1.20707)
(-0.296504 0 1.18567)
(-1.89815 0 1.23229)
(-3.56568 0 1.33786)
(-5.33199 0 1.47718)
(-7.18759 0 1.60685)
(-9.06772 0 1.6753)
(-10.8619 0 1.64754)
(-12.4463 0 1.52086)
(-13.7115 0 1.30101)
(-14.5991 0 1.00154)
(-15.1064 0 0.639329)
(-15.2546 0 0.257008)
(-15.0901 0 -0.0918929)
(-14.6664 0 -0.38384)
(-14.0297 0 -0.62191)
(-13.2185 0 -0.817075)
(-12.2659 0 -0.979755)
(-11.2002 0 -1.11805)
(-10.0446 0 -1.23775)
(-8.81729 0 -1.34263)
(-7.53126 0 -1.43465)
(-6.19612 0 -1.5141)
(-4.81985 0 -1.58007)
(-3.41044 0 -1.63097)
(-1.97675 0 -1.66514)
(-0.528697 0 -1.68129)
(1.03498 0 -3.18385)
(2.65419 0 -3.14909)
(4.25158 0 -3.08483)
(5.814 0 -2.99281)
(7.32836 0 -2.87488)
(8.78134 0 -2.73232)
(10.159 0 -2.56499)
(11.4466 0 -2.37084)
(12.6279 0 -2.14583)
(13.6865 0 -1.8842)
(14.6054 0 -1.5789)
(15.3688 0 -1.22178)
(15.9634 0 -0.804064)
(16.3797 0 -0.317077)
(16.6105 0 0.248116)
(16.6387 0 0.903686)
(16.4081 0 1.65853)
(15.8174 0 2.47067)
(14.7752 0 3.19088)
(13.2444 0 3.65382)
(11.2795 0 3.84879)
(9.03355 0 3.82258)
(6.68323 0 3.64845)
(4.34585 0 3.434)
(2.0605 0 3.27361)
(-0.188426 0 3.22164)
(-2.44054 0 3.29321)
(-4.73336 0 3.46687)
(-7.07539 0 3.68092)
(-9.41501 0 3.83568)
(-11.622 0 3.82677)
(-13.516 0 3.58656)
(-14.9577 0 3.07243)
(-15.9112 0 2.31995)
(-16.4257 0 1.50865)
(-16.5984 0 0.769092)
(-16.526 0 0.128884)
(-16.2552 0 -0.423316)
(-15.7999 0 -0.898765)
(-15.1671 0 -1.30618)
(-14.3672 0 -1.65427)
(-13.4142 0 -1.95171)
(-12.3244 0 -2.20646)
(-11.1148 0 -2.42538)
(-9.80229 0 -2.61396)
(-8.40267 0 -2.77587)
(-6.93084 0 -2.91278)
(-5.40072 0 -3.02451)
(-3.8257 0 -3.10963)
(-2.21901 0 -3.1663)
(-0.593975 0 -3.19294)
(1.03597 0 -3.18874)
(2.65736 0 -3.15383)
(4.25676 0 -3.08926)
(5.8209 0 -2.99674)
(7.33654 0 -2.87808)
(8.79018 0 -2.73443)
(10.1677 0 -2.56552)
(11.4539 0 -2.36915)
(12.6326 0 -2.14109)
(13.6869 0 -1.87546)
(14.5999 0 -1.56507)
(15.3556 0 -1.20171)
(15.941 0 -0.77663)
(16.3468 0 -0.281219)
(16.5657 0 0.293512)
(16.5783 0 0.960044)
(16.3237 0 1.72525)
(15.6982 0 2.53838)
(14.614 0 3.24063)
(13.0413 0 3.67745)
(11.0451 0 3.84951)
(8.78531 0 3.80595)
(6.43532 0 3.62398)
(4.10465 0 3.41238)
(1.82547 0 3.26218)
(-0.421576 0 3.22354)
(-2.67697 0 3.30796)
(-4.97663 0 3.49023)
(-7.32448 0 3.70441)
(-9.66122 0 3.84824)
(-11.8495 0 3.8203)
(-13.7082 0 3.55614)
(-15.1069 0 3.01593)
(-16.0199 0 2.25077)
(-16.5022 0 1.44418)
(-16.6536 0 0.715695)
(-16.5671 0 0.086087)
(-16.2848 0 -0.456906)
(-15.8192 0 -0.924209)
(-15.1776 0 -1.32456)
(-14.3704 0 -1.66673)
(-13.4119 0 -1.95938)
(-12.3183 0 -2.21039)
(-11.1064 0 -2.4265)
(-9.79279 0 -2.61303)
(-8.39319 0 -2.77351)
(-6.92217 0 -2.90943)
(-5.39345 0 -3.02047)
(-3.82022 0 -3.10514)
(-2.21559 0 -3.16153)
(-0.592739 0 -3.18803)
(1.08288 0 -4.86736)
(2.77511 0 -4.81425)
(4.43941 0 -4.71561)
(6.05889 0 -4.57332)
(7.61682 0 -4.38932)
(9.09661 0 -4.16486)
(10.4819 0 -3.89991)
(11.757 0 -3.59273)
(12.9065 0 -3.23998)
(13.9166 0 -2.83705)
(14.7745 0 -2.37838)
(15.4691 0 -1.8577)
(15.9913 0 -1.26795)
(16.3336 0 -0.600484)
(16.4883 0 0.157022)
(16.447 0 1.02179)
(16.2012 0 2.00343)
(15.7421 0 3.07798)
(15.0326 0 4.18482)
(13.9492 0 5.21774)
(12.3306 0 5.95275)
(10.197 0 6.22803)
(7.71502 0 6.16771)
(5.08867 0 5.96447)
(2.43287 0 5.78266)
(-0.220626 0 5.72021)
(-2.87405 0 5.80477)
(-5.52687 0 5.99719)
(-8.13673 0 6.18683)
(-10.5706 0 6.20113)
(-12.6205 0 5.84838)
(-14.1375 0 5.03985)
(-15.1382 0 3.98012)
(-15.7937 0 2.87111)
(-16.2094 0 1.80717)
(-16.4132 0 0.843437)
(-16.4134 0 -0.00329933)
(-16.2184 0 -0.745832)
(-15.8367 0 -1.40069)
(-15.2757 0 -1.97923)
(-14.5434 0 -2.48961)
(-13.6493 0 -2.93867)
(-12.6049 0 -3.33253)
(-11.4233 0 -3.67656)
(-10.1192 0 -3.97518)
(-8.70786 0 -4.23145)
(-7.20556 0 -4.44676)
(-5.62887 0 -4.62089)
(-3.9946 0 -4.75241)
(-2.3197 0 -4.83939)
(-0.621278 0 -4.88014)
(1.08345 0 -4.87372)
(2.77718 0 -4.82029)
(4.44273 0 -4.72103)
(6.06304 0 -4.57777)
(7.62119 0 -4.39236)
(9.10042 0 -4.16596)
(10.4842 0 -3.8984)
(11.7566 0 -3.5878)
(12.9022 0 -3.2307)
(13.9071 0 -2.82239)
(14.7583 0 -2.35727)
(15.4449 0 -1.82906)
(15.9579 0 -1.23065)
(16.2896 0 -0.553287)
(16.4324 0 0.215707)
(16.3777 0 1.09366)
(16.1172 0 2.08805)
(15.6412 0 3.17098)
(14.9069 0 4.27864)
(13.7809 0 5.29654)
(12.1114 0 5.98976)
(9.93805 0 6.22566)
(7.43684 0 6.1447)
(4.80676 0 5.93924)
(2.15225 0 5.76838)
(-0.500579 0 5.72263)
(-3.15511 0 5.82299)
(-5.80867 0 6.02349)
(-8.41176 0 6.20616)
(-10.8205 0 6.19437)
(-12.8265 0 5.79847)
(-14.2921 0 4.95439)
(-15.2556 0 3.88537)
(-15.8893 0 2.77961)
(-16.289 0 1.72558)
(-16.4784 0 0.775091)
(-16.4655 0 -0.0588379)
(-16.259 0 -0.79036)
(-15.8671 0 -1.43569)
(-15.2971 0 -2.00588)
(-14.5571 0 -2.50902)
(-13.6567 0 -2.95194)
(-12.6073 0 -3.3407)
(-11.4222 0 -3.68063)
(-10.1156 0 -3.97605)
(-8.70303 0 -4.22989)
(-7.20036 0 -4.4434)
(-5.62404 0 -4.61623)
(-3.99071 0 -4.74685)
(-2.31713 0 -4.83327)
(-0.620244 0 -4.87376)
(1.09269 0 -6.59951)
(2.79864 0 -6.52564)
(4.47214 0 -6.3881)
(6.09371 0 -6.18897)
(7.64434 0 -5.93041)
(9.10568 0 -5.61406)
(10.4603 0 -5.24044)
(11.6919 0 -4.80866)
(12.7858 0 -4.31646)
(13.7289 0 -3.76055)
(14.5099 0 -3.13696)
(15.1187 0 -2.44121)
(15.5472 0 -1.66819)
(15.7879 0 -0.811405)
(15.8354 0 0.138475)
(15.6884 0 1.1936)
(15.3533 0 2.36174)
(14.8381 0 3.63476)
(14.1394 0 4.98665)
(13.2314 0 6.35298)
(12.0219 0 7.58601)
(10.3239 0 8.44754)
(8.05392 0 8.76178)
(5.41497 0 8.71293)
(2.61555 0 8.57766)
(-0.235618 0 8.52296)
(-3.08179 0 8.59435)
(-5.86213 0 8.72715)
(-8.4522 0 8.7319)
(-10.6309 0 8.32544)
(-12.2266 0 7.37761)
(-13.3695 0 6.10458)
(-14.2335 0 4.73017)
(-14.8949 0 3.38652)
(-15.3739 0 2.12765)
(-15.6712 0 0.97644)
(-15.7781 0 -0.0621776)
(-15.6896 0 -0.997572)
(-15.408 0 -1.84149)
(-14.9394 0 -2.60253)
(-14.2911 0 -3.28676)
(-13.4721 0 -3.89904)
(-12.4926 0 -4.44371)
(-11.3645 0 -4.92457)
(-10.1013 0 -5.34475)
(-8.71838 0 -5.70623)
(-7.23237 0 -6.00964)
(-5.66118 0 -6.25423)
(-4.02354 0 -6.43825)
(-2.33879 0 -6.55954)
(-0.62669 0 -6.61624)
(1.09274 0 -6.60732)
(2.79938 0 -6.53294)
(4.47328 0 -6.39441)
(6.09477 0 -6.19375)
(7.64466 0 -5.93305)
(9.10441 0 -5.61384)
(10.4564 0 -5.23653)
(11.6844 0 -4.80011)
(12.7734 0 -4.30224)
(13.7104 0 -3.73958)
(14.484 0 -3.10816)
(15.0842 0 -2.40354)
(15.5028 0 -1.62062)
(15.7324 0 -0.752826)
(15.7678 0 0.209332)
(15.6083 0 1.27796)
(15.2608 0 2.4597)
(14.733 0 3.74456)
(14.0198 0 5.10443)
(13.0916 0 6.46814)
(11.8468 0 7.67885)
(10.093 0 8.49108)
(7.77806 0 8.75904)
(5.11774 0 8.69337)
(2.31132 0 8.56422)
(-0.541204 0 8.52532)
(-3.38486 0 8.61103)
(-6.15548 0 8.74504)
(-8.71824 0 8.72472)
(-10.8458 0 8.26635)
(-12.3899 0 7.27611)
(-13.5026 0 5.98701)
(-14.3486 0 4.61374)
(-14.9961 0 3.27948)
(-15.4627 0 2.03309)
(-15.7476 0 0.895636)
(-15.842 0 -0.129748)
(-15.7416 0 -1.05324)
(-15.4492 0 -1.88648)
(-14.9709 0 -2.63791)
(-14.3143 0 -3.31355)
(-13.4883 0 -3.9183)
(-12.5029 0 -4.45651)
(-11.3702 0 -4.93198)
(-10.1036 0 -5.34776)
(-8.71833 0 -5.70577)
(-7.23094 0 -6.0065)
(-5.65917 0 -6.2491)
(-4.02157 0 -6.43171)
(-2.3373 0 -6.55211)
(-0.625932 0 -6.6084)
(1.07262 0 -8.30252)
(2.74582 0 -8.20465)
(4.38346 0 -8.0223)
(5.96436 0 -7.75807)
(7.46815 0 -7.41492)
(8.87552 0 -6.99557)
(10.1686 0 -6.50195)
(11.3311 0 -5.93488)
(12.3489 0 -5.29397)
(13.2097 0 -4.57782)
(13.903 0 -3.7841)
(14.4202 0 -2.90976)
(14.7541 0 -1.95085)
(14.899 0 -0.9023)
(14.8517 0 0.242187)
(14.6135 0 1.48866)
(14.1918 0 2.8374)
(13.5979 0 4.27706)
(12.8418 0 5.787)
(11.9282 0 7.33737)
(10.8402 0 8.86134)
(9.48428 0 10.1938)
(7.669 0 11.0774)
(5.30399 0 11.4098)
(2.60137 0 11.4395)
(-0.233346 0 11.4229)
(-3.05576 0 11.4377)
(-5.71653 0 11.3743)
(-7.99496 0 10.9549)
(-9.71482 0 9.974)
(-11.0097 0 8.58825)
(-12.061 0 7.04862)
(-12.9433 0 5.49884)
(-13.6676 0 3.99603)
(-14.2273 0 2.56744)
(-14.6122 0 1.23263)
(-14.8111 0 0.000852876)
(-14.8178 0 -1.1296)
(-14.632 0 -2.16497)
(-14.2575 0 -3.11121)
(-13.7005 0 -3.97305)
(-12.9683 0 -4.75411)
(-12.0702 0 -5.45724)
(-11.017 0 -6.0845)
(-9.82171 0 -6.63709)
(-8.49907 0 -7.11511)
(-7.06589 0 -7.51752)
(-5.54063 0 -7.84222)
(-3.94307 0 -8.08642)
(-2.294 0 -8.24727)
(-0.614956 0 -8.32242)
(1.07213 0 -8.31059)
(2.74519 0 -8.212)
(4.38238 0 -8.02826)
(5.96233 0 -7.76192)
(7.4645 0 -7.41586)
(8.86943 0 -6.99275)
(10.1591 0 -6.49441)
(11.3172 0 -5.92159)
(12.3294 0 -5.27385)
(13.1835 0 -4.54976)
(13.8689 0 -3.74702)
(14.3771 0 -2.86261)
(14.7008 0 -1.89263)
(14.8346 0 -0.832048)
(14.7754 0 0.325364)
(14.525 0 1.58529)
(14.0915 0 2.94701)
(13.4861 0 4.39794)
(12.7187 0 5.91678)
(11.7928 0 7.47166)
(10.6876 0 8.98926)
(9.29782 0 10.2919)
(7.42852 0 11.1217)
(5.0195 0 11.413)
(2.29742 0 11.4334)
(-0.541863 0 11.4242)
(-3.3561 0 11.4438)
(-5.99181 0 11.3632)
(-8.21955 0 10.8951)
(-9.88986 0 9.86496)
(-11.1564 0 8.45663)
(-12.1927 0 6.9147)
(-13.0631 0 5.371)
(-13.776 0 3.87778)
(-14.3242 0 2.46102)
(-14.6971 0 1.13944)
(-14.8838 0 -0.0789534)
(-14.8787 0 -1.19673)
(-14.682 0 -2.22034)
(-14.2976 0 -3.1558)
(-13.7318 0 -4.00785)
(-12.992 0 -4.78019)
(-12.0874 0 -5.47567)
(-11.029 0 -6.09639)
(-9.82943 0 -6.64349)
(-8.50361 0 -7.11704)
(-7.06819 0 -7.5159)
(-5.54147 0 -7.83788)
(-3.94308 0 -8.08013)
(-2.29365 0 -8.23972)
(-0.614498 0 -8.31428)
(1.02811 0 -9.95693)
(2.63063 0 -9.83349)
(4.19577 0 -9.60349)
(5.70144 0 -9.27028)
(7.12662 0 -8.83793)
(8.45171 0 -8.31059)
(9.65887 0 -7.69194)
(10.7323 0 -6.98477)
(11.6584 0 -6.19081)
(12.4258 0 -5.31068)
(13.0252 0 -4.34395)
(13.4491 0 -3.2893)
(13.6919 0 -2.14453)
(13.7499 0 -0.906813)
(13.6222 0 0.426741)
(13.3115 0 1.85742)
(12.8256 0 3.38127)
(12.1752 0 4.98584)
(11.3718 0 6.65041)
(10.4269 0 8.34555)
(9.34748 0 10.0276)
(8.11706 0 11.6177)
(6.63376 0 12.9416)
(4.72183 0 13.7746)
(2.36314 0 14.1195)
(-0.211195 0 14.189)
(-2.76588 0 14.08)
(-5.06049 0 13.6606)
(-6.88751 0 12.73)
(-8.31319 0 11.3391)
(-9.51121 0 9.72069)
(-10.5644 0 8.0286)
(-11.4819 0 6.33222)
(-12.2554 0 4.67225)
(-12.8732 0 3.07632)
(-13.3238 0 1.56394)
(-13.5968 0 0.146055)
(-13.6855 0 -1.17444)
(-13.5877 0 -2.39918)
(-13.305 0 -3.53096)
(-12.8417 0 -4.57237)
(-12.2037 0 -5.52527)
(-11.399 0 -6.39071)
(-10.4374 0 -7.16879)
(-9.33093 0 -7.85861)
(-8.09388 0 -8.45818)
(-6.74269 0 -8.96447)
(-5.29583 0 -9.3737)
(-3.77347 0 -9.68172)
(-2.1971 0 -9.88464)
(-0.589222 0 -9.97943)
(1.02712 0 -9.96451)
(2.6287 0 -9.84014)
(4.1926 0 -9.60834)
(5.69654 0 -9.27244)
(7.11936 0 -8.83646)
(8.44131 0 -8.30448)
(9.64444 0 -7.68014)
(10.7129 0 -6.96618)
(11.633 0 -6.1643)
(12.3933 0 -5.27512)
(12.9846 0 -4.29828)
(13.3994 0 -3.23249)
(13.6322 0 -2.07568)
(13.6794 0 -0.825154)
(13.5402 0 0.521747)
(13.218 0 1.96584)
(12.7208 0 3.50237)
(12.0596 0 5.11791)
(11.2459 0 6.79092)
(10.291 0 8.4908)
(9.20094 0 10.172)
(7.95427 0 11.7492)
(6.43766 0 13.0364)
(4.47735 0 13.8188)
(2.08606 0 14.1312)
(-0.496152 0 14.1876)
(-3.03674 0 14.0621)
(-5.29173 0 13.6032)
(-7.07243 0 12.6226)
(-8.4702 0 11.2021)
(-9.65451 0 9.57509)
(-10.6975 0 7.884)
(-11.6049 0 6.1935)
(-12.3679 0 4.54272)
(-12.9747 0 2.9583)
(-13.4139 0 1.45888)
(-13.6754 0 0.0544477)
(-13.7527 0 -1.25284)
(-13.6442 0 -2.46498)
(-13.3517 0 -3.58498)
(-12.8795 0 -4.61554)
(-12.2336 0 -5.55861)
(-11.4221 0 -6.4153)
(-10.4547 0 -7.18575)
(-9.34345 0 -7.86906)
(-8.10256 0 -8.46319)
(-6.74841 0 -8.96509)
(-5.29934 0 -9.3709)
(-3.77537 0 -9.67642)
(-2.19784 0 -9.87773)
(-0.58906 0 -9.97177)
(0.963783 0 -11.523)
(2.46491 0 -11.3731)
(3.92796 0 -11.094)
(5.33059 0 -10.6898)
(6.65174 0 -10.1661)
(7.87204 0 -9.52877)
(8.97413 0 -8.78351)
(9.94293 0 -7.93538)
(10.7657 0 -6.98841)
(11.4323 0 -5.94543)
(11.9344 0 -4.80815)
(12.2664 0 -3.57717)
(12.4241 0 -2.25234)
(12.4059 0 -0.833193)
(12.2126 0 0.680036)
(11.8484 0 2.28477)
(11.3211 0 3.97345)
(10.6411 0 5.73167)
(9.82034 0 7.53802)
(8.87139 0 9.36404)
(7.80606 0 11.1722)
(6.6324 0 12.9075)
(5.32912 0 14.4692)
(3.79456 0 15.6746)
(1.92726 0 16.3647)
(-0.171076 0 16.5521)
(-2.24648 0 16.278)
(-4.05607 0 15.4909)
(-5.54006 0 14.2047)
(-6.81446 0 12.5981)
(-7.96725 0 10.8405)
(-9.01038 0 9.02181)
(-9.93462 0 7.19229)
(-10.7279 0 5.38781)
(-11.3776 0 3.63555)
(-11.872 0 1.95586)
(-12.201 0 0.361991)
(-12.3575 0 -1.13937)
(-12.338 0 -2.54607)
(-12.1422 0 -3.85793)
(-11.7722 0 -5.07519)
(-11.2325 0 -6.1977)
(-10.5296 0 -7.22449)
(-9.67203 0 -8.15351)
(-8.6708 0 -8.98155)
(-7.53928 0 -9.7043)
(-6.29327 0 -10.3165)
(-4.95079 0 -10.8123)
(-3.53185 0 -11.186)
(-2.05805 0 -11.4323)
(-0.552157 0 -11.5475)
(0.962358 0 -11.5293)
(2.46184 0 -11.3783)
(3.92296 0 -11.097)
(5.32322 0 -10.6896)
(6.64141 0 -10.1616)
(7.85804 0 -9.51878)
(8.95564 0 -8.76694)
(9.91909 0 -7.91108)
(10.7356 0 -6.95521)
(11.395 0 -5.90223)
(11.8892 0 -4.75388)
(12.2122 0 -3.51089)
(12.3603 0 -2.17324)
(12.3318 0 -0.740705)
(12.128 0 0.786148)
(11.7531 0 2.40421)
(11.2155 0 4.10521)
(10.5256 0 5.87392)
(9.69546 0 7.6882)
(8.73777 0 9.51872)
(7.66413 0 11.3269)
(6.48171 0 13.0549)
(5.16281 0 14.595)
(3.59856 0 15.758)
(1.69956 0 16.4001)
(-0.408371 0 16.5468)
(-2.46701 0 16.2301)
(-4.24269 0 15.3943)
(-5.70073 0 14.071)
(-6.96237 0 12.4475)
(-8.10681 0 10.6851)
(-9.14154 0 8.86776)
(-10.0569 0 7.04374)
(-10.8406 0 5.24793)
(-11.4802 0 3.50672)
(-11.9641 0 1.83968)
(-12.2825 0 0.25927)
(-12.4284 0 -1.22852)
(-12.3988 0 -2.62199)
(-12.1934 0 -3.92125)
(-11.8147 0 -5.12675)
(-11.2672 0 -6.23848)
(-10.5573 0 -7.25556)
(-9.69368 0 -8.17598)
(-8.68729 0 -8.99657)
(-7.55147 0 -9.71301)
(-6.30193 0 -10.32)
(-4.95663 0 -10.8118)
(-3.53542 0 -11.1825)
(-2.05977 0 -11.4268)
(-0.552268 0 -11.541)
(0.883444 0 -12.9741)
(2.25836 0 -12.7977)
(3.59551 0 -12.4692)
(4.87288 0 -11.9941)
(6.06986 0 -11.3794)
(7.16775 0 -10.6329)
(8.15004 0 -9.76277)
(9.00267 0 -8.77633)
(9.71411 0 -7.6801)
(10.2754 0 -6.47935)
(10.6799 0 -5.17803)
(10.9233 0 -3.77892)
(11.0035 0 -2.28405)
(10.9206 0 -0.695345)
(10.6773 0 0.984203)
(10.2789 0 2.7489)
(9.73375 0 4.58837)
(9.05247 0 6.48618)
(8.24733 0 8.41955)
(7.33207 0 10.3592)
(6.32118 0 12.2687)
(5.22984 0 14.1007)
(4.07014 0 15.7793)
(2.8186 0 17.1669)
(1.41518 0 18.0695)
(-0.123108 0 18.3437)
(-1.64626 0 17.9503)
(-3.02034 0 16.9459)
(-4.25092 0 15.4899)
(-5.39722 0 13.7723)
(-6.47378 0 11.9179)
(-7.4666 0 9.99527)
(-8.36069 0 8.04919)
(-9.14161 0 6.11481)
(-9.79583 0 4.22027)
(-10.3113 0 2.38739)
(-10.6778 0 0.631595)
(-10.8875 0 -1.03747)
(-10.9355 0 -2.61456)
(-10.8197 0 -4.09676)
(-10.5404 0 -5.48197)
(-10.1004 0 -6.76783)
(-9.50444 0 -7.95115)
(-8.75973 0 -9.02753)
(-7.87594 0 -9.99131)
(-6.86532 0 -10.8357)
(-5.74266 0 -11.5529)
(-4.52517 0 -12.1351)
(-3.23223 0 -12.5745)
(-1.885 0 -12.8643)
(-0.505945 0 -12.9998)
(0.881663 0 -12.9785)
(2.25436 0 -12.8007)
(3.58903 0 -12.4697)
(4.86351 0 -11.9909)
(6.05709 0 -11.3712)
(7.15094 0 -10.6187)
(8.12849 0 -9.74114)
(8.97561 0 -8.74613)
(9.68079 0 -7.64017)
(10.235 0 -6.42859)
(10.6318 0 -5.11543)
(10.8668 0 -3.70361)
(10.9381 0 -2.19536)
(10.8459 0 -0.592877)
(10.593 0 1.10043)
(10.1852 0 2.87833)
(9.6309 0 4.72974)
(8.941 0 6.6375)
(8.12794 0 8.5781)
(7.20557 0 10.5216)
(6.18846 0 12.4307)
(5.09193 0 14.2564)
(3.92652 0 15.9185)
(2.66327 0 17.2718)
(1.24339 0 18.1218)
(-0.301406 0 18.3353)
(-1.81377 0 17.8824)
(-3.17161 0 16.8295)
(-4.39254 0 15.3447)
(-5.5337 0 13.6139)
(-6.60479 0 11.7551)
(-7.59114 0 9.83335)
(-8.47788 0 7.89206)
(-9.25065 0 5.96569)
(-9.89608 0 4.08169)
(-10.4023 0 2.26113)
(-10.7593 0 0.518717)
(-10.9594 0 -1.13656)
(-10.9981 0 -2.69998)
(-10.8734 0 -4.16899)
(-10.5859 0 -5.54171)
(-10.1383 0 -6.816)
(-9.53543 0 -7.98877)
(-8.7846 0 -9.05571)
(-7.89547 0 -10.0112)
(-6.88026 0 -10.8485)
(-5.75369 0 -11.5599)
(-4.53291 0 -12.1374)
(-3.23719 0 -12.5733)
(-1.88754 0 -12.8609)
(-0.506294 0 -12.9953)
(0.790178 0 -14.2878)
(2.0189 0 -14.0853)
(3.21107 0 -13.7085)
(4.34549 0 -13.1642)
(5.4025 0 -12.461)
(6.36443 0 -11.609)
(7.21597 0 -10.6185)
(7.94434 0 -9.49949)
(8.53942 0 -8.26115)
(8.99371 0 -6.91123)
(9.3022 0 -5.4561)
(9.4623 0 -3.90084)
(9.47369 0 -2.24973)
(9.33831 0 -0.507042)
(9.06044 0 1.32174)
(8.64688 0 3.2283)
(8.10684 0 5.19983)
(7.45169 0 7.21795)
(6.69463 0 9.25814)
(5.85083 0 11.2894)
(4.93752 0 13.2736)
(3.97468 0 15.1625)
(2.98612 0 16.8867)
(1.98765 0 18.3264)
(0.96794 0 19.2944)
(-0.0809547 0 19.5983)
(-1.12604 0 19.1643)
(-2.14014 0 18.0944)
(-3.13591 0 16.5884)
(-4.12037 0 14.8237)
(-5.07445 0 12.9089)
(-5.97476 0 10.9081)
(-6.8019 0 8.86706)
(-7.53899 0 6.82282)
(-8.17119 0 4.80522)
(-8.68561 0 2.83782)
(-9.07122 0 0.938118)
(-9.3192 0 -0.881765)
(-9.42324 0 -2.61394)
(-9.37952 0 -4.25299)
(-9.18658 0 -5.79447)
(-8.84523 0 -7.23373)
(-8.35864 0 -8.5652)
(-7.73244 0 -9.78205)
(-6.9748 0 -10.876)
(-6.09658 0 -11.8376)
(-5.11129 0 -12.6567)
(-4.03499 0 -13.3228)
(-2.88601 0 -13.8263)
(-1.68458 0 -14.1587)
(-0.452367 0 -14.3142)
(0.788138 0 -14.2897)
(2.0142 0 -14.0858)
(3.20348 0 -13.7062)
(4.33467 0 -13.1577)
(5.38798 0 -12.449)
(6.34569 0 -11.5902)
(7.1924 0 -10.5917)
(7.91532 0 -9.46342)
(8.50432 0 -8.21466)
(8.95192 0 -6.85325)
(9.2532 0 -5.38568)
(9.40561 0 -3.81722)
(9.40898 0 -2.15236)
(9.26538 0 -0.395701)
(8.97931 0 1.44682)
(8.55777 0 3.36632)
(8.01019 0 5.34932)
(7.34814 0 7.37673)
(6.58504 0 9.42331)
(5.73625 0 11.4574)
(4.81928 0 13.4399)
(3.8545 0 15.3215)
(2.86587 0 17.0293)
(1.867 0 18.437)
(0.844509 0 19.3521)
(-0.205929 0 19.5888)
(-1.24856 0 19.0902)
(-2.2604 0 17.973)
(-3.2562 0 16.44)
(-4.24015 0 14.6619)
(-5.19176 0 12.7415)
(-6.08801 0 10.7403)
(-6.90985 0 8.70304)
(-7.64062 0 6.66601)
(-8.26572 0 4.65833)
(-8.77242 0 2.70283)
(-9.14992 0 0.816317)
(-9.38963 0 -0.98975)
(-9.48545 0 -2.70801)
(-9.43373 0 -4.33346)
(-9.23317 0 -5.86193)
(-8.88468 0 -7.28899)
(-8.39152 0 -8.60926)
(-7.75935 0 -9.81597)
(-6.99638 0 -10.901)
(-6.11346 0 -11.8549)
(-5.12405 0 -12.6674)
(-4.04416 0 -13.3284)
(-2.89202 0 -13.8279)
(-1.68776 0 -14.1578)
(-0.452908 0 -14.3121)
(0.686473 0 -15.446)
(1.75291 0 -15.2186)
(2.78482 0 -14.7958)
(3.76231 0 -14.1855)
(4.66706 0 -13.3983)
(5.48282 0 -12.4465)
(6.19576 0 -11.3427)
(6.79463 0 -10.0998)
(7.27088 0 -8.72949)
(7.61861 0 -7.24215)
(7.83452 0 -5.64665)
(7.91771 0 -3.95044)
(7.86963 0 -2.16008)
(7.69397 0 -0.282139)
(7.39666 0 1.6756)
(6.98589 0 3.70247)
(6.47205 0 5.78349)
(5.86753 0 7.89828)
(5.18673 0 10.0203)
(4.44625 0 12.1161)
(3.66545 0 14.1445)
(2.86723 0 16.0537)
(2.07926 0 17.7724)
(1.32893 0 19.1896)
(0.625281 0 20.1366)
(-0.0495164 0 20.4337)
(-0.727016 0 20.009)
(-1.43759 0 18.9612)
(-2.195 0 17.4756)
(-2.9857 0 15.7118)
(-3.78116 0 13.7719)
(-4.55451 0 11.7225)
(-5.28349 0 9.61328)
(-5.94927 0 7.48399)
(-6.53563 0 5.36684)
(-7.02851 0 3.28737)
(-7.41586 0 1.26515)
(-7.68764 0 -0.685481)
(-7.83609 0 -2.55426)
(-7.85569 0 -4.33346)
(-7.74323 0 -6.01629)
(-7.49777 0 -7.59579)
(-7.12074 0 -9.06396)
(-6.6161 0 -10.4114)
(-5.9904 0 -11.6272)
(-5.25293 0 -12.6992)
(-4.41567 0 -13.6146)
(-3.49318 0 -14.3604)
(-2.50238 0 -14.9249)
(-1.46215 0 -15.298)
(-0.392851 0 -15.4726)
(0.684277 0 -15.4451)
(1.74776 0 -15.2161)
(2.77653 0 -14.7902)
(3.75059 0 -14.1754)
(4.65153 0 -13.3823)
(5.46304 0 -12.4231)
(6.17124 0 -11.3108)
(6.76487 0 -10.0581)
(7.23541 0 -8.6768)
(7.57701 0 -7.17749)
(7.7864 0 -5.56914)
(7.86282 0 -3.85942)
(7.80783 0 -2.05516)
(7.62527 0 -0.163252)
(7.32126 0 1.80802)
(6.9042 0 3.84742)
(6.38466 0 5.93929)
(5.77527 0 8.06253)
(5.09062 0 10.1898)
(4.3476 0 12.2871)
(3.56588 0 14.3122)
(2.76886 0 16.2119)
(1.98462 0 17.9123)
(1.23973 0 19.2971)
(0.540507 0 20.1927)
(-0.132975 0 20.4245)
(-0.812729 0 19.9369)
(-1.52828 0 18.843)
(-2.29087 0 17.3295)
(-3.08459 0 15.5502)
(-3.88061 0 13.6026)
(-4.65255 0 11.5512)
(-5.3786 0 9.44453)
(-6.04021 0 7.32145)
(-6.62143 0 5.21343)
(-7.10841 0 3.1453)
(-7.48929 0 1.13589)
(-7.75427 0 -0.801078)
(-7.89575 0 -2.65591)
(-7.90842 0 -4.42129)
(-7.7892 0 -6.09079)
(-7.53726 0 -7.65767)
(-7.15415 0 -9.11412)
(-6.64388 0 -10.4509)
(-6.01304 0 -11.6572)
(-5.27092 0 -12.7209)
(-4.42948 0 -13.6293)
(-3.50326 0 -14.3695)
(-2.50909 0 -14.9297)
(-1.46576 0 -15.3001)
(-0.393536 0 -15.4733)
(0.574318 0 -16.4343)
(1.46547 0 -16.1837)
(2.3249 0 -15.718)
(3.13442 0 -15.0465)
(3.87747 0 -14.1816)
(4.53954 0 -13.1377)
(5.10853 0 -11.9303)
(5.57492 0 -10.5746)
(5.93186 0 -9.08515)
(6.17516 0 -7.47489)
(6.30317 0 -5.75521)
(6.31668 0 -3.93597)
(6.21878 0 -2.02601)
(6.01479 0 -0.0340898)
(5.71214 0 2.02981)
(5.32037 0 4.15289)
(4.851 0 6.31815)
(4.3174 0 8.50321)
(3.73491 0 10.6794)
(3.12103 0 12.8107)
(2.4959 0 14.8527)
(1.88277 0 16.7498)
(1.30816 0 18.4286)
(0.79774 0 19.7848)
(0.361104 0 20.6742)
(-0.0262631 0 20.95)
(-0.418604 0 20.5544)
(-0.866861 0 19.5669)
(-1.38907 0 18.1397)
(-1.97133 0 16.4108)
(-2.58702 0 14.4778)
(-3.21009 0 12.4103)
(-3.81782 0 10.2618)
(-4.39055 0 8.0749)
(-4.91117 0 5.88443)
(-5.36466 0 3.71803)
(-5.73795 0 1.59724)
(-6.01986 0 -0.461557)
(-6.20123 0 -2.44591)
(-6.275 0 -4.34586)
(-6.23633 0 -6.15241)
(-6.0826 0 -7.85623)
(-5.81356 0 -9.44689)
(-5.43147 0 -10.9124)
(-4.94119 0 -12.2392)
(-4.35027 0 -13.4124)
(-3.66895 0 -14.4165)
(-2.91002 0 -15.2362)
(-2.08864 0 -15.8573)
(-1.22194 0 -16.2683)
(-0.328536 0 -16.4607)
(0.572066 0 -16.4304)
(1.46012 0 -16.1781)
(2.31631 0 -15.7091)
(3.12236 0 -15.0327)
(3.86164 0 -14.1615)
(4.51959 0 -13.11)
(5.08409 0 -11.8935)
(5.54563 0 -10.5276)
(5.8974 0 -9.02681)
(6.13526 0 -7.40426)
(6.25763 0 -5.67152)
(6.26543 0 -3.83866)
(6.16188 0 -1.91482)
(5.95245 0 0.0908454)
(5.64476 0 2.16788)
(5.24852 0 4.3029)
(4.77545 0 6.47821)
(4.23913 0 8.67072)
(3.6551 0 10.8509)
(3.04115 0 12.9821)
(2.41772 0 15.0188)
(1.80842 0 16.9041)
(1.24003 0 18.5623)
(0.737586 0 19.8853)
(0.307927 0 20.7258)
(-0.0771632 0 20.9415)
(-0.473356 0 20.4878)
(-0.929229 0 19.4557)
(-1.45911 0 17.9992)
(-2.04694 0 16.2524)
(-2.66583 0 14.3095)
(-3.29007 0 12.2382)
(-3.89729 0 10.0906)
(-4.46813 0 7.90879)
(-4.98572 0 5.72649)
(-5.43526 0 3.57068)
(-5.80388 0 1.46216)
(-6.08058 0 -0.583316)
(-6.25639 0 -2.55387)
(-6.32445 0 -4.44002)
(-6.28003 0 -6.2331)
(-6.12066 0 -7.92405)
(-5.84619 0 -9.50266)
(-5.45897 0 -10.9571)
(-4.96389 0 -12.2739)
(-4.36855 0 -13.4384)
(-3.68316 0 -14.4351)
(-2.92051 0 -15.2488)
(-2.0957 0 -15.8655)
(-1.22579 0 -16.2734)
(-0.329317 0 -16.4644)
(0.455302 0 -17.2408)
(1.16065 0 -16.9692)
(1.8378 0 -16.4648)
(2.47069 0 -15.7381)
(3.04486 0 -14.8035)
(3.54784 0 -13.6775)
(3.96949 0 -12.3781)
(4.3022 0 -10.9232)
(4.5409 0 -9.32975)
(4.68309 0 -7.61347)
(4.72876 0 -5.78817)
(4.68023 0 -3.86606)
(4.5421 0 -1.85821)
(4.32108 0 0.224492)
(4.0259 0 2.37001)
(3.6672 0 4.56361)
(3.25734 0 6.78646)
(2.81035 0 9.01436)
(2.34193 0 11.2166)
(1.86958 0 13.3552)
(1.41268 0 15.383)
(0.992481 0 17.2423)
(0.631115 0 18.8595)
(0.347275 0 20.1388)
(0.143833 0 20.9606)
(-0.00786458 0 21.2121)
(-0.164794 0 20.85)
(-0.38074 0 19.9339)
(-0.678293 0 18.582)
(-1.05058 0 16.9105)
(-1.47766 0 15.0109)
(-1.93737 0 12.9534)
(-2.40872 0 10.7938)
(-2.87264 0 8.57734)
(-3.31193 0 6.34094)
(-3.71118 0 4.11415)
(-4.05662 0 1.92035)
(-4.33615 0 -0.22222)
(-4.53947 0 -2.29914)
(-4.65823 0 -4.29837)
(-4.68612 0 -6.20871)
(-4.61903 0 -8.01858)
(-4.45513 0 -9.71511)
(-4.19502 0 -11.2838)
(-3.84182 0 -12.7084)
(-3.40125 0 -13.9715)
(-2.88162 0 -15.0549)
(-2.29372 0 -15.9408)
(-1.65063 0 -16.613)
(-0.967351 0 -17.0582)
(-0.260333 0 -17.2667)
(0.453092 0 -17.2338)
(1.15536 0 -16.9604)
(1.82931 0 -16.4525)
(2.45883 0 -15.7208)
(3.02941 0 -14.7796)
(3.52855 0 -13.6456)
(3.94612 0 -12.3369)
(4.27451 0 -10.8714)
(4.50871 0 -9.26644)
(4.64629 0 -7.53773)
(4.68732 0 -5.69933)
(4.63427 0 -3.76368)
(4.49186 0 -1.74219)
(4.26695 0 0.353865)
(3.96845 0 2.51195)
(3.60716 0 4.71672)
(3.19563 0 6.94868)
(2.74807 0 9.18287)
(2.28038 0 11.3878)
(1.81023 0 13.5246)
(1.35726 0 15.5452)
(0.942877 0 17.3905)
(0.589203 0 18.9853)
(0.314103 0 20.2312)
(0.117945 0 21.0073)
(-0.0314085 0 21.2045)
(-0.192318 0 20.7897)
(-0.416289 0 19.831)
(-0.722462 0 18.4489)
(-1.10196 0 16.7575)
(-1.53432 0 14.8459)
(-1.99746 0 12.7827)
(-2.47059 0 10.6226)
(-2.93484 0 8.40987)
(-3.37323 0 6.18055)
(-3.77053 0 3.96345)
(-4.11314 0 1.78121)
(-4.38914 0 -0.348577)
(-4.58842 0 -2.41206)
(-4.70278 0 -4.39767)
(-4.72607 0 -6.29459)
(-4.6543 0 -8.09152)
(-4.48576 0 -9.77583)
(-4.22115 0 -11.3332)
(-3.86366 0 -12.7476)
(-3.41903 0 -14.0016)
(-2.89559 0 -15.0773)
(-2.30414 0 -15.957)
(-1.65771 0 -16.6245)
(-0.971252 0 -17.0665)
(-0.261162 0 -17.2735)
(0.330715 0 -17.8561)
(0.841764 0 -17.5662)
(1.32881 0 -17.0281)
(1.7783 0 -16.2536)
(2.17821 0 -15.2588)
(2.51838 0 -14.0624)
(2.79086 0 -12.6847)
(2.99002 0 -11.146)
(3.11264 0 -9.46605)
(3.15788 0 -7.66275)
(3.12724 0 -5.75235)
(3.02443 0 -3.74932)
(2.85531 0 -1.66687)
(2.6277 0 0.482105)
(2.35129 0 2.68369)
(2.03744 0 4.92146)
(1.69897 0 7.17501)
(1.35004 0 9.41865)
(1.00601 0 11.6202)
(0.683373 0 13.7401)
(0.399525 0 15.7301)
(0.172122 0 17.532)
(0.0174165 0 19.075)
(-0.0540851 0 20.273)
(-0.0470685 0 21.0288)
(0.00787065 0 21.2571)
(0.0580014 0 20.927)
(0.0530683 0 20.0815)
(-0.032679 0 18.8106)
(-0.200399 0 17.2107)
(-0.438051 0 15.3648)
(-0.728908 0 13.3415)
(-1.05526 0 11.1971)
(-1.39983 0 8.97814)
(-1.74628 0 6.72299)
(-2.07942 0 4.46272)
(-2.3853 0 2.22221)
(-2.65134 0 0.0212969)
(-2.86644 0 -2.12383)
(-3.02125 0 -4.19922)
(-3.10831 0 -6.19162)
(-3.12221 0 -8.08724)
(-3.0597 0 -9.87092)
(-2.91983 0 -11.5257)
(-2.704 0 -13.033)
(-2.41602 0 -14.3726)
(-2.06214 0 -15.524)
(-1.65093 0 -16.4672)
(-1.19308 0 -17.1837)
(-0.701131 0 -17.6586)
(-0.188976 0 -17.8812)
(0.328638 0 -17.8461)
(0.836745 0 -17.5543)
(1.32077 0 -17.0126)
(1.76713 0 -16.2329)