/*--------------------------------*- C++ -*----------------------------------*\
| =========                 |                                                 |
| \\      /  F ield         | OpenFOAM: The Open Source CFD Toolbox           |
|  \\    /   O peration     | Version:  2.3.0                                 |
|   \\  /    A nd           | Web:      www.OpenFOAM.org                      |
|    \\/     M anipulation  |                                                 |
\*---------------------------------------------------------------------------*/
FoamFile
{
    version     2.0;
    format      ascii;
    class       volVectorField;
    location    "18000";
    object      U;
}
// * * * * * * * * * * * * * * * * * * * * * * * * * * * * * * * * * * * * * //

dimensions      [0 1 -1 0 0 0 0];

internalField   nonuniform List<vector> 
3060
(
(0.608628 0 -0.409061)
(1.55786 0 -0.395102)
(2.48361 0 -0.369327)
(3.37252 0 -0.332401)
(4.21232 0 -0.285403)
(4.99213 0 -0.230153)
(5.70265 0 -0.169506)
(6.3362 0 -0.107341)
(6.8865 0 -0.0480049)
(7.34774 0 0.00472234)
(7.71305 0 0.0485547)
(7.97264 0 0.0829546)
(8.11231 0 0.108687)
(8.11274 0 0.127042)
(7.95247 0 0.140701)
(7.61228 0 0.155913)
(7.08616 0 0.178383)
(6.388 0 0.204004)
(5.55302 0 0.220018)
(4.6381 0 0.218223)
(3.7062 0 0.20105)
(2.81225 0 0.173988)
(1.99284 0 0.144668)
(1.25622 0 0.120063)
(0.58588 0 0.104489)
(-0.0497082 0 0.0997465)
(-0.688231 0 0.106238)
(-1.36689 0 0.1234)
(-2.11553 0 0.149105)
(-2.94731 0 0.178572)
(-3.84946 0 0.204557)
(-4.78148 0 0.219549)
(-5.68637 0 0.218467)
(-6.50096 0 0.200075)
(-7.17091 0 0.174196)
(-7.66459 0 0.152907)
(-7.9711 0 0.138309)
(-8.09954 0 0.123849)
(-8.06986 0 0.103956)
(-7.90375 0 0.0763514)
(-7.61974 0 0.0398057)
(-7.23132 0 -0.00620873)
(-6.74782 0 -0.0607843)
(-6.17597 0 -0.121245)
(-5.52179 0 -0.183568)
(-4.79203 0 -0.2434)
(-3.99487 0 -0.297025)
(-3.14016 0 -0.341809)
(-2.23925 0 -0.376111)
(-1.30479 0 -0.398963)
(-0.350502 0 -0.409745)
(0.609158 0 -0.408046)
(1.55949 0 -0.393956)
(2.4862 0 -0.367943)
(3.37585 0 -0.330693)
(4.21608 0 -0.283324)
(4.99595 0 -0.227717)
(5.70605 0 -0.166806)
(6.33862 0 -0.104551)
(6.88722 0 -0.0453255)
(7.34579 0 0.00712589)
(7.70709 0 0.0505993)
(7.96079 0 0.0846354)
(8.09211 0 0.110045)
(8.08117 0 0.128145)
(7.90652 0 0.141877)
(7.54954 0 0.157854)
(7.00635 0 0.181131)
(6.2932 0 0.206355)
(5.44813 0 0.220603)
(4.52966 0 0.216908)
(3.60064 0 0.198313)
(2.71459 0 0.170629)
(1.90521 0 0.14154)
(1.17764 0 0.117799)
(0.51319 0 0.103398)
(-0.120764 0 0.0999219)
(-0.762144 0 0.107665)
(-1.44771 0 0.125943)
(-2.20595 0 0.152374)
(-3.0475 0 0.181848)
(-3.95641 0 0.206976)
(-4.8897 0 0.220411)
(-5.78926 0 0.217322)
(-6.59215 0 0.197455)
(-7.2463 0 0.171588)
(-7.72273 0 0.151219)
(-8.01289 0 0.137225)
(-8.12773 0 0.122704)
(-8.08749 0 0.10251)
(-7.91372 0 0.0745636)
(-7.62435 0 0.0376447)
(-7.23229 0 -0.00871969)
(-6.74637 0 -0.0635375)
(-6.17299 0 -0.124058)
(-5.51796 0 -0.186239)
(-4.78788 0 -0.245773)
(-3.99086 0 -0.299025)
(-3.13665 0 -0.343441)
(-2.23651 0 -0.377435)
(-1.30305 0 -0.400071)
(-0.349879 0 -0.410748)
(0.917744 0 -1.6629)
(2.35645 0 -1.64177)
(3.77866 0 -1.603)
(5.17503 0 -1.5482)
(6.53711 0 -1.47916)
(7.85702 0 -1.39739)
(9.12643 0 -1.30343)
(10.335 0 -1.19638)
(11.4686 0 -1.07354)
(12.5082 0 -0.930403)
(13.4293 0 -0.760448)
(14.2023 0 -0.555105)
(14.7917 0 -0.304125)
(15.156 0 0.00199832)
(15.2461 0 0.362149)
(15.0077 0 0.747594)
(14.3969 0 1.1054)
(13.3996 0 1.39322)
(12.0358 0 1.58915)
(10.383 0 1.68644)
(8.55959 0 1.6854)
(6.68507 0 1.59853)
(4.85629 0 1.46688)
(3.12042 0 1.33883)
(1.47347 0 1.25106)
(-0.123361 0 1.22326)
(-1.72431 0 1.26081)
(-3.38235 0 1.35629)
(-5.13216 0 1.48739)
(-6.97043 0 1.61488)
(-8.84141 0 1.68997)
(-10.6424 0 1.67479)
(-12.2519 0 1.56102)
(-13.5554 0 1.34862)
(-14.4847 0 1.04632)
(-15.0268 0 0.678992)
(-15.201 0 0.292758)
(-15.0547 0 -0.0609559)
(-14.6423 0 -0.358665)
(-14.0116 0 -0.602229)
(-13.2033 0 -0.801666)
(-12.2521 0 -0.967042)
(-11.1871 0 -1.10659)
(-10.0318 0 -1.22649)
(-8.80457 0 -1.33093)
(-7.51879 0 -1.42229)
(-6.18446 0 -1.50118)
(-4.80987 0 -1.56684)
(-3.40308 0 -1.61769)
(-1.97282 0 -1.65196)
(-0.528715 0 -1.66819)
(0.919124 0 -1.66564)
(2.36049 0 -1.64444)
(3.78532 0 -1.60554)
(5.18426 0 -1.55051)
(6.54878 0 -1.48115)
(7.87087 0 -1.39886)
(9.14195 0 -1.3041)
(10.3513 0 -1.19579)
(11.4842 0 -1.07108)
(12.5211 0 -0.925241)
(13.4368 0 -0.751555)
(14.2007 0 -0.541243)
(14.7767 0 -0.283965)
(15.1224 0 0.0293747)
(15.1876 0 0.395621)
(14.9177 0 0.782423)
(14.2717 0 1.13581)
(13.2382 0 1.41551)
(11.8428 0 1.60158)
(10.1692 0 1.68868)
(8.3378 0 1.67734)
(6.46718 0 1.58356)
(4.64959 0 1.45043)
(2.92618 0 1.32578)
(1.28804 0 1.24446)
(-0.306273 0 1.22434)
(-1.91162 0 1.26937)
(-3.57984 0 1.37066)
(-5.34235 0 1.504)
(-7.19041 0 1.62847)
(-9.06234 0 1.69543)
(-10.852 0 1.66983)
(-12.4373 0 1.54586)
(-13.7072 0 1.3239)
(-14.6002 0 1.01425)
(-15.1077 0 0.643843)
(-15.252 0 0.260527)
(-15.0826 0 -0.0864646)
(-14.6529 0 -0.377073)
(-14.0101 0 -0.614682)
(-13.1937 0 -0.809499)
(-12.2378 0 -0.971443)
(-11.1706 0 -1.10853)
(-10.0151 0 -1.22673)
(-8.78892 0 -1.33006)
(-7.50496 0 -1.42069)
(-6.17287 0 -1.49913)
(-4.80074 0 -1.56449)
(-3.39652 0 -1.61514)
(-1.96889 0 -1.64927)
(-0.527437 0 -1.66545)
(1.02869 0 -3.16299)
(2.64022 0 -3.12933)
(4.23011 0 -3.06713)
(5.78524 0 -2.9782)
(7.29249 0 -2.86445)
(8.73848 0 -2.72705)
(10.1093 0 -2.56567)
(11.3902 0 -2.37785)
(12.5656 0 -2.15894)
(13.6194 0 -1.90235)
(14.5354 0 -1.60006)
(15.2985 0 -1.24296)
(15.8958 0 -0.821645)
(16.3174 0 -0.327574)
(16.5556 0 0.246785)
(16.5924 0 0.909692)
(16.3711 0 1.6616)
(15.7928 0 2.45533)
(14.7618 0 3.15773)
(13.229 0 3.62041)
(11.2644 0 3.81916)
(9.02699 0 3.79871)
(6.68819 0 3.63551)
(4.35868 0 3.43398)
(2.07651 0 3.28294)
(-0.17187 0 3.23331)
(-2.42281 0 3.2995)
(-4.71086 0 3.46168)
(-7.04344 0 3.66265)
(-9.37185 0 3.80872)
(-11.574 0 3.79729)
(-13.4739 0 3.55692)
(-14.9224 0 3.04908)
(-15.8692 0 2.31838)
(-16.3766 0 1.52282)
(-16.5435 0 0.782244)
(-16.4647 0 0.132418)
(-16.1887 0 -0.430077)
(-15.7301 0 -0.913213)
(-15.0966 0 -1.32457)
(-14.2987 0 -1.67286)
(-13.35 0 -1.9675)
(-12.266 0 -2.21745)
(-11.0631 0 -2.43055)
(-9.75756 0 -2.6131)
(-8.36503 0 -2.76938)
(-6.90026 0 -2.90146)
(-5.37723 0 -3.00935)
(-3.80941 0 -3.09169)
(-2.21008 0 -3.1466)
(-0.592513 0 -3.17245)
(1.02994 0 -3.1684)
(2.6439 0 -3.13459)
(4.23603 0 -3.0721)
(5.79308 0 -2.98268)
(7.30173 0 -2.86818)
(8.74841 0 -2.72964)
(10.119 0 -2.56656)
(11.3983 0 -2.37627)
(12.5708 0 -2.1539)
(13.6199 0 -1.8927)
(14.5293 0 -1.58447)
(15.284 0 -1.22005)
(15.8711 0 -0.790087)
(16.2811 0 -0.286231)
(16.5059 0 0.298949)
(16.5253 0 0.97364)
(16.2769 0 1.73559)
(15.66 0 2.52919)
(14.5804 0 3.21291)
(12.9997 0 3.64726)
(11.0008 0 3.8203)
(8.74866 0 3.78083)
(6.41015 0 3.60937)
(4.08766 0 3.41099)
(1.81198 0 3.27079)
(-0.434409 0 3.23531)
(-2.6888 0 3.31513)
(-4.98404 0 3.48652)
(-7.32267 0 3.68779)
(-9.64804 0 3.82226)
(-11.8301 0 3.78976)
(-13.6912 0 3.52251)
(-15.09 0 2.98702)
(-15.9904 0 2.24279)
(-16.462 0 1.45089)
(-16.6049 0 0.721391)
(-16.5103 0 0.0831753)
(-16.2214 0 -0.468784)
(-15.7515 0 -0.942419)
(-15.1083 0 -1.34547)
(-14.3025 0 -1.68681)
(-13.3477 0 -1.97588)
(-12.2594 0 -2.22154)
(-11.0539 0 -2.43146)
(-9.74715 0 -2.61176)
(-8.35459 0 -2.76651)
(-6.8907 0 -2.89756)
(-5.3692 0 -3.00477)
(-3.80339 0 -3.08666)
(-2.20635 0 -3.1413)
(-0.591248 0 -3.16703)
(1.07648 0 -4.83464)
(2.76093 0 -4.78261)
(4.41761 0 -4.68597)
(6.02967 0 -4.54658)
(7.58039 0 -4.36632)
(9.05319 0 -4.14637)
(10.4317 0 -3.88653)
(11.7002 0 -3.58491)
(12.8435 0 -3.2379)
(13.8477 0 -2.84055)
(14.7004 0 -2.38697)
(15.3908 0 -1.87058)
(15.9102 0 -1.28416)
(16.2516 0 -0.619127)
(16.4079 0 0.137057)
(16.3714 0 1.0027)
(16.1334 0 1.98835)
(15.6822 0 3.06846)
(14.9769 0 4.17723)
(13.8969 0 5.19906)
(12.2879 0 5.91682)
(10.1621 0 6.19394)
(7.69592 0 6.14741)
(5.08684 0 5.961)
(2.44385 0 5.79184)
(-0.200106 0 5.73272)
(-2.84357 0 5.81004)
(-5.48273 0 5.98752)
(-8.07584 0 6.1612)
(-10.4986 0 6.16649)
(-12.5473 0 5.82094)
(-14.0621 0 5.03632)
(-15.0659 0 3.9865)
(-15.7195 0 2.8741)
(-16.1295 0 1.80326)
(-16.3281 0 0.834172)
(-16.326 0 -0.0147573)
(-16.1317 0 -0.75725)
(-15.7529 0 -1.41082)
(-15.1965 0 -1.98701)
(-14.4699 0 -2.49394)
(-13.5822 0 -2.93865)
(-12.5447 0 -3.32756)
(-11.3702 0 -3.66644)
(-10.0732 0 -3.96004)
(-8.66911 0 -4.21166)
(-7.17407 0 -4.4229)
(-5.60472 0 -4.59367)
(-3.97791 0 -4.72266)
(-2.31059 0 -4.808)
(-0.619813 0 -4.84801)
(1.07725 0 -4.84175)
(2.76338 0 -4.78938)
(4.42145 0 -4.69208)
(6.03442 0 -4.55164)
(7.58536 0 -4.36985)
(9.05748 0 -4.14777)
(10.4343 0 -3.88504)
(11.6996 0 -3.5796)
(12.8385 0 -3.22771)
(13.8368 0 -2.82431)
(14.6819 0 -2.36343)
(15.3634 0 -1.83848)
(15.8725 0 -1.24225)
(16.2021 0 -0.566011)
(16.3453 0 0.203255)
(16.2941 0 1.08403)
(16.0396 0 2.08432)
(15.5692 0 3.17374)
(14.8353 0 4.28247)
(13.7081 0 5.28539)
(12.0414 0 5.95745)
(9.87164 0 6.19219)
(7.38466 0 6.12326)
(4.77109 0 5.93437)
(2.12904 0 5.77675)
(-0.51432 0 5.73526)
(-3.15876 0 5.82925)
(-5.79821 0 6.01526)
(-8.38366 0 6.18138)
(-10.7793 0 6.15846)
(-12.7787 0 5.76665)
(-14.236 0 4.94208)
(-15.1981 0 3.87987)
(-15.8266 0 2.77044)
(-16.2184 0 1.71077)
(-16.401 0 0.756912)
(-16.3846 0 -0.0773305)
(-16.1775 0 -0.807308)
(-15.7874 0 -1.45008)
(-15.2209 0 -2.01681)
(-14.4857 0 -2.51553)
(-13.5909 0 -2.95328)
(-12.5478 0 -3.33646)
(-11.3692 0 -3.67075)
(-10.0695 0 -3.96079)
(-8.6639 0 -4.20973)
(-7.16841 0 -4.419)
(-5.59946 0 -4.58837)
(-3.97369 0 -4.7164)
(-2.30784 0 -4.80114)
(-0.618786 0 -4.84087)
(1.08625 0 -6.55882)
(2.78436 0 -6.48612)
(4.45015 0 -6.35073)
(6.0642 0 -6.15468)
(7.60753 0 -5.90013)
(9.06179 0 -5.58863)
(10.4096 0 -5.22059)
(11.6347 0 -4.79492)
(12.7224 0 -4.30909)
(13.6598 0 -3.75939)
(14.4357 0 -3.14138)
(15.0403 0 -2.45011)
(15.4657 0 -1.68018)
(15.7049 0 -0.825152)
(15.7527 0 0.123703)
(15.6079 0 1.17742)
(15.2771 0 2.34245)
(14.7681 0 3.61136)
(14.076 0 4.96154)
(13.1743 0 6.32755)
(11.9693 0 7.55481)
(10.2738 0 8.40306)
(8.01641 0 8.71915)
(5.39815 0 8.68829)
(2.61973 0 8.57011)
(-0.212591 0 8.52044)
(-3.04 0 8.58252)
(-5.80033 0 8.69681)
(-8.37421 0 8.68836)
(-10.5493 0 8.29089)
(-12.1505 0 7.36232)
(-13.2928 0 6.09634)
(-14.1531 0 4.72207)
(-14.8099 0 3.37942)
(-15.2849 0 2.12302)
(-15.5802 0 0.972693)
(-15.6871 0 -0.0665005)
(-15.6006 0 -1.00244)
(-15.3225 0 -1.84585)
(-14.8587 0 -2.60487)
(-14.2163 0 -3.28557)
(-13.4037 0 -3.89316)
(-12.4311 0 -4.43244)
(-11.31 0 -4.90772)
(-10.0541 0 -5.3225)
(-8.67854 0 -5.67906)
(-7.20001 0 -5.97821)
(-5.63641 0 -6.21933)
(-4.00645 0 -6.40073)
(-2.32947 0 -6.52033)
(-0.625179 0 -6.57627)
(1.08643 0 -6.56752)
(2.78531 0 -6.49426)
(4.45153 0 -6.35778)
(6.06546 0 -6.16007)
(7.60792 0 -5.90316)
(9.06038 0 -5.5885)
(10.4052 0 -5.21636)
(11.6262 0 -4.78551)
(12.7084 0 -4.29331)
(13.6389 0 -3.736)
(14.4064 0 -3.10912)
(15.0014 0 -2.40777)
(15.4157 0 -1.62657)
(15.6425 0 -0.75908)
(15.6768 0 0.203598)
(15.5181 0 1.27238)
(15.1736 0 2.45249)
(14.6504 0 3.73479)
(13.9419 0 5.09425)
(13.0174 0 6.45688)
(11.772 0 7.65785)
(10.0143 0 8.45067)
(7.7076 0 8.71732)
(5.06587 0 8.66848)
(2.27936 0 8.55633)
(-0.554603 0 8.52284)
(-3.37902 0 8.59955)
(-6.12833 0 8.71478)
(-8.67238 0 8.67972)
(-10.7915 0 8.22645)
(-12.3344 0 7.24922)
(-13.4422 0 5.96414)
(-14.2823 0 4.59097)
(-14.9234 0 3.2592)
(-15.3845 0 2.01679)
(-15.666 0 0.881721)
(-15.759 0 -0.142665)
(-15.6592 0 -1.06517)
(-15.3691 0 -1.89646)
(-14.8945 0 -2.64455)
(-14.2427 0 -3.3155)
(-13.4222 0 -3.91456)
(-12.443 0 -4.44657)
(-11.3167 0 -4.91581)
(-10.0569 0 -5.3257)
(-8.67872 0 -5.67841)
(-7.19861 0 -5.97461)
(-5.63433 0 -6.21354)
(-4.0044 0 -6.3934)
(-2.32794 0 -6.51203)
(-0.624468 0 -6.56752)
(1.06616 0 -8.25456)
(2.73147 0 -8.15796)
(4.36133 0 -7.97791)
(5.93464 0 -7.71697)
(7.43108 0 -7.37804)
(8.83136 0 -6.96376)
(10.1176 0 -6.47593)
(11.2737 0 -5.9152)
(12.2854 0 -5.28095)
(13.1405 0 -4.57145)
(13.8288 0 -3.78405)
(14.3418 0 -2.91536)
(14.6728 0 -1.96125)
(14.8164 0 -0.916659)
(14.7698 0 0.224485)
(14.5343 0 1.4679)
(14.1171 0 2.81353)
(13.5292 0 4.24992)
(12.7807 0 5.75624)
(11.8764 0 7.30228)
(10.7973 0 8.82189)
(9.44698 0 10.148)
(7.63391 0 11.0251)
(5.28313 0 11.363)
(2.60261 0 11.4076)
(-0.209844 0 11.3972)
(-3.01097 0 11.4028)
(-5.65343 0 11.327)
(-7.92713 0 10.9114)
(-9.6521 0 9.94477)
(-10.945 0 8.56844)
(-11.9894 0 7.03367)
(-12.8644 0 5.48738)
(-13.583 0 3.98682)
(-14.1387 0 2.5599)
(-14.5211 0 1.22638)
(-14.7197 0 -0.00412407)
(-14.7279 0 -1.13288)
(-14.5454 0 -2.16574)
(-14.1757 0 -3.1085)
(-13.6244 0 -3.96588)
(-12.8987 0 -4.74175)
(-12.0074 0 -5.43926)
(-10.9614 0 -6.06083)
(-9.77344 0 -6.60796)
(-8.45829 0 -7.081)
(-7.03274 0 -7.47907)
(-5.51524 0 -7.80021)
(-3.92554 0 -8.04172)
(-2.28442 0 -8.20082)
(-0.613355 0 -8.27518)
(1.06575 0 -8.26355)
(2.73087 0 -8.16615)
(4.36021 0 -7.98456)
(5.93244 0 -7.72127)
(7.42702 0 -7.37913)
(8.82452 0 -6.96066)
(10.1069 0 -6.46757)
(11.258 0 -5.90041)
(12.2634 0 -5.2585)
(13.1109 0 -4.54007)
(13.7903 0 -3.7425)
(14.2933 0 -2.86243)
(14.6129 0 -1.8958)
(14.7441 0 -0.837621)
(14.6842 0 0.318086)
(14.4351 0 1.57662)
(14.0048 0 2.9368)
(13.4041 0 4.38583)
(12.643 0 5.90203)
(11.725 0 7.45304)
(10.6261 0 8.96527)
(9.23702 0 10.2573)
(7.36345 0 11.0742)
(4.96494 0 11.368)
(2.26281 0 11.4022)
(-0.554765 0 11.3984)
(-3.34676 0 11.408)
(-5.96165 0 11.3137)
(-8.18033 0 10.8453)
(-9.8491 0 9.82318)
(-11.1095 0 8.42083)
(-12.1367 0 6.88335)
(-12.9985 0 5.34377)
(-13.7046 0 3.85391)
(-14.2474 0 2.44025)
(-14.6164 0 1.12158)
(-14.8014 0 -0.0938749)
(-14.7965 0 -1.20833)
(-14.6018 0 -2.22791)
(-14.2211 0 -3.15848)
(-13.6599 0 -4.00481)
(-12.9256 0 -4.77083)
(-12.0271 0 -5.45975)
(-10.9751 0 -6.07399)
(-9.78238 0 -6.615)
(-8.46363 0 -7.08306)
(-7.03553 0 -7.47719)
(-5.51637 0 -7.79532)
(-3.92572 0 -8.03468)
(-2.28417 0 -8.19239)
(-0.612984 0 -8.26611)
(1.0216 0 -9.90094)
(2.61606 0 -9.77887)
(4.17327 0 -9.55135)
(5.67121 0 -9.22168)
(7.08892 0 -8.79385)
(8.40685 0 -8.27193)
(9.6072 0 -7.65945)
(10.6742 0 -6.95906)
(11.5944 0 -6.17224)
(12.3563 0 -5.29935)
(12.951 0 -4.33971)
(13.3711 0 -3.29173)
(13.6113 0 -2.1531)
(13.6684 0 -0.921012)
(13.5415 0 0.407244)
(13.2338 0 1.83271)
(12.7529 0 3.35129)
(12.1095 0 4.95068)
(11.315 0 6.61041)
(10.3806 0 8.30084)
(9.313 0 9.97827)
(8.09457 0 11.5638)
(6.61825 0 12.8835)
(4.71124 0 13.7163)
(2.36744 0 14.0664)
(-0.189789 0 14.1402)
(-2.72903 0 14.0282)
(-5.01557 0 13.6098)
(-6.84506 0 12.6875)
(-8.26689 0 11.3056)
(-9.45479 0 9.69308)
(-10.4978 0 8.00567)
(-11.4065 0 6.31328)
(-12.1731 0 4.65702)
(-12.7859 0 3.0648)
(-13.2336 0 1.55594)
(-13.5058 0 0.141458)
(-13.5957 0 -1.17548)
(-13.5008 0 -2.39621)
(-13.2225 0 -3.52335)
(-12.7646 0 -4.55948)
(-12.1328 0 -5.5066)
(-11.3348 0 -6.366)
(-10.3803 0 -7.13808)
(-9.28122 0 -7.82218)
(-8.05178 0 -8.41653)
(-6.7084 0 -8.91829)
(-5.26951 0 -9.32379)
(-3.75525 0 -9.62899)
(-2.18709 0 -9.83007)
(-0.587465 0 -9.92406)
(1.02062 0 -9.90936)
(2.61401 0 -9.78626)
(4.1698 0 -9.55674)
(5.66578 0 -9.22407)
(7.08081 0 -8.7922)
(8.39518 0 -8.26511)
(9.59097 0 -7.64628)
(10.6523 0 -6.93828)
(11.5657 0 -6.14258)
(12.3197 0 -5.25953)
(12.9052 0 -4.2885)
(13.3151 0 -3.22797)
(13.5441 0 -2.07577)
(13.5891 0 -0.829264)
(13.4496 0 0.513994)
(13.1291 0 1.95453)
(12.6357 0 3.48732)
(11.9802 0 5.09902)
(11.1742 0 6.76824)
(10.2287 0 8.46392)
(9.14932 0 10.1404)
(7.91224 0 11.7112)
(6.3975 0 12.9896)
(4.43675 0 13.766)
(2.05726 0 14.0801)
(-0.508839 0 14.1385)
(-3.03236 0 14.0076)
(-5.27573 0 13.5456)
(-7.05313 0 12.5675)
(-8.44258 0 11.152)
(-9.6149 0 9.52967)
(-10.6466 0 7.84334)
(-11.5441 0 6.15749)
(-12.299 0 4.51157)
(-12.8996 0 2.93228)
(-13.3347 0 1.43797)
(-13.5941 0 0.0385956)
(-13.6713 0 -1.26348)
(-13.5645 0 -2.47003)
(-13.2753 0 -3.58389)
(-12.8074 0 -4.60778)
(-12.1668 0 -5.54384)
(-11.3611 0 -6.39343)
(-10.4 0 -7.15696)
(-9.29553 0 -7.83378)
(-8.06176 0 -8.42208)
(-6.71503 0 -8.91895)
(-5.27364 0 -9.32065)
(-3.75756 0 -9.62308)
(-2.18808 0 -9.82238)
(-0.587427 0 -9.91553)
(0.957226 0 -11.4587)
(2.45007 0 -11.3103)
(3.90498 0 -11.0338)
(5.2997 0 -10.6334)
(6.61324 0 -10.1145)
(7.82627 0 -9.48288)
(8.92149 0 -8.74418)
(9.88387 0 -7.90325)
(10.7008 0 -6.96394)
(11.3621 0 -5.9289)
(11.8598 0 -4.79957)
(12.1883 0 -3.57642)
(12.3439 0 -2.25918)
(12.3251 0 -0.847401)
(12.133 0 0.658599)
(11.772 0 2.25611)
(11.2498 0 3.93751)
(10.577 0 5.68844)
(9.76547 0 7.48773)
(8.8277 0 9.30722)
(7.77509 0 11.1099)
(6.61534 0 12.8416)
(5.32502 0 14.4018)
(3.79749 0 15.6091)
(1.9365 0 16.3032)
(-0.153723 0 16.4935)
(-2.22317 0 16.2225)
(-4.03166 0 15.4384)
(-5.5116 0 14.1564)
(-6.77444 0 12.5543)
(-7.91475 0 10.8016)
(-8.94661 0 8.98842)
(-9.86132 0 7.16489)
(-10.6471 0 5.36644)
(-11.2915 0 3.62004)
(-11.7827 0 1.94595)
(-12.1105 0 0.357514)
(-12.2678 0 -1.13841)
(-12.2508 0 -2.53949)
(-12.0589 0 -3.8454)
(-11.6939 0 -5.0564)
(-11.1602 0 -6.17242)
(-10.4638 0 -7.19267)
(-9.61328 0 -8.11532)
(-8.61947 0 -8.93736)
(-7.49569 0 -9.65466)
(-6.25767 0 -10.2621)
(-4.9234 0 -10.7541)
(-3.51284 0 -11.1248)
(-2.04754 0 -11.3693)
(-0.550203 0 -11.4836)
(0.955749 0 -11.4657)
(2.44672 0 -11.316)
(3.89945 0 -11.037)
(5.29149 0 -10.633)
(6.60167 0 -10.1093)
(7.81054 0 -9.47166)
(8.90069 0 -8.72561)
(9.85704 0 -7.87602)
(10.6669 0 -6.92675)
(11.3202 0 -5.88047)
(11.8089 0 -4.73872)
(12.1274 0 -3.50206)
(12.2722 0 -2.17042)
(12.242 0 -0.743597)
(12.0381 0 0.777695)
(11.6653 0 2.39016)
(11.1317 0 4.08536)
(10.4479 0 5.84805)
(9.62604 0 7.65623)
(8.67861 0 9.48082)
(7.61676 0 11.2837)
(6.44723 0 13.0073)
(5.13869 0 14.5432)
(3.57705 0 15.7032)
(1.68079 0 16.3431)
(-0.42013 0 16.4876)
(-2.471 0 16.1686)
(-4.24156 0 15.3297)
(-5.69139 0 14.0062)
(-6.93947 0 12.3852)
(-8.07051 0 10.6271)
(-9.09305 0 8.81561)
(-9.99793 0 6.99829)
(-10.7732 0 5.20957)
(-11.4064 0 3.47555)
(-11.886 0 1.81565)
(-12.202 0 0.242307)
(-12.3475 0 -1.23838)
(-12.3192 0 -2.62459)
(-12.1167 0 -3.91634)
(-11.742 0 -5.11412)
(-11.1994 0 -6.21804)
(-10.4952 0 -7.22739)
(-9.63786 0 -8.14041)
(-8.63823 0 -8.95412)
(-7.50959 0 -9.66439)
(-6.2676 0 -10.2661)
(-4.93014 0 -10.7535)
(-3.51702 0 -11.1209)
(-2.04962 0 -11.3632)
(-0.550469 0 -11.4765)
(0.876807 0 -12.9014)
(2.24316 0 -12.7266)
(3.57191 0 -12.4009)
(4.84112 0 -11.9298)
(6.03029 0 -11.3203)
(7.12077 0 -10.58)
(8.09611 0 -9.71689)
(8.94234 0 -8.73819)
(9.648 0 -7.65026)
(10.2042 0 -6.45819)
(10.6045 0 -5.16576)
(10.8449 0 -3.77564)
(10.9233 0 -2.28976)
(10.8401 0 -0.710064)
(10.5982 0 0.960423)
(10.203 0 2.71596)
(9.66296 0 4.54616)
(8.98869 0 6.43475)
(8.19241 0 8.35918)
(7.28768 0 10.2906)
(6.28879 0 12.1932)
(5.21048 0 14.0211)
(4.06412 0 15.6999)
(2.82279 0 17.0933)
(1.42472 0 18.0053)
(-0.110336 0 18.2862)
(-1.63144 0 17.8941)
(-3.00195 0 16.8874)
(-4.22302 0 15.431)
(-5.35668 0 13.7159)
(-6.42118 0 11.8669)
(-7.40319 0 9.95152)
(-8.28811 0 8.01331)
(-9.0617 0 6.08695)
(-9.71056 0 4.20031)
(-10.2227 0 2.37507)
(-10.5877 0 0.626673)
(-10.7978 0 -1.03516)
(-10.8478 0 -2.60507)
(-10.7355 0 -4.08005)
(-10.4609 0 -5.45797)
(-10.0265 0 -6.73655)
(-9.43688 0 -7.91271)
(-8.69912 0 -8.98222)
(-7.82278 0 -9.9396)
(-6.82001 0 -10.7782)
(-5.70555 0 -11.4905)
(-4.49653 0 -12.0685)
(-3.21228 0 -12.5048)
(-1.87389 0 -12.7926)
(-0.503756 0 -12.9273)
(0.874925 0 -12.9062)
(2.23875 0 -12.7299)
(3.5647 0 -12.4014)
(4.83066 0 -11.9262)
(6.01597 0 -11.3111)
(7.10189 0 -10.564)
(8.07188 0 -9.6926)
(8.91191 0 -8.70432)
(9.61052 0 -7.6055)
(10.1588 0 -6.40128)
(10.5505 0 -5.09557)
(10.7814 0 -3.69119)
(10.8498 0 -2.1903)
(10.7563 0 -0.595151)
(10.5037 0 1.09076)
(10.0981 0 2.86107)
(9.54795 0 4.70465)
(8.86415 0 6.60437)
(8.05912 0 8.53693)
(7.14656 0 10.4727)
(6.14077 0 12.375)
(5.0567 0 14.1962)
(3.90375 0 15.8568)
(2.64854 0 17.2121)
(1.23155 0 18.0648)
(-0.310882 0 18.2767)
(-1.81979 0 17.817)
(-3.17149 0 16.7559)
(-4.38108 0 15.2675)
(-5.50891 0 13.538)
(-6.56735 0 11.6844)
(-7.54221 0 9.77002)
(-8.41902 0 7.83722)
(-9.18363 0 5.91986)
(-9.82278 0 4.04503)
(-10.3246 0 2.2336)
(-10.6791 0 0.500192)
(-10.8786 0 -1.1462)
(-10.9183 0 -2.70077)
(-10.7961 0 -4.16094)
(-10.5122 0 -5.52486)
(-10.0693 0 -6.79045)
(-9.47193 0 -7.9548)
(-8.7273 0 -9.01375)
(-7.84495 0 -9.96189)
(-6.837 0 -10.7926)
(-5.71814 0 -11.4983)
(-4.50541 0 -12.0711)
(-3.21802 0 -12.5035)
(-1.87689 0 -12.7889)
(-0.504283 0 -12.9223)
(0.783448 0 -14.2063)
(2.00327 0 -14.0055)
(3.18673 0 -13.6318)
(4.31272 0 -13.0919)
(5.36168 0 -12.3942)
(6.31603 0 -11.5488)
(7.16053 0 -10.5659)
(7.88248 0 -9.45525)
(8.47186 0 -8.22593)
(8.92126 0 -6.88554)
(9.22582 0 -5.44031)
(9.3831 0 -3.89523)
(9.39293 0 -2.2545)
(9.25745 0 -0.522382)
(8.98108 0 1.29563)
(8.57068 0 3.19124)
(8.0355 0 5.1517)
(7.38687 0 7.15883)
(6.6379 0 9.18844)
(5.80351 0 11.2101)
(4.90062 0 13.1865)
(3.94877 0 15.0708)
(2.9713 0 16.7959)
(1.98299 0 18.2436)
(0.97106 0 19.2242)
(-0.0717247 0 19.5369)
(-1.11087 0 19.1023)
(-2.11717 0 18.027)
(-3.10256 0 16.5183)
(-4.076 0 14.7558)
(-5.01954 0 12.8472)
(-5.9102 0 10.8547)
(-6.72894 0 8.82315)
(-7.45916 0 6.78873)
(-8.08621 0 4.78092)
(-8.59724 0 2.82305)
(-8.98123 0 0.932558)
(-9.22931 0 -0.878402)
(-9.33502 0 -2.60187)
(-9.29437 0 -4.2324)
(-9.1057 0 -5.76549)
(-8.76965 0 -7.19657)
(-8.28921 0 -8.52016)
(-7.66987 0 -9.72953)
(-6.91969 0 -10.8166)
(-6.04944 0 -11.772)
(-5.07256 0 -12.5857)
(-4.00501 0 -13.2475)
(-2.86505 0 -13.7476)
(-1.67282 0 -14.0779)
(-0.449916 0 -14.2325)
(0.781266 0 -14.2083)
(1.99808 0 -14.0059)
(3.17827 0 -13.6291)
(4.30061 0 -13.0844)
(5.3454 0 -12.3807)
(6.29498 0 -11.5277)
(7.13404 0 -10.5357)
(7.84985 0 -9.41477)
(8.43239 0 -8.17379)
(8.87429 0 -6.82053)
(9.17076 0 -5.36137)
(9.31944 0 -3.80149)
(9.32033 0 -2.14536)
(9.17571 0 -0.3976)
(8.89022 0 1.43579)
(8.47096 0 3.34587)
(7.92745 0 5.31917)
(7.2712 0 7.3367)
(6.51555 0 9.37349)
(5.67567 0 11.3983)
(4.76872 0 13.3731)
(3.81471 0 15.2496)
(2.83713 0 16.9569)
(1.84811 0 18.3691)
(0.832756 0 19.2902)
(-0.211845 0 19.5262)
(-1.24811 0 19.0179)
(-2.25154 0 17.8895)
(-3.23677 0 16.351)
(-4.20964 0 14.5741)
(-5.15044 0 12.6594)
(-6.03663 0 10.6667)
(-6.84952 0 8.63948)
(-7.57278 0 6.61317)
(-8.19198 0 4.61646)
(-8.69448 0 2.67191)
(-9.06949 0 0.796177)
(-9.30838 0 -0.999314)
(-9.40494 0 -2.7072)
(-9.35539 0 -4.32248)
(-9.15821 0 -5.841)
(-8.81417 0 -7.25843)
(-8.32636 0 -8.56946)
(-7.70032 0 -9.7675)
(-6.94415 0 -10.8445)
(-6.0686 0 -11.7913)
(-5.08708 0 -12.5978)
(-4.01548 0 -13.2538)
(-2.87196 0 -13.7496)
(-1.67654 0 -14.0771)
(-0.45065 0 -14.2303)
(0.679646 0 -15.3554)
(1.73682 0 -15.1299)
(2.75968 0 -14.7104)
(3.72844 0 -14.1048)
(4.62489 0 -13.3236)
(5.43289 0 -12.3789)
(6.13867 0 -11.2834)
(6.73109 0 -10.0495)
(7.20169 0 -8.68904)
(7.54467 0 -7.21215)
(7.75684 0 -5.6276)
(7.83742 0 -3.94276)
(7.788 0 -2.16414)
(7.61238 0 -0.298232)
(7.31657 0 1.64718)
(6.90881 0 3.66151)
(6.39948 0 5.7299)
(5.80088 0 7.83224)
(5.12726 0 9.94236)
(4.39498 0 12.0276)
(3.62305 0 14.0476)
(2.83403 0 15.9521)
(2.0553 0 17.6719)
(1.31447 0 19.0973)
(0.621033 0 20.057)
(-0.0428033 0 20.3629)
(-0.709144 0 19.9373)
(-1.40896 0 18.8838)
(-2.15622 0 17.3954)
(-2.93726 0 15.634)
(-3.72351 0 13.7007)
(-4.48831 0 11.6606)
(-5.20972 0 9.5621)
(-5.86917 0 7.44411)
(-6.45064 0 5.33834)
(-6.94019 0 3.27008)
(-7.3258 0 1.25873)
(-7.59742 0 -0.681401)
(-7.74719 0 -2.54002)
(-7.7695 0 -4.30938)
(-7.66096 0 -5.9827)
(-7.42051 0 -7.55304)
(-7.04943 0 -9.01249)
(-6.55155 0 -10.3518)
(-5.93333 0 -11.56)
(-5.20394 0 -12.6253)
(-4.37527 0 -13.5349)
(-3.46181 0 -14.2761)
(-2.48036 0 -14.837)
(-1.44971 0 -15.2078)
(-0.390121 0 -15.3814)
(0.677276 0 -15.3543)
(1.73111 0 -15.1269)
(2.75043 0 -14.704)
(3.71531 0 -14.0934)
(4.60746 0 -13.3055)
(5.41066 0 -12.3526)
(6.11111 0 -11.2475)
(6.69764 0 -10.0027)
(7.16183 0 -8.62994)
(7.49792 0 -7.13965)
(7.7028 0 -5.54073)
(7.77582 0 -3.84077)
(7.71869 0 -2.04657)
(7.53539 0 -0.16506)
(7.23215 0 1.79549)
(6.81742 0 3.82381)
(6.3018 0 5.90434)
(5.69783 0 8.01614)
(5.01998 0 10.1323)
(4.28491 0 12.2192)
(3.512 0 14.2357)
(2.72432 0 16.13)
(1.94981 0 17.8299)
(1.21515 0 19.2194)
(0.526769 0 20.1212)
(-0.13556 0 20.3524)
(-0.804484 0 19.8552)
(-1.50997 0 18.7499)
(-2.26311 0 17.2307)
(-3.04757 0 15.4525)
(-3.83447 0 13.511)
(-4.59775 0 11.4688)
(-5.31594 0 9.37322)
(-5.97081 0 7.26221)
(-6.54662 0 5.16668)
(-7.02966 0 3.11109)
(-7.40812 0 1.11408)
(-7.67218 0 -0.810766)
(-7.81422 0 -2.65378)
(-7.8288 0 -4.40768)
(-7.71272 0 -6.06608)
(-7.46503 0 -7.6223)
(-7.08714 0 -9.06865)
(-6.58295 0 -10.396)
(-5.95895 0 -11.5936)
(-5.22433 0 -12.6497)
(-4.39097 0 -13.5514)
(-3.4733 0 -14.2863)
(-2.48805 0 -14.8425)
(-1.45391 0 -15.2102)
(-0.391007 0 -15.3824)
(0.567403 0 -16.3342)
(1.44893 0 -16.0856)
(2.29896 0 -15.6235)
(3.09946 0 -14.9571)
(3.83396 0 -14.0987)
(4.48807 0 -13.0626)
(5.04978 0 -11.8641)
(5.50968 0 -10.5183)
(5.86102 0 -9.03953)
(6.09967 0 -7.44071)
(6.22409 0 -5.73309)
(6.23517 0 -3.92641)
(6.13608 0 -2.02948)
(5.93222 0 -0.0509754)
(5.63106 0 1.99918)
(5.24213 0 4.1083)
(4.77691 0 6.25959)
(4.24866 0 8.43099)
(3.67256 0 10.5943)
(3.06589 0 12.7142)
(2.44852 0 14.7475)
(1.8435 0 16.6397)
(1.27736 0 18.3191)
(0.776524 0 19.6823)
(0.351765 0 20.5826)
(-0.0215679 0 20.866)
(-0.399615 0 20.4702)
(-0.835339 0 19.4787)
(-1.34714 0 18.0498)
(-1.92022 0 16.324)
(-2.52743 0 14.3982)
(-3.14268 0 12.3408)
(-3.74344 0 10.2039)
(-4.31027 0 8.0296)
(-4.82623 0 5.85191)
(-5.27643 0 3.69818)
(-5.64786 0 1.58977)
(-5.92936 0 -0.457037)
(-6.11174 0 -2.42982)
(-6.18787 0 -4.31865)
(-6.15279 0 -6.1145)
(-6.00378 0 -7.80812)
(-5.7405 0 -9.38914)
(-5.36507 0 -10.8457)
(-4.88226 0 -12.1642)
(-4.29951 0 -13.3301)
(-3.62696 0 -14.3279)
(-2.87731 0 -15.1425)
(-2.06559 0 -15.7598)
(-1.20883 0 -16.1682)
(-0.325523 0 -16.3595)
(0.564957 0 -16.3296)
(1.44299 0 -16.0791)
(2.28937 0 -15.6133)
(3.08594 0 -14.9415)
(3.81618 0 -14.0761)
(4.46564 0 -13.0314)
(5.02231 0 -11.8228)
(5.47676 0 -10.4655)
(5.82229 0 -8.97409)
(6.05484 0 -7.36153)
(6.17296 0 -5.63929)
(6.17767 0 -3.8174)
(6.07229 0 -1.90495)
(5.86239 0 0.0889106)
(5.55564 0 2.15374)
(5.16178 0 4.2762)
(4.69249 0 6.43873)
(4.16127 0 8.61847)
(3.58353 0 10.7863)
(2.97683 0 12.9063)
(2.3614 0 14.9338)
(1.76071 0 16.8132)
(1.20167 0 18.47)
(0.710006 0 19.7964)
(0.293371 0 20.6415)
(-0.0772998 0 20.8564)
(-0.45984 0 20.3945)
(-0.904411 0 19.3529)
(-1.42502 0 17.8916)
(-2.00443 0 16.1461)
(-2.61527 0 14.2096)
(-3.23189 0 12.1481)
(-3.83215 0 10.0125)
(-4.39694 0 7.84379)
(-4.90959 0 5.67527)
(-5.35545 0 3.53338)
(-5.72173 0 1.43869)
(-5.99747 0 -0.593236)
(-6.17368 0 -2.55061)
(-6.24345 0 -4.42399)
(-6.20197 0 -6.20479)
(-6.04667 0 -7.88403)
(-5.77731 0 -9.45157)
(-5.39612 0 -10.8957)
(-4.90793 0 -12.2032)
(-4.32021 0 -13.3593)
(-3.64309 0 -14.3489)
(-2.88925 0 -15.1567)
(-2.07367 0 -15.769)
(-1.21329 0 -16.1741)
(-0.326506 0 -16.3639)
(0.448326 0 -17.1309)
(1.14371 0 -16.8615)
(1.81116 0 -16.361)
(2.43474 0 -15.6398)
(3.00013 0 -14.7123)
(3.49497 0 -13.5947)
(3.90926 0 -12.305)
(4.23544 0 -10.8608)
(4.46857 0 -9.27904)
(4.60621 0 -7.57524)
(4.64841 0 -5.76311)
(4.5976 0 -3.85477)
(4.45842 0 -1.8612)
(4.2376 0 0.206786)
(3.94389 0 2.33726)
(3.58788 0 4.51565)
(3.18188 0 6.72336)
(2.73979 0 8.93658)
(2.27718 0 11.1251)
(1.81135 0 13.2517)
(1.36155 0 15.2702)
(0.94898 0 17.1241)
(0.596027 0 18.7409)
(0.322213 0 20.0253)
(0.131527 0 20.8553)
(-0.00497139 0 21.1129)
(-0.146455 0 20.7517)
(-0.348995 0 19.8339)
(-0.635643 0 18.4822)
(-0.998664 0 16.815)
(-1.41747 0 14.9234)
(-1.86971 0 12.8767)
(-2.33443 0 10.7297)
(-2.79269 0 8.52689)
(-3.22744 0 6.30448)
(-3.62337 0 4.0917)
(-3.9668 0 1.91166)
(-4.24568 0 -0.217537)
(-4.4497 0 -2.28153)
(-4.57047 0 -4.26834)
(-4.60164 0 -6.16679)
(-4.539 0 -7.96534)
(-4.38064 0 -9.65122)
(-4.12706 0 -11.21)
(-3.78129 0 -12.6256)
(-3.34895 0 -13.8807)
(-2.83824 0 -14.9572)
(-2.25983 0 -15.8375)
(-1.62667 0 -16.5055)
(-0.953636 0 -16.9479)
(-0.257046 0 -17.1553)
(0.445913 0 -17.1228)
(1.13782 0 -16.8514)
(1.80165 0 -16.347)
(2.42143 0 -15.6202)
(2.98276 0 -14.6853)
(3.47328 0 -13.5588)
(3.88297 0 -12.2586)
(4.2043 0 -10.8027)
(4.43238 0 -9.20802)
(4.56486 0 -7.49034)
(4.6019 0 -5.66357)
(4.54605 0 -3.74011)
(4.40211 0 -1.73131)
(4.17699 0 0.351585)
(3.87962 0 2.49608)
(3.52079 0 4.68695)
(3.11299 0 6.90484)
(2.67033 0 9.12511)
(2.20859 0 11.3167)
(1.7453 0 13.4414)
(1.29996 0 15.4521)
(0.894011 0 17.2907)
(0.549842 0 18.8828)
(0.286123 0 20.1299)
(0.103946 0 20.9084)
(-0.0297981 0 21.1044)
(-0.175942 0 20.6833)
(-0.387831 0 19.7177)
(-0.684404 0 18.3325)
(-1.05565 0 16.6433)
(-1.48047 0 14.7386)
(-1.93662 0 12.6857)
(-2.4034 0 10.5383)
(-2.86211 0 8.33964)
(-3.29593 0 6.12517)
(-3.68975 0 3.92322)
(-4.03009 0 1.7561)
(-4.30509 0 -0.35882)
(-4.50464 0 -2.40781)
(-4.62053 0 -4.37941)
(-4.64657 0 -6.26287)
(-4.57872 0 -8.04697)
(-4.41519 0 -9.7192)
(-4.15657 0 -11.2654)
(-3.80598 0 -12.6695)
(-3.36908 0 -13.9145)
(-2.85409 0 -14.9824)
(-2.27167 0 -15.8558)
(-1.63475 0 -16.5185)
(-0.95813 0 -16.9574)
(-0.258069 0 -17.1631)
(0.323728 0 -17.736)
(0.824548 0 -17.4485)
(1.30164 0 -16.9146)
(1.74161 0 -16.1461)
(2.13255 0 -15.159)
(2.46447 0 -13.9718)
(2.72951 0 -12.6046)
(2.92214 0 -11.0776)
(3.03924 0 -9.41031)
(3.08003 0 -7.62057)
(3.04606 0 -5.72449)
(2.94112 0 -3.73643)
(2.77106 0 -1.66948)
(2.54372 0 0.463553)
(2.26877 0 2.6489)
(1.95751 0 4.87032)
(1.62269 0 7.1077)
(1.27834 0 9.33572)
(0.93972 0 11.5228)
(0.623206 0 13.63)
(0.346128 0 15.6101)
(0.126228 0 17.4058)
(-0.0198976 0 18.947)
(-0.081013 0 20.1479)
(-0.061025 0 20.9093)
(0.00906839 0 21.1424)
(0.0745801 0 20.8141)
(0.0832425 0 19.9691)
(0.00876684 0 18.7006)
(-0.149437 0 17.1063)
(-0.378767 0 15.2695)
(-0.662234 0 13.2579)
(-0.982073 0 11.127)
(-1.32106 0 8.92264)
(-1.66297 0 6.6826)
(-1.9927 0 4.43755)
(-2.29639 0 2.21208)
(-2.5615 0 0.0258601)
(-2.77698 0 -2.10503)
(-2.93347 0 -4.16671)
(-3.02347 0 -6.14598)
(-3.04153 0 -8.02913)
(-2.98434 0 -9.80109)
(-2.85084 0 -11.445)
(-2.64235 0 -12.9424)
(-2.36259 0 -14.2732)
(-2.0177 0 -15.4171)
(-1.61611 0 -16.354)
(-1.16839 0 -17.066)
(-0.686913 0 -17.5379)
(-0.18544 0 -17.7591)
(0.321448 0 -17.7245)
(0.818939 0 -17.4349)
(1.29262 0 -16.897)
(1.72904 0 -16.1227)