/*--------------------------------*- C++ -*----------------------------------*\
| =========                 |                                                 |
| \\      /  F ield         | OpenFOAM: The Open Source CFD Toolbox           |
|  \\    /   O peration     | Version:  2.3.0                                 |
|   \\  /    A nd           | Web:      www.OpenFOAM.org                      |
|    \\/     M anipulation  |                                                 |
\*---------------------------------------------------------------------------*/
FoamFile
{
    version     2.0;
    format      ascii;
    class       volScalarField;
    location    "20000";
    object      p_rgh;
}
// * * * * * * * * * * * * * * * * * * * * * * * * * * * * * * * * * * * * * //

dimensions      [0 2 -2 0 0 0 0];

internalField   nonuniform List<scalar> 
191
(
-1668.11
-1646.57
-1620.06
-1586.3
-1541.67
-1481.98
-1411.72
-1331.46
-1237.66
-1174.7
-1191.24
-1273.84
-1364.56
-1629.94
-1608.33
-1582.79
-1552.04
-1514.88
-1472.9
-1428.58
-1394.93
-1395.09
-1392.33
-1393.75
-1392.95
-1404.44
-1587.57
-1569.16
-1549.43
-1528.43
-1498.5
-1463.57
-1424.07
-1370.68
-1347.85
-1338.83
-1341.42
-1353.93
-1389.52
-1575.81
-1561.81
-1545.08
-1523.86
-1486.22
-1432
-1378.1
-1337.14
-1304.38
-1285.05
-1290.22
-1316.1
-1352.36
-1594.39
-1581.19
-1562.12
-1534.81
-1491.76
-1427.44
-1345.31
-1287.8
-1247.09
-1223.82
-1229.93
-1261.29
-1628.32
-1614.26
-1591.49
-1556.71
-1505
-1431.25
-1334.21
-1257.98
-1200
-1167.96
-1176.19
-1219.61
-1665.57
-1649.87
-1623.04
-1580.99
-1519.14
-1435.17
-1330.9
-1233.63
-1153.16
-1109.83
-1120.8
-1180.58
-1697.83
-1679.28
-1647.71
-1598.55
-1526.41
-1432.63
-1327.45
-1209.81
-1104.76
-1048.02
-1062.32
-1141.58
-1732.7
-1718.43
-1694.96
-1657.76
-1602.19
-1521.46
-1419.4
-1315.08
-1178.04
-1049.43
-978.841
-996.844
-1095.82
-1740.54
-1719.93
-1689.22
-1644.7
-1582.24
-1494.5
-1387.94
-1284.06
-1128.3
-980.043
-898.07
-919.171
-1032.79
-1711.9
-1683.16
-1644.05
-1592.05
-1523.66
-1430.89
-1315.34
-1208.55
-1046.72
-890.551
-802.527
-825.566
-944.173
-1609.29
-1572.57
-1525.93
-1466.24
-1388
-1291.32
-1181.16
-1076.06
-922.24
-777.935
-691.863
-715.056
-827.933
-1372.88
-1331.19
-1280.16
-1216.68
-1135.06
-1043.45
-966.055
-882.828
-765.005
-650.174
-576.431
-596.776
-690.76
-945.057
-901.242
-852.851
-803.668
-754.772
-706.858
-664.283
-608.105
-529.642
-450.385
-397.098
-412.078
-478.881
-284.679
-272.482
-269.561
-279.544
-306.773
-352.897
-408.229
-457.686
-486.374
-495.955
-493.134
-494.832
-494.155
)
;

boundaryField
{
    top
    {
        type            fixedValue;
        value           uniform 0;
    }
    bottom
    {
        type            fixedFluxPressure;
        gradient        uniform 0;
        value           nonuniform List<scalar> 
13
(
-1668.11
-1646.57
-1620.06
-1586.3
-1541.67
-1481.98
-1411.72
-1331.46
-1237.66
-1174.7
-1191.24
-1273.84
-1364.56
)
;
    }
    frontAndBack
    {
        type            empty;
    }
    left_cyc
    {
        type            cyclic;
    }
    right_cyc
    {
        type            cyclic;
    }
    procBoundary2to1
    {
        type            processor;
        value           nonuniform List<scalar> 
16
(
-1686.26
-1648.78
-1604.86
-1588.38
-1604.2
-1637.04
-1674.26
-1708.02
-1708.02
-1741.72
-1754.63
-1733.28
-1639.15
-1409.12
-985.674
-304.134
)
;
    }
    procBoundary2to3
    {
        type            processor;
        value           nonuniform List<scalar> 
16
(
-1439.37
-1446.34
-1441.34
-1394.91
-1308.54
-1308.54
-1286.42
-1270.81
-1256.47
-1234.44
-1188.83
-1109.48
-982.761
-810.265
-559.942
-477.507
)
;
    }
}


// ************************************************************************* //
