/*--------------------------------*- C++ -*----------------------------------*\
| =========                 |                                                 |
| \\      /  F ield         | OpenFOAM: The Open Source CFD Toolbox           |
|  \\    /   O peration     | Version:  2.3.0                                 |
|   \\  /    A nd           | Web:      www.OpenFOAM.org                      |
|    \\/     M anipulation  |                                                 |
\*---------------------------------------------------------------------------*/
FoamFile
{
    version     2.0;
    format      ascii;
    class       surfaceScalarField;
    location    "20000";
    object      phi;
}
// * * * * * * * * * * * * * * * * * * * * * * * * * * * * * * * * * * * * * //

dimensions      [0 3 -1 0 0 0 0];

internalField   nonuniform List<scalar> 
353
(
-0.412525
0.0251281
-0.443424
0.030899
-0.479867
0.0364425
-0.515302
0.035435
-0.527694
0.0123925
-0.487004
-0.0406902
-0.395815
-0.0911894
-0.270869
-0.124946
-0.123284
-0.147585
0.028663
-0.151947
0.179919
-0.151256
0.321486
-0.141567
-0.113258
-0.521786
0.0140193
-0.500978
0.0100914
-0.466885
0.00234972
-0.415769
-0.0156808
-0.344833
-0.0585441
-0.260095
-0.125428
-0.178181
-0.173103
-0.109311
-0.193815
-0.0499607
-0.206935
0.0108645
-0.212772
0.0711443
-0.211536
0.132564
-0.202987
-0.187914
-0.455129
-0.0190784
-0.408414
-0.0366245
-0.347477
-0.0585871
-0.277784
-0.0853737
-0.215089
-0.121239
-0.17002
-0.170497
-0.129424
-0.213699
-0.0846158
-0.238623
-0.0385026
-0.253049
0.00827598
-0.259551
0.0548829
-0.258143
0.100745
-0.248849
-0.231285
-0.380752
-0.0539981
-0.333297
-0.0840796
-0.273715
-0.118169
-0.20912
-0.149969
-0.155787
-0.174571
-0.121949
-0.204335
-0.0933413
-0.242307
-0.062622
-0.269343
-0.0289792
-0.286692
0.00618273
-0.294713
0.0409588
-0.292919
0.0735642
-0.281454
-0.305539
-0.0820641
-0.267111
-0.122508
-0.218164
-0.167115
-0.16351
-0.204623
-0.115421
-0.22266
-0.0849627
-0.234794
-0.0632611
-0.264009
-0.0422305
-0.290373
-0.0196083
-0.309314
0.00410767
-0.318429
0.027537
-0.316348
-0.303437
-0.214407
-0.0998558
-0.189101
-0.147813
-0.155369
-0.200847
-0.115425
-0.244568
-0.0763648
-0.26172
-0.0514354
-0.259723
-0.0369834
-0.278461
-0.0245617
-0.302795
-0.0114848
-0.322391
0.00233035
-0.332244
0.0159419
-0.32996
-0.316135
-0.100972
-0.106995
-0.089678
-0.159107
-0.0733617
-0.217164
-0.0527192
-0.26521
-0.0310369
-0.283402
-0.0185527
-0.272207
-0.0131609
-0.283853
-0.00902909
-0.306927
-0.00438855
-0.327031
0.000819395
-0.337452
0.0058664
-0.335007
-0.320459
0.0308595
-0.104771
0.0287846
-0.157032
0.0266296
-0.215009
0.0241569
-0.262737
0.0212944
-0.28054
0.015902
-0.266815
0.00994558
-0.277896
0.00553059
-0.302512
0.0022126
-0.323713
-0.000571002
-0.334668
-0.00349773
-0.33208
-0.316741
0.178502
-0.0584565
0.168569
-0.0948377
0.154302
-0.142765
0.133899
-0.194606
0.106994
-0.235832
0.0764705
-0.250016
0.0509726
-0.241317
0.0335078
-0.260432
0.0204662
-0.28947
0.00899917
-0.312246
-0.00206705
-0.323602
-0.0132308
-0.320917
-0.304862
0.307757
-0.0476184
0.291231
-0.078311
0.266151
-0.117686
0.229672
-0.158126
0.181225
-0.187386
0.12688
-0.195671
0.0844174
-0.198855
0.0586153
-0.234629
0.0372472
-0.268102
0.0166842
-0.291683
-0.0039472
-0.302971
-0.0245909
-0.300273
-0.284094
0.393776
-0.0336089
0.371377
-0.0559123
0.337408
-0.0837161
0.289082
-0.109801
0.226357
-0.12466
0.16335
-0.132665
0.119629
-0.155133
0.0877549
-0.202755
0.0573837
-0.237731
0.0259402
-0.26024
-0.00625202
-0.270778
-0.0383015
-0.268223
-0.252942
0.409998
-0.0167512
0.383297
-0.0292117
0.344497
-0.0449163
0.294659
-0.0599625
0.239333
-0.0693348
0.192414
-0.0857452
0.15939
-0.122109
0.121986
-0.165352
0.0806559
-0.196401
0.0365904
-0.216174
-0.00880449
-0.225384
-0.0538802
-0.223148
-0.20978
0.369459
-0.00571543
0.352116
-0.0118693
0.325955
-0.0187548
0.293424
-0.0274313
0.263492
-0.0394031
0.236235
-0.0584878
0.201891
-0.0877658
0.156209
-0.119669
0.103635
-0.143827
0.0470838
-0.159623
-0.0113159
-0.166984
-0.06927
-0.165194
-0.154505
0.363596
0.00147343
0.353169
-0.00144214
0.339155
-0.0047405
0.321222
-0.00949873
0.299315
-0.017496
0.271664
-0.0308365
0.233024
-0.049126
0.181692
-0.0683368
0.121334
-0.0834696
0.0553318
-0.0936206
-0.0132714
-0.0983806
-0.0812438
-0.0972211
-0.0903202
0.366069
0.359765
0.351164
0.339501
0.322553
0.296175
0.256168
0.201583
0.135597
0.0621036
-0.0148779
-0.0910085
)
;

boundaryField
{
    top
    {
        type            calculated;
        value           nonuniform List<scalar> 
13
(
0.00546217
0.00486265
0.00386047
0.00216443
-0.00054889
-0.00445762
-0.00911945
-0.0137512
-0.0174835
-0.0201277
-0.0213991
-0.0210905
-0.0192659
)
;
    }
    bottom
    {
        type            calculated;
        value           uniform 0;
    }
    frontAndBack
    {
        type            empty;
        value           nonuniform 0();
    }
    left_cyc
    {
        type            cyclic;
        value           nonuniform 0();
    }
    right_cyc
    {
        type            cyclic;
        value           nonuniform 0();
    }
    procBoundary2to1
    {
        type            processor;
        value           nonuniform List<scalar> 
16
(
0.387397
0.532895
0.488227
0.415671
0.333605
0.232198
0.10811
-0.0330833
0.0657642
-0.185809
-0.318596
-0.407786
-0.426856
-0.380495
-0.370785
-0.370058
)
;
    }
    procBoundary2to3
    {
        type            processor;
        value           nonuniform List<scalar> 
16
(
0.434744
0.20722
0.144116
0.102969
-0.26069
0.0495191
0.0286402
0.0101908
-0.00721615
-0.0251095
-0.0453589
-0.0694536
-0.0970425
-0.124544
-0.145429
-0.162063
)
;
    }
}


// ************************************************************************* //
