/*--------------------------------*- C++ -*----------------------------------*\
| =========                 |                                                 |
| \\      /  F ield         | OpenFOAM: The Open Source CFD Toolbox           |
|  \\    /   O peration     | Version:  2.3.0                                 |
|   \\  /    A nd           | Web:      www.OpenFOAM.org                      |
|    \\/     M anipulation  |                                                 |
\*---------------------------------------------------------------------------*/
FoamFile
{
    version     2.0;
    format      ascii;
    class       volScalarField;
    location    "20000";
    object      T;
}
// * * * * * * * * * * * * * * * * * * * * * * * * * * * * * * * * * * * * * //

dimensions      [0 0 0 1 0 0 0];

internalField   nonuniform List<scalar> 
191
(
37.8101
37.0941
36.2016
35.1084
33.7946
32.1762
30.6974
29.5976
28.8299
28.4975
28.5886
29.078
29.982
28.9287
27.8166
26.4513
24.7155
22.6289
20.6715
19.0699
17.7469
16.7267
16.182
16.3323
17.082
18.2348
23.7911
22.7656
21.6221
20.3511
18.889
17.2582
15.5735
13.99
12.7173
12.0223
12.2109
13.1658
14.5925
22.8713
22.2
21.3708
20.2906
18.8604
17.075
15.0801
13.1067
11.4938
10.6196
10.8505
12.0582
13.86
23.9916
23.4798
22.7257
21.603
19.9923
17.8831
15.4678
13.0434
11.0518
9.98431
10.2594
11.7417
25.5421
25.0693
24.288
23.0585
21.2522
18.8288
15.9981
13.1318
10.7692
9.51163
9.83011
11.5814
26.9178
26.4313
25.5913
24.2533
22.2827
19.6097
16.4276
13.1728
10.4748
9.03766
9.39875
11.3986
27.9251
27.384
26.4687
25.0382
22.951
20.1149
16.6701
13.1059
10.1254
8.51824
8.92356
11.1459
28.8915
28.4828
27.8354
26.8271
25.3306
23.1909
20.254
16.6209
12.8562
9.67988
7.92704
8.37505
10.7704
29.0714
28.5173
27.7203
26.5864
25.0125
22.833
19.8408
16.1299
12.3171
9.06882
7.22849
7.7068
10.1893
28.4404
27.7164
26.7559
25.4946
23.8547
21.651
18.6725
15.0775
11.4101
8.24446
6.39886
6.88664
9.3415
26.3961
25.526
24.4529
23.1263
21.48
19.3322
16.5493
13.3332
10.0401
7.14491
5.40845
5.87434
8.15355
22.1326
21.2275
20.2001
18.9886
17.5091
15.6581
13.3776
10.773
8.08836
5.69208
4.21934
4.61993
6.53213
15.228
14.5051
13.7279
12.8531
11.8128
10.5336
8.99181
7.25003
5.44973
3.82022
2.79558
3.07744
4.39452
5.67943
5.3409
5.02099
4.69139
4.32387
3.89118
3.37623
2.7809
2.13559
1.51989
1.11466
1.22786
1.74004
)
;

boundaryField
{
    top
    {
        type            fixedValue;
        value           uniform 0;
    }
    bottom
    {
        type            fixedValue;
        value           uniform 43.8;
    }
    frontAndBack
    {
        type            empty;
    }
    left_cyc
    {
        type            cyclic;
    }
    right_cyc
    {
        type            cyclic;
    }
    procBoundary2to1
    {
        type            processor;
        value           nonuniform List<scalar> 
16
(
38.3809
29.8677
24.7218
23.4535
24.3643
25.8295
27.1865
28.2303
28.2303
29.166
29.4694
28.9965
27.118
22.9527
15.9432
6.04064
)
;
    }
    procBoundary2to3
    {
        type            processor;
        value           nonuniform List<scalar> 
16
(
31.2084
19.6553
16.2411
15.8843
13.9627
13.9627
14.2122
14.3954
14.4427
14.2655
13.7376
12.7642
11.2565
9.08448
6.11864
2.37845
)
;
    }
}


// ************************************************************************* //
