/*--------------------------------*- C++ -*----------------------------------*\
| =========                 |                                                 |
| \\      /  F ield         | OpenFOAM: The Open Source CFD Toolbox           |
|  \\    /   O peration     | Version:  2.3.0                                 |
|   \\  /    A nd           | Web:      www.OpenFOAM.org                      |
|    \\/     M anipulation  |                                                 |
\*---------------------------------------------------------------------------*/
FoamFile
{
    version     2.0;
    format      ascii;
    class       volScalarField;
    location    "8000";
    object      p_rgh;
}
// * * * * * * * * * * * * * * * * * * * * * * * * * * * * * * * * * * * * * //

dimensions      [0 2 -2 0 0 0 0];

internalField   nonuniform List<scalar> 
191
(
-1668.8
-1647.46
-1621.25
-1587.91
-1543.92
-1485.06
-1415.17
-1335.86
-1242.27
-1176.12
-1188.09
-1268.74
-1360.48
-1630.64
-1609.19
-1583.87
-1553.41
-1516.53
-1474.62
-1430.39
-1395.29
-1394.33
-1392.2
-1393.82
-1393.97
-1403.42
-1588.08
-1569.72
-1550.05
-1529.12
-1499.82
-1464.92
-1426.48
-1372.79
-1348.54
-1339.06
-1340.95
-1352.88
-1386.51
-1575.95
-1562.03
-1545.46
-1524.57
-1488.1
-1434.82
-1380.22
-1339.16
-1305.92
-1285.54
-1289.21
-1314.25
-1350.02
-1594.38
-1581.38
-1562.67
-1535.87
-1494.04
-1431.17
-1348.72
-1290.58
-1249.07
-1224.46
-1228.73
-1259.06
-1628.33
-1614.61
-1592.39
-1558.36
-1507.89
-1435.45
-1338.78
-1261.96
-1202.81
-1168.85
-1174.55
-1216.46
-1665.69
-1650.45
-1624.34
-1583.25
-1522.74
-1440
-1336.48
-1239.1
-1157.08
-1111.02
-1118.59
-1176.06
-1698.16
-1680.18
-1649.46
-1601.45
-1530.81
-1438.23
-1333.47
-1216.89
-1110.1
-1049.57
-1059.42
-1135.47
-1733
-1719.1
-1696.25
-1659.95
-1605.63
-1526.56
-1425.76
-1321.13
-1186.54
-1056.21
-980.798
-993.079
-1087.94
-1741.21
-1721.04
-1691
-1647.37
-1586.15
-1499.97
-1394.57
-1290.56
-1137.8
-987.776
-900.385
-914.664
-1023.5
-1713.03
-1684.8
-1646.37
-1595.19
-1527.99
-1436.8
-1322.24
-1216.43
-1056.82
-898.574
-805.11
-820.607
-934.455
-1610.89
-1574.65
-1528.7
-1469.9
-1393.08
-1297.54
-1187.23
-1083.76
-932.185
-785.714
-694.583
-710.153
-819.037
-1374.72
-1333.48
-1283.2
-1220.48
-1140.47
-1048.39
-970.581
-889.249
-772.698
-656.685
-578.891
-592.528
-683.622
-947.387
-903.847
-855.732
-806.438
-757.687
-709.635
-666.809
-612.367
-534.81
-455
-398.924
-408.967
-473.893
-286.518
-273.851
-270.357
-279.38
-305.429
-350.525
-405.305
-455.659
-485.52
-496.082
-493.498
-494.536
-494.47
)
;

boundaryField
{
    top
    {
        type            fixedValue;
        value           uniform 0;
    }
    bottom
    {
        type            fixedFluxPressure;
        gradient        uniform 0;
        value           nonuniform List<scalar> 
13
(
-1668.8
-1647.46
-1621.25
-1587.91
-1543.92
-1485.06
-1415.17
-1335.86
-1242.27
-1176.12
-1188.09
-1268.74
-1360.48
)
;
    }
    frontAndBack
    {
        type            empty;
    }
    left_cyc
    {
        type            cyclic;
    }
    right_cyc
    {
        type            cyclic;
    }
    procBoundary2to1
    {
        type            processor;
        value           nonuniform List<scalar> 
16
(
-1686.81
-1649.37
-1605.33
-1588.49
-1604.09
-1636.88
-1674.15
-1708.06
-1708.06
-1741.84
-1755.03
-1734.08
-1640.43
-1410.63
-987.952
-306.257
)
;
    }
    procBoundary2to3
    {
        type            processor;
        value           nonuniform List<scalar> 
16
(
-1436.04
-1444.58
-1439.29
-1392.28
-1305.39
-1305.39
-1282.14
-1265.23
-1249.32
-1225.26
-1178.74
-1099.05
-972.716
-802.789
-554.903
-478.926
)
;
    }
}


// ************************************************************************* //
