/*--------------------------------*- C++ -*----------------------------------*\
| =========                 |                                                 |
| \\      /  F ield         | OpenFOAM: The Open Source CFD Toolbox           |
|  \\    /   O peration     | Version:  2.3.0                                 |
|   \\  /    A nd           | Web:      www.OpenFOAM.org                      |
|    \\/     M anipulation  |                                                 |
\*---------------------------------------------------------------------------*/
FoamFile
{
    version     2.0;
    format      ascii;
    class       volScalarField;
    location    "18000";
    object      p_rgh;
}
// * * * * * * * * * * * * * * * * * * * * * * * * * * * * * * * * * * * * * //

dimensions      [0 2 -2 0 0 0 0];

internalField   nonuniform List<scalar> 
191
(
-1831.93
-1813.7
-1798.31
-1786.21
-1776.41
-1767.7
-1759.07
-1749.8
-1739.62
-1728.38
-1715.93
-1702.03
-1686.31
-1801.15
-1783.77
-1769.14
-1757.34
-1747.33
-1738.06
-1728.66
-1718.6
-1707.24
-1694.65
-1680.82
-1665.64
-1648.84
-1762.79
-1742.96
-1728.92
-1717.15
-1706.53
-1696.26
-1685.8
-1674.84
-1663.24
-1650.39
-1636.32
-1621.17
-1604.92
-1732.99
-1712.56
-1699.9
-1689.38
-1679.02
-1668.4
-1657.53
-1646.46
-1635.22
-1623.84
-1612.23
-1600.41
-1588.42
-1718.48
-1700.37
-1690.74
-1683.24
-1674.83
-1665.45
-1655.67
-1646.04
-1636.87
-1628.3
-1620.25
-1612.44
-1604.22
-1716.98
-1702.53
-1697.84
-1694.39
-1689.37
-1682.44
-1674.58
-1666.78
-1659.67
-1653.51
-1648.16
-1643.06
-1637.07
-1727.78
-1714.18
-1713.31
-1713.83
-1712.92
-1709.35
-1703.95
-1697.92
-1692.19
-1687.3
-1683.23
-1679.36
-1674.28
-1750.49
-1736.82
-1735.22
-1737.06
-1738.31
-1737.92
-1735.47
-1731.53
-1726.95
-1722.43
-1718.23
-1713.91
-1708.05
-1779.83
-1766.9
-1763.79
-1764.63
-1765.61
-1765.53
-1764.25
-1761.66
-1757.97
-1753.44
-1748.18
-1741.74
-1810.51
-1799.24
-1794.91
-1793.5
-1792.6
-1791.03
-1788.28
-1784.3
-1779.15
-1772.77
-1764.86
-1754.66
-1834.82
-1824.6
-1818.15
-1812.89
-1807.38
-1800.98
-1793.44
-1784.68
-1774.67
-1763.36
-1749.86
-1733.33
-1831.04
-1817.81
-1805.25
-1792.14
-1777.97
-1762.56
-1745.8
-1727.59
-1707.82
-1686.6
-1664.41
-1639.22
-1739.57
-1718.72
-1697.07
-1674.34
-1650.41
-1625.26
-1598.76
-1570.62
-1540.48
-1508.22
-1474.64
-1441.46
-1409.21
-1372.31
-1350.88
-1326.55
-1299.75
-1270.92
-1240.5
-1208.73
-1175.61
-1140.88
-1104.23
-1065.93
-1026.47
-985.787
-678.643
-647.073
-613.092
-578.722
-544.896
-511.941
-479.863
-448.553
-417.941
-388.001
-358.3
-329.317
-304.194
)
;

boundaryField
{
    top
    {
        type            fixedValue;
        value           uniform 0;
    }
    bottom
    {
        type            fixedFluxPressure;
        gradient        uniform 0;
        value           nonuniform List<scalar> 
13
(
-1831.93
-1813.7
-1798.31
-1786.21
-1776.41
-1767.7
-1759.07
-1749.8
-1739.62
-1728.38
-1715.93
-1702.03
-1686.31
)
;
    }
    frontAndBack
    {
        type            empty;
    }
    left_cyc
    {
        type            cyclic;
    }
    right_cyc
    {
        type            cyclic;
    }
    procBoundary1to0
    {
        type            processor;
        value           nonuniform List<scalar> 
16
(
-1851.39
-1821.57
-1790.03
-1765.72
-1753.98
-1753.97
-1765.78
-1785.71
-1809.65
-1833.72
-1852.18
-1846.8
-1846.8
-1759.58
-1390.27
-704.229
)
;
    }
    procBoundary1to2
    {
        type            processor;
        value           nonuniform List<scalar> 
16
(
-1668.17
-1630
-1587.62
-1575.85
-1594.43
-1628.36
-1665.6
-1697.86
-1732.73
-1732.73
-1740.58
-1711.96
-1609.38
-1372.98
-945.173
-284.723
)
;
    }
}


// ************************************************************************* //
