/*--------------------------------*- C++ -*----------------------------------*\
| =========                 |                                                 |
| \\      /  F ield         | OpenFOAM: The Open Source CFD Toolbox           |
|  \\    /   O peration     | Version:  2.3.0                                 |
|   \\  /    A nd           | Web:      www.OpenFOAM.org                      |
|    \\/     M anipulation  |                                                 |
\*---------------------------------------------------------------------------*/
FoamFile
{
    version     2.0;
    format      ascii;
    class       surfaceScalarField;
    location    "18000";
    object      phi;
}
// * * * * * * * * * * * * * * * * * * * * * * * * * * * * * * * * * * * * * //

dimensions      [0 3 -1 0 0 0 0];

internalField   nonuniform List<scalar> 
353
(
-0.406432
0.0261789
-0.3959
-0.0105321
-0.3694
-0.0264999
-0.342054
-0.0273459
-0.321716
-0.020338
-0.31078
-0.0109362
-0.308528
-0.00225157
-0.312973
0.00444514
-0.32202
0.00904713
-0.33429
0.0122697
-0.349154
0.0148642
-0.36663
0.0174757
0.0206986
-0.64066
0.0855476
-0.648238
-0.00295454
-0.629621
-0.0451161
-0.602273
-0.0546941
-0.576384
-0.0462271
-0.556597
-0.0307233
-0.543989
-0.0148595
-0.537717
-0.00182701
-0.53604
0.0073702
-0.536831
0.0130608
-0.537989
0.0160217
-0.537433
0.0169199
0.0161812
-0.624568
0.155013
-0.647664
0.0201416
-0.644582
-0.0481982
-0.628917
-0.0703588
-0.609139
-0.0660051
-0.589891
-0.0499713
-0.573221
-0.0315295
-0.559531
-0.0155178
-0.548219
-0.0039413
-0.537822
0.0026638
-0.526233
0.00443264
-0.51079
0.00147671
-0.00630238
-0.500487
0.223514
-0.534855
0.0545095
-0.547146
-0.0359071
-0.546177
-0.0713274
-0.537883
-0.0742997
-0.526059
-0.0617952
-0.512983
-0.044605
-0.499834
-0.0286668
-0.486923
-0.0168523
-0.473785
-0.0104738
-0.459105
-0.0102476
-0.440729
-0.0168996
-0.0312767
-0.333152
0.283346
-0.372843
0.0942009
-0.396929
-0.0118206
-0.409498
-0.0587591
-0.413866
-0.0699319
-0.412555
-0.063106
-0.407471
-0.0496884
-0.399998
-0.0361407
-0.390993
-0.0258566
-0.380733
-0.0207338
-0.368766
-0.0222149
-0.353797
-0.0318687
-0.0514056
-0.151441
0.327559
-0.189158
0.131917
-0.218921
0.0179432
-0.240729
-0.036952
-0.255447
-0.0552131
-0.26416
-0.054393
-0.26799
-0.0458592
-0.268023
-0.0361071
-0.26523
-0.0286497
-0.26033
-0.0256339
-0.253594
-0.0289508
-0.24463
-0.0408326
-0.0638031
0.0274945
0.351005
-0.00199298
0.161405
-0.0311368
0.047087
-0.0567468
-0.0113419
-0.0775598
-0.0344002
-0.093377
-0.0385758
-0.104472
-0.0347645
-0.111395
-0.029184
-0.114899
-0.0251453
-0.115829
-0.0247046
-0.114901
-0.029878
-0.112434
-0.0433
-0.0681188
0.191378
0.350436
0.174221
0.178562
0.149961
0.0713473
0.124699
0.0139194
0.101681
-0.0113822
0.0822883
-0.0191827
0.0669296
-0.0194059
0.0554968
-0.0177511
0.0474933
-0.0171418
0.0421042
-0.0193155
0.0383838
-0.0261576
0.0355379
-0.0404541
0.329344
0.324972
0.326816
0.181089
0.309835
0.0883281
0.287356
0.0363986
0.264653
0.0113206
0.244416
0.0010543
0.227732
-0.00272133
0.21478
-0.00479932
0.205148
-0.00751047
0.197929
-0.0120955
0.191899
-0.0201277
-0.0343844
0.42975
0.277396
0.441851
0.168988
0.433335
0.0968436
0.415301
0.0544327
0.394817
0.0318052
0.375784
0.0200873
0.35998
0.0130827
0.347871
0.00730963
0.339063
0.00129702
0.332403
-0.00543516
0.326186
-0.013911
-0.0268183
0.478443
0.215005
0.502286
0.145145
0.502229
0.0969006
0.490134
0.0665282
0.473943
0.0479961
0.458181
0.0358494
0.444972
0.026291
0.434977
0.0173045
0.427901
0.0083737
0.42247
-4.90994e-06
0.416535
-0.0079751
-0.0180995
0.456775
0.149577
0.486976
0.114945
0.494725
0.0891515
0.490617
0.0706364
0.481746
0.0568664
0.472055
0.0455412
0.46329
0.0350559
0.455967
0.0246271
0.449944
0.0143966
0.444329
0.00561021
0.437369
-0.00101545
-0.007625
0.292944
0.104977
0.348732
0.0937884
0.381023
0.082654
0.398002
0.0721729
0.406176
0.0624624
0.409635
0.053407
0.410387
0.0447887
0.409084
0.0363593
0.405814
0.0278969
0.4008
0.0194108
0.394712
0.0116989
0.388175
0.00552134
2.32831e-05
0.155044
0.0517936
0.200855
0.0479779
0.239967
0.043541
0.27323
0.0389098
0.301354
0.0343393
0.324825
0.0299354
0.343912
0.0257016
0.358691
0.0215809
0.369082
0.017505
0.374966
0.0135271
0.376665
0.00999987
0.375102
0.00708455
0.00431658
0.136563
0.181416
0.221236
0.255908
0.285573
0.310471
0.330837
0.346842
0.358598
0.366277
0.370375
0.371546
)
;

boundaryField
{
    top
    {
        type            calculated;
        value           nonuniform List<scalar> 
13
(
0.00249373
0.00312482
0.00372051
0.00423858
0.00467438
0.00503684
0.00533611
0.00557576
0.00574871
0.00584802
0.00590226
0.00591317
0.00578867
)
;
    }
    bottom
    {
        type            calculated;
        value           uniform 0;
    }
    frontAndBack
    {
        type            empty;
        value           nonuniform 0();
    }
    left_cyc
    {
        type            cyclic;
        value           nonuniform 0();
    }
    right_cyc
    {
        type            cyclic;
        value           nonuniform 0();
    }
    procBoundary1to0
    {
        type            processor;
        value           nonuniform List<scalar> 
16
(
0.380253
0.581291
0.555103
0.431985
0.27332
0.107228
-0.050941
-0.190809
-0.303879
-0.382173
-0.416052
-0.391348
-0.191431
-0.20649
-0.101861
-0.0872629
)
;
    }
    procBoundary1to2
    {
        type            processor;
        value           nonuniform List<scalar> 
16
(
-0.387329
-0.532915
-0.488306
-0.415754
-0.333668
-0.232233
-0.108118
0.0330955
-0.0656764
0.185829
0.31862
0.407816
0.426895
0.380526
0.370809
0.370074
)
;
    }
}


// ************************************************************************* //
