/*--------------------------------*- C++ -*----------------------------------*\
| =========                 |                                                 |
| \\      /  F ield         | OpenFOAM: The Open Source CFD Toolbox           |
|  \\    /   O peration     | Version:  2.3.0                                 |
|   \\  /    A nd           | Web:      www.OpenFOAM.org                      |
|    \\/     M anipulation  |                                                 |
\*---------------------------------------------------------------------------*/
FoamFile
{
    version     2.0;
    format      ascii;
    class       volScalarField;
    location    "18000";
    object      T;
}
// * * * * * * * * * * * * * * * * * * * * * * * * * * * * * * * * * * * * * //

dimensions      [0 0 0 1 0 0 0];

internalField   nonuniform List<scalar> 
191
(
40.3089
40.0233
39.8366
39.8421
39.9404
40.0336
40.0519
39.9486
39.7593
39.5132
39.2103
38.8398
38.3825
34.4222
33.7685
33.4024
33.2895
33.2806
33.2594
33.1518
32.9238
32.5274
32.0086
31.3925
30.6828
29.8704
30.6754
29.7191
29.2837
29.021
28.8181
28.6018
28.3288
27.9774
27.5441
26.9884
26.3242
25.5691
24.7246
28.9351
27.9694
27.5306
27.2292
26.9316
26.6079
26.2527
25.8651
25.4452
24.9936
24.5083
23.9932
23.4553
28.4652
27.6872
27.3531
27.1297
26.8633
26.5497
26.2146
25.8799
25.5576
25.2519
24.9602
24.6725
24.3654
28.626
28.053
27.8886
27.7813
27.6146
27.3747
27.1
26.8285
26.5837
26.3742
26.1948
26.0262
25.8303
29.174
28.6658
28.6021
28.5933
28.5409
28.4014
28.2036
27.9878
27.786
27.6151
27.4753
27.3473
27.1871
29.9829
29.504
29.3912
29.3887
29.3753
29.3178
29.2032
29.0484
28.8788
28.7151
28.5652
28.4175
28.231
30.8451
30.4124
30.2452
30.1911
30.1489
30.0855
29.995
29.8737
29.7265
29.5604
29.3774
29.1666
31.6256
31.2524
31.0492
30.9253
30.8229
30.7127
30.5802
30.4223
30.2383
30.0255
29.7754
29.4703
32.1798
31.8399
31.5859
31.3682
31.156
30.9336
30.6927
30.429
30.1387
29.8174
29.4434
28.9978
32.1043
31.7083
31.3305
30.9529
30.5657
30.163
29.7394
29.289
28.8059
28.2876
27.7386
27.1197
30.6424
30.1137
29.5589
28.9873
28.4032
27.8076
27.1967
26.5631
25.8975
25.1938
24.4569
23.7053
22.9547
24.1729
23.6227
23.0209
22.3894
21.7397
21.0767
20.4001
19.7052
18.9859
18.2388
17.4726
16.7046
15.9452
10.5417
10.2425
9.89975
9.53224
9.1523
8.76703
8.37928
7.98885
7.59405
7.19542
6.80007
6.41567
6.04164
)
;

boundaryField
{
    top
    {
        type            fixedValue;
        value           uniform 0;
    }
    bottom
    {
        type            fixedValue;
        value           uniform 43.8;
    }
    frontAndBack
    {
        type            empty;
    }
    left_cyc
    {
        type            cyclic;
    }
    right_cyc
    {
        type            cyclic;
    }
    procBoundary1to0
    {
        type            processor;
        value           nonuniform List<scalar> 
16
(
40.6602
35.5834
32.392
30.7655
30.1542
30.1351
30.5269
31.1056
31.7206
32.2759
32.6655
32.5417
32.5417
31.1199
24.6287
10.7706
)
;
    }
    procBoundary1to2
    {
        type            processor;
        value           nonuniform List<scalar> 
16
(
37.8119
28.9318
23.7942
22.8732
23.993
25.5432
26.9189
27.9262
28.8924
28.8924
29.0727
28.442
26.3981
22.1348
15.23
5.68041
)
;
    }
}


// ************************************************************************* //
