/*--------------------------------*- C++ -*----------------------------------*\
| =========                 |                                                 |
| \\      /  F ield         | OpenFOAM: The Open Source CFD Toolbox           |
|  \\    /   O peration     | Version:  2.3.0                                 |
|   \\  /    A nd           | Web:      www.OpenFOAM.org                      |
|    \\/     M anipulation  |                                                 |
\*---------------------------------------------------------------------------*/
FoamFile
{
    version     2.0;
    format      ascii;
    class       volScalarField;
    location    "12000";
    object      NUEff;
}
// * * * * * * * * * * * * * * * * * * * * * * * * * * * * * * * * * * * * * //

dimensions      [0 2 -1 0 0 0 0];

internalField   nonuniform List<scalar> 
192
(
0.0165291
0.0164887
0.0165215
0.0165917
0.0166455
0.0166108
0.0164328
0.0162439
0.0159964
0.0156781
0.0155029
0.0157878
0.0160936
0.0233225
0.0230653
0.0229659
0.0229565
0.0229178
0.0226841
0.0221489
0.021169
0.0197337
0.0181177
0.0173425
0.0186246
0.0202389
0.0331543
0.0322538
0.0315911
0.0310674
0.0305416
0.0298039
0.0285576
0.0262615
0.0231538
0.0200592
0.018722
0.02099
0.0242359
0.0406643
0.0390885
0.0377533
0.0366148
0.0356112
0.0345609
0.032845
0.0297475
0.0255018
0.0213911
0.0197044
0.0226005
0.0269814
0.0407508
0.0393275
0.0380243
0.0369144
0.0360442
0.0352631
0.0338785
0.0310388
0.0266125
0.0221536
0.0203594
0.0234538
0.0281895
0.0370906
0.036116
0.0352188
0.0345188
0.0340901
0.0337469
0.0330185
0.0308114
0.0267539
0.0224713
0.0207673
0.0237103
0.0282317
0.0333849
0.0327687
0.0322602
0.0319569
0.0318915
0.0318737
0.0314244
0.0296075
0.0262286
0.0225845
0.0210753
0.0236384
0.027447
0.0305994
0.0302487
0.0300176
0.0299242
0.0298953
0.0298671
0.0294015
0.0279859
0.0254719
0.0226406
0.0213498
0.0234656
0.0263668
0.0287362
0.0284971
0.0283249
0.0282075
0.0281281
0.0279695
0.0275015
0.0264522
0.0247043
0.0226547
0.0215981
0.0232492
0.0253104
0.0275903
0.027298
0.0270591
0.0268597
0.0266651
0.026407
0.025971
0.0252123
0.0240458
0.0226485
0.0218299
0.0230393
0.0244286
0.0275198
0.0270267
0.0265911
0.0261987
0.0258292
0.0254482
0.024999
0.0244065
0.0236154
0.0226945
0.0220972
0.0229291
0.023847
0.0298359
0.0288489
0.0279773
0.0271949
0.0264817
0.025819
0.0251824
0.0245399
0.0238649
0.0231868
0.02275
0.023333
0.0240305
0.0403396
0.037718
0.035518
0.0336246
0.0319636
0.0304911
0.0291821
0.0280235
0.0270156
0.0261984
0.02577
0.0263543
0.152686
0.119306
0.0981594
0.0835843
0.0729316
0.0648393
0.058556
0.0536551
0.0499176
0.0473274
0.0462749
0.0478106
0.982528
0.98084
0.979018
0.977037
0.974881
0.972551
0.970089
0.9676
0.96529
0.963498
0.962794
0.963856
)
;

boundaryField
{
    top
    {
        type            calculated;
        value           uniform 1;
    }
    bottom
    {
        type            calculated;
        value           uniform 0.0143123;
    }
    frontAndBack
    {
        type            empty;
    }
    left_cyc
    {
        type            cyclic;
    }
    right_cyc
    {
        type            cyclic;
    }
    procBoundary0to1
    {
        type            processor;
        value           nonuniform List<scalar> 
16
(
0.0163233
0.0215309
0.0271673
0.0309785
0.0322082
0.0317815
0.0304001
0.0285715
0.0268559
0.025476
0.0245817
0.0246996
0.0272419
0.0272419
0.0507435
0.965845
)
;
    }
    procBoundary0to3throughleft_cyc
    {
        type            processorCyclic;
        value           nonuniform List<scalar> 
15
(
0.0166427
0.0238017
0.0343596
0.042531
0.0422387
0.0380418
0.0340107
0.0310168
0.029041
0.0279418
0.0280838
0.0309721
0.0435444
0.211668
0.984098
)
;
    }
}


// ************************************************************************* //
