/*--------------------------------*- C++ -*----------------------------------*\
| =========                 |                                                 |
| \\      /  F ield         | OpenFOAM: The Open Source CFD Toolbox           |
|  \\    /   O peration     | Version:  2.3.0                                 |
|   \\  /    A nd           | Web:      www.OpenFOAM.org                      |
|    \\/     M anipulation  |                                                 |
\*---------------------------------------------------------------------------*/
FoamFile
{
    version     2.0;
    format      ascii;
    class       volScalarField;
    location    "12000";
    object      T;
}
// * * * * * * * * * * * * * * * * * * * * * * * * * * * * * * * * * * * * * //

dimensions      [0 0 0 1 0 0 0];

internalField   nonuniform List<scalar> 
192
(
40.0051
40.0646
40.0163
39.9135
39.8353
39.8856
40.1476
40.4321
40.8157
41.3279
41.6192
41.1488
40.6636
33.0361
33.2224
33.2955
33.3025
33.3312
33.5066
33.9227
34.7412
36.0934
37.8846
38.8684
37.2877
35.5947
28.1358
28.4572
28.7058
28.9099
29.1221
29.4327
29.9949
31.1748
33.1578
35.7691
37.1769
34.8994
32.4076
26.0195
26.3949
26.738
27.0507
27.3432
27.6679
28.2442
29.4571
31.6134
34.5489
36.1232
33.5702
30.7826
25.9998
26.336
26.6664
26.9665
27.215
27.4487
27.8899
28.9213
30.9808
33.9189
35.4795
32.9427
30.1708
26.9176
27.194
27.4622
27.6814
27.8202
27.9338
28.1831
29.0123
30.9042
33.6695
35.1001
32.7632
30.1503
28.0563
28.2712
28.4549
28.5673
28.5918
28.5985
28.77
29.518
31.1932
33.5825
34.8237
32.8131
30.5402
29.0984
29.2435
29.3411
29.381
29.3933
29.4055
29.6088
30.27
31.6312
33.5397
34.5844
32.9343
31.116
29.9112
30.0235
30.1055
30.162
30.2005
30.2781
30.5124
31.0687
32.104
33.5289
34.3733
33.0888
31.7283
30.4673
30.6168
30.7415
30.8474
30.9522
31.0937
31.3394
31.7878
32.5343
33.5336
34.1808
33.2414
32.2812
30.5031
30.7586
30.9925
31.2101
31.4211
31.6454
31.9189
32.2956
32.8291
33.4987
33.964
33.3228
32.6691
29.4189
29.859
30.2743
30.6704
31.0525
31.4271
31.8061
32.2092
32.6569
33.1339
33.4568
33.0286
32.5446
26.0944
26.7474
27.3712
27.9749
28.5648
29.1428
29.707
30.2516
30.7645
31.2102
31.4555
31.123
19.2011
19.9103
20.5971
21.2673
21.9243
22.5668
23.1882
23.7743
24.2993
24.7122
24.8933
24.6317
7.7119
8.10418
8.49259
8.87858
9.26149
9.6373
9.99749
10.3282
10.6091
10.8116
10.8878
10.7722
)
;

boundaryField
{
    top
    {
        type            fixedValue;
        value           uniform 0;
    }
    bottom
    {
        type            fixedValue;
        value           uniform 43.8;
    }
    frontAndBack
    {
        type            empty;
    }
    left_cyc
    {
        type            cyclic;
    }
    right_cyc
    {
        type            cyclic;
    }
    procBoundary0to1
    {
        type            processor;
        value           nonuniform List<scalar> 
16
(
40.3117
34.4299
30.6848
28.9453
28.474
28.6333
29.1805
29.9883
30.8494
31.6288
32.1823
32.1069
30.6459
30.6459
24.1765
10.5437
)
;
    }
    procBoundary0to3throughleft_cyc
    {
        type            processorCyclic;
        value           nonuniform List<scalar> 
15
(
39.8394
32.7002
27.7325
25.6114
25.6728
26.6618
27.8462
28.93
29.7709
30.2917
30.2221
28.9478
25.4047
18.4644
7.31512
)
;
    }
}


// ************************************************************************* //
