/*--------------------------------*- C++ -*----------------------------------*\
| =========                 |                                                 |
| \\      /  F ield         | OpenFOAM: The Open Source CFD Toolbox           |
|  \\    /   O peration     | Version:  2.3.0                                 |
|   \\  /    A nd           | Web:      www.OpenFOAM.org                      |
|    \\/     M anipulation  |                                                 |
\*---------------------------------------------------------------------------*/
FoamFile
{
    version     2.0;
    format      ascii;
    class       surfaceScalarField;
    location    "6000";
    object      phi;
}
// * * * * * * * * * * * * * * * * * * * * * * * * * * * * * * * * * * * * * //

dimensions      [0 3 -1 0 0 0 0];

internalField   nonuniform List<scalar> 
354
(
0.523106
-0.0578423
0.522796
0.000309612
0.49072
0.0320766
0.453417
0.0373031
0.420791
0.032626
0.394134
0.0266563
0.372274
0.0218607
0.353917
0.0183565
0.338326
0.0155909
0.325376
0.0129508
0.315584
0.00979185
0.00537934
0.321986
-0.143739
0.397994
-0.0756985
0.454688
-0.0246179
0.493386
-0.00139471
0.51762
0.00839224
0.531097
0.0131792
0.537151
0.0158067
0.538578
0.0169295
0.537772
0.0163965
0.536911
0.0138114
0.538155
0.00854823
-0.000164139
0.200331
-0.185054
0.258948
-0.134316
0.329091
-0.0947605
0.393604
-0.0659077
0.444431
-0.0424344
0.481036
-0.0234266
0.506097
-0.00925343
0.523198
-0.000172098
0.535702
0.00389239
0.546456
0.00305759
0.557738
-0.00273408
-0.0136123
0.144372
-0.215624
0.193079
-0.183023
0.256811
-0.158492
0.319002
-0.128098
0.370003
-0.0934356
0.40809
-0.0615137
0.435422
-0.0365853
0.455323
-0.0200737
0.470878
-0.0116622
0.484448
-0.0105121
0.497544
-0.0158303
-0.0268575
0.0786853
-0.272623
0.105483
-0.242422
0.149499
-0.227038
0.204397
-0.21339
0.255719
-0.179421
0.297046
-0.134762
0.327587
-0.0920555
0.349495
-0.0584934
0.365591
-0.036169
0.378226
-0.0242975
0.388896
-0.0211815
0.398213
-0.025148
-0.0346705
0.0472411
-0.286337
0.0696336
-0.264814
0.10613
-0.263535
0.146579
-0.253839
0.181965
-0.214807
0.209142
-0.161939
0.228436
-0.11135
0.241851
-0.0719086
0.251443
-0.0457609
0.258594
-0.0314479
0.263848
-0.0264361
0.26704
-0.0283394
-0.0351382
0.0169948
-0.291096
0.0283536
-0.276173
0.0489271
-0.284108
0.0697908
-0.274702
0.0867677
-0.231784
0.09881
-0.173981
0.106505
-0.119045
0.111154
-0.0765576
0.113825
-0.0484321
0.114955
-0.0325777
0.114323
-0.0258047
0.111253
-0.0252694
-0.0287812
-0.0134118
-0.285662
-0.0190655
-0.27052
-0.0224205
-0.280753
-0.0253781
-0.271745
-0.0280488
-0.229113
-0.030492
-0.171538
-0.0329812
-0.116555
-0.0356118
-0.073927
-0.0385442
-0.0454997
-0.0421995
-0.0289225
-0.0473321
-0.020672
-0.0548968
-0.0177047
-0.0179158
-0.0442099
-0.269982
-0.069179
-0.24555
-0.099839
-0.250093
-0.128153
-0.243431
-0.150329
-0.206937
-0.166054
-0.155812
-0.177013
-0.105597
-0.184961
-0.0659786
-0.191365
-0.039096
-0.197452
-0.022835
-0.204458
-0.0136666
-0.213648
-0.00851429
-0.00553516
-0.0757479
-0.245353
-0.115358
-0.20594
-0.168352
-0.1971
-0.219257
-0.192526
-0.258829
-0.167365
-0.286428
-0.128213
-0.304785
-0.0872397
-0.316801
-0.0539632
-0.325031
-0.0308656
-0.331494
-0.0163723
-0.338015
-0.00714595
-0.346382
-0.00014656
0.00599393
-0.109715
-0.213565
-0.148855
-0.1668
-0.207932
-0.138023
-0.27409
-0.126367
-0.326603
-0.114853
-0.363961
-0.0908549
-0.388965
-0.0622352
-0.404736
-0.0381921
-0.414511
-0.0210907
-0.42095
-0.00993398
-0.426386
-0.00170926
-0.433098
0.00656539
0.0154928
-0.148101
-0.17503
-0.18095
-0.133951
-0.225036
-0.0939372
-0.279815
-0.071588
-0.331862
-0.0628062
-0.373726
-0.0489905
-0.403341
-0.0326201
-0.422297
-0.0192367
-0.434038
-0.00934906
-0.441664
-0.00230798
-0.447493
0.00411908
-0.453436
0.0125081
0.0226581
-0.188846
-0.127096
-0.226179
-0.0966177
-0.254951
-0.0651651
-0.283135
-0.0434037
-0.315886
-0.030055
-0.344338
-0.0205382
-0.363686
-0.0132726
-0.375969
-0.00695308
-0.384208
-0.00111032
-0.390943
0.00442731
-0.397236
0.0104119
-0.402624
0.0178963
0.026393
-0.218625
-0.0729062
-0.260846
-0.0543972
-0.290868
-0.035143
-0.313913
-0.0203587
-0.332857
-0.0111112
-0.34777
-0.00562514
-0.358976
-0.0020665
-0.366844
0.000914664
-0.371729
0.00377472
-0.373863
0.0065618
-0.372873
0.00942163
-0.367813
0.0128362
0.0167927
-0.241129
-0.285169
-0.314747
-0.333681
-0.346395
-0.355563
-0.362309
-0.366756
-0.368721
-0.368058
-0.36454
-0.357553
)
;

boundaryField
{
    top
    {
        type            calculated;
        value           nonuniform List<scalar> 
13
(
-0.0148082
-0.0103569
-0.00556514
-0.00142427
0.00160221
0.00354296
0.00467965
0.00536193
0.00573966
0.00589859
0.00590355
0.00584871
0.00575854
)
;
    }
    bottom
    {
        type            calculated;
        value           uniform 0;
    }
    frontAndBack
    {
        type            empty;
        value           nonuniform 0();
    }
    left_cyc
    {
        type            cyclic;
        value           nonuniform 0();
    }
    right_cyc
    {
        type            cyclic;
        value           nonuniform 0();
    }
    procBoundary3to0throughright_cyc
    {
        type            processorCyclic;
        value           nonuniform List<scalar> 
15
(
0.310204
0.543699
0.571186
0.510789
0.406026
0.267507
0.104896
-0.0657622
-0.226029
-0.357911
-0.442597
-0.460601
-0.406359
-0.358213
-0.346518
)
;
    }
    procBoundary3to2
    {
        type            processor;
        value           nonuniform List<scalar> 
16
(
-0.465264
-0.236089
-0.159016
-0.113802
0.251366
-0.0574289
-0.0335268
-0.0122359
0.00797847
0.0285291
0.0511193
0.0779266
0.109566
0.140912
0.164435
0.183031
)
;
    }
}


// ************************************************************************* //
