/*--------------------------------*- C++ -*----------------------------------*\
| =========                 |                                                 |
| \\      /  F ield         | OpenFOAM: The Open Source CFD Toolbox           |
|  \\    /   O peration     | Version:  2.3.0                                 |
|   \\  /    A nd           | Web:      www.OpenFOAM.org                      |
|    \\/     M anipulation  |                                                 |
\*---------------------------------------------------------------------------*/
FoamFile
{
    version     2.0;
    format      ascii;
    class       volScalarField;
    location    "6000";
    object      T;
}
// * * * * * * * * * * * * * * * * * * * * * * * * * * * * * * * * * * * * * //

dimensions      [0 0 0 1 0 0 0];

internalField   nonuniform List<scalar> 
191
(
31.7129
33.4228
34.7877
35.9288
36.8688
37.6275
38.2339
38.7195
39.1121
39.4322
39.6928
39.8968
20.1805
21.9581
24.1219
25.9864
27.4494
28.6271
29.6119
30.4593
31.1975
31.8389
32.3826
32.8119
16.7963
18.4493
19.9673
21.2792
22.4592
23.5157
24.472
25.3423
26.1212
26.8085
27.3895
27.8415
16.5519
18.4219
19.9572
21.1226
22.0081
22.7123
23.3117
23.8561
24.3768
24.8697
25.3286
25.7563
14.7861
17.2553
19.4835
21.242
22.4877
23.3274
23.8916
24.2918
24.6103
24.9004
25.1906
25.4937
25.8136
15.1925
18.098
20.6697
22.6536
24.0317
24.9205
25.4622
25.7879
26.0008
26.1731
26.3491
26.5523
26.7906
15.5138
18.7963
21.6498
23.8181
25.3185
26.2777
26.8427
27.1554
27.335
27.4668
27.6025
27.7664
27.9621
15.6718
19.2441
22.2936
24.5898
26.1844
27.2202
27.8422
28.1933
28.3999
28.552
28.6994
28.8592
29.0265
15.5703
19.3491
22.525
24.8769
26.5286
27.6495
28.3749
28.8304
29.1283
29.3487
29.5349
29.7025
29.8514
15.0719
18.9183
22.1556
24.5477
26.2643
27.5004
28.3727
28.9766
29.4038
29.7252
29.9843
30.203
30.3911
14.0597
17.7561
20.9601
23.3791
25.1482
26.4993
27.5311
28.3065
28.8965
29.3633
29.7507
30.082
30.3784
12.4198
15.7177
18.6745
21.0077
22.7691
24.174
25.3105
26.227
26.9809
27.6217
28.1863
28.7115
29.203
10.0336
12.7057
15.1102
17.0864
18.6624
19.942
21.0139
21.948
22.788
23.5552
24.3096
25.0548
25.7693
6.7579
8.54407
10.1613
11.5194
12.6237
13.5407
14.3425
15.0807
15.7972
16.5508
17.3209
18.0927
18.8486
2.60868
3.22619
3.76781
4.22431
4.60937
4.9488
5.27132
5.60588
5.96656
6.33969
6.72353
7.11905
7.51988
)
;

boundaryField
{
    top
    {
        type            fixedValue;
        value           uniform 0;
    }
    bottom
    {
        type            fixedValue;
        value           uniform 43.8;
    }
    frontAndBack
    {
        type            empty;
    }
    left_cyc
    {
        type            cyclic;
    }
    right_cyc
    {
        type            cyclic;
    }
    procBoundary3to0throughright_cyc
    {
        type            processorCyclic;
        value           nonuniform List<scalar> 
15
(
40.0227
33.0631
28.2115
26.1522
26.1476
27.0579
28.1751
29.1824
29.9753
30.5526
30.647
29.6608
26.4451
19.5766
7.91749
)
;
    }
    procBoundary3to2
    {
        type            processor;
        value           nonuniform List<scalar> 
16
(
30.354
18.6744
15.1197
14.5237
14.5237
12.4217
12.3909
12.3248
12.1702
11.864
11.3109
10.4391
9.16187
7.36935
4.96589
1.95678
)
;
    }
}


// ************************************************************************* //
