/*--------------------------------*- C++ -*----------------------------------*\
| =========                 |                                                 |
| \\      /  F ield         | OpenFOAM: The Open Source CFD Toolbox           |
|  \\    /   O peration     | Version:  2.3.0                                 |
|   \\  /    A nd           | Web:      www.OpenFOAM.org                      |
|    \\/     M anipulation  |                                                 |
\*---------------------------------------------------------------------------*/
FoamFile
{
    version     2.0;
    format      ascii;
    class       volVectorField;
    location    "6000";
    object      U;
}
// * * * * * * * * * * * * * * * * * * * * * * * * * * * * * * * * * * * * * //

dimensions      [0 1 -1 0 0 0 0];

internalField   nonuniform List<vector> 
191
(
(76.0482 0 -3.11655)
(80.2533 0 4.32068)
(76.709 0 7.24114)
(70.8245 0 6.67462)
(65.4272 0 5.15635)
(60.9776 0 3.79617)
(57.3702 0 2.82503)
(54.3778 0 2.18213)
(51.8382 0 1.75097)
(49.6859 0 1.43256)
(47.9473 0 1.143)
(46.7485 0 0.796751)
(41.8262 0 -18.1134)
(54.66 0 -6.90813)
(64.716 0 1.01049)
(71.7151 0 3.85178)
(76.3102 0 4.31882)
(79.0042 0 4.06974)
(80.3503 0 3.69649)
(80.8132 0 3.33909)
(80.7744 0 2.96481)
(80.5699 0 2.49275)
(80.5184 0 1.80996)
(80.9531 0 0.776002)
(26.8745 0 -24.8998)
(33.2859 0 -15.8343)
(44.2042 0 -8.96944)
(54.6913 0 -4.89901)
(63.4138 0 -2.30584)
(69.9094 0 -0.492753)
(74.4001 0 0.766181)
(77.4274 0 1.52063)
(79.5324 0 1.76976)
(81.1824 0 1.48649)
(82.7626 0 0.605859)
(84.5712 0 -0.952401)
(19.167 0 -30.2612)
(23.9973 0 -24.1011)
(33.7297 0 -19.1487)
(43.5563 0 -14.6621)
(52.1814 0 -10.2959)
(58.8258 0 -6.45852)
(63.6084 0 -3.4954)
(67.0228 0 -1.54397)
(69.578 0 -0.588659)
(71.6895 0 -0.569467)
(73.6486 0 -1.43652)
(75.6154 0 -3.14311)
(10.1836 0 -39.5892)
(13.3715 0 -34.4458)
(18.0693 0 -30.8162)
(26.727 0 -28.1939)
(34.8117 0 -23.4945)
(41.8908 0 -17.5215)
(47.2334 0 -11.8483)
(51.0571 0 -7.38234)
(53.8039 0 -4.40917)
(55.8833 0 -2.8552)
(57.5904 0 -2.5333)
(59.0804 0 -3.2578)
(60.3821 0 -4.8512)
(5.96323 0 -42.226)
(8.11229 0 -38.3164)
(12.6429 0 -37.2519)
(19.2042 0 -35.738)
(24.9018 0 -30.2759)
(29.6642 0 -22.8557)
(33.089 0 -15.7252)
(35.4561 0 -10.1342)
(37.1134 0 -6.41949)
(38.331 0 -4.41571)
(39.2536 0 -3.80072)
(39.9026 0 -4.26074)
(40.2074 0 -5.51767)
(2.13796 0 -43.6812)
(2.92078 0 -41.1397)
(5.5535 0 -41.8475)
(9.09187 0 -40.4806)
(11.905 0 -34.2312)
(14.1047 0 -25.7714)
(15.5416 0 -17.7086)
(16.4183 0 -11.455)
(16.9375 0 -7.31773)
(17.218 0 -5.02263)
(17.2728 0 -4.13025)
(17.0251 0 -4.23801)
(16.3499 0 -5.01909)
(-1.56816 0 -43.662)
(-2.29873 0 -41.6948)
(-3.35738 0 -43.3614)
(-3.56096 0 -41.9463)
(-4.03078 0 -35.3278)
(-4.39834 0 -26.4494)
(-4.75734 0 -18.0282)
(-5.13765 0 -11.5293)
(-5.54406 0 -7.22206)
(-6.01587 0 -4.75508)
(-6.6413 0 -3.61192)
(-7.5573 0 -3.3429)
(-8.91131 0 -3.61825)
(-5.33465 0 -42.0598)
(-7.547 0 -39.4411)
(-13.0276 0 -40.8129)
(-17.3139 0 -39.5913)
(-21.1446 0 -33.4369)
(-23.9577 0 -25.0455)
(-25.8784 0 -16.9659)
(-27.2347 0 -10.6677)
(-28.2597 0 -6.43952)
(-29.1506 0 -3.92955)
(-30.0839 0 -2.59735)
(-31.2536 0 -1.97823)
(-32.842 0 -1.76891)
(-9.36312 0 -38.9688)
(-12.9214 0 -34.2707)
(-21.3675 0 -34.2212)
(-29.5575 0 -33.393)
(-36.3217 0 -28.6107)
(-41.3209 0 -21.6897)
(-44.6382 0 -14.7208)
(-46.8109 0 -9.14015)
(-48.2411 0 -5.30503)
(-49.2722 0 -2.93747)
(-50.1767 0 -1.51954)
(-51.2323 0 -0.591728)
(-52.6893 0 0.0963181)
(-14.0273 0 -34.6324)
(-18.5919 0 -27.5601)
(-25.7914 0 -25.267)
(-36.7678 0 -24.9001)
(-45.6102 0 -21.8954)
(-52.3404 0 -16.8749)
(-56.8851 0 -11.4636)
(-59.8201 0 -7.03683)
(-61.6185 0 -3.93807)
(-62.7415 0 -1.95878)
(-63.545 0 -0.613123)
(-64.3828 0 0.556761)
(-65.5618 0 1.71263)
(-19.6067 0 -29.4107)
(-24.6754 0 -22.4713)
(-29.424 0 -16.0037)
(-38.095 0 -12.9016)
(-46.1112 0 -12.8251)
(-53.3826 0 -10.7877)
(-58.7144 0 -7.49098)
(-62.2623 0 -4.59939)
(-64.4331 0 -2.5218)
(-65.7816 0 -1.16474)
(-66.7151 0 -0.0575486)
(-67.5461 0 1.2695)
(-68.5046 0 2.80748)
(-25.0673 0 -23.1139)
(-31.5168 0 -17.6556)
(-36.2068 0 -11.9703)
(-40.2936 0 -8.19504)
(-44.7987 0 -5.67936)
(-49.932 0 -3.74382)
(-53.4034 0 -2.34136)
(-55.6745 0 -1.24464)
(-57.1067 0 -0.274485)
(-58.1393 0 0.635701)
(-59.1226 0 1.64256)
(-60.0564 0 2.99024)
(-60.7526 0 4.62568)
(-29.1182 0 -14.4362)
(-36.4514 0 -10.9256)
(-41.7234 0 -7.33284)
(-45.542 0 -4.62332)
(-48.6491 0 -2.98588)
(-51.2146 0 -1.99786)
(-53.142 0 -1.29453)
(-54.5576 0 -0.67093)
(-55.4973 0 -0.0732599)
(-56.0195 0 0.501736)
(-56.1379 0 1.10689)
(-55.7216 0 1.85388)
(-54.6204 0 2.70366)
(-32.2763 0 -9.36593)
(-40.0386 0 -6.7851)
(-45.4749 0 -4.07447)
(-48.9317 0 -1.88476)
(-51.1737 0 -0.391729)
(-52.7552 0 0.545097)
(-53.9266 0 1.12098)
(-54.7714 0 1.53506)
(-55.2579 0 1.8741)
(-55.3609 0 2.1625)
(-55.063 0 2.4035)
(-54.3005 0 2.62272)
(-52.9629 0 2.83384)
)
;

boundaryField
{
    top
    {
        type            directionMixed;
        refValue        uniform (0 0 0);
        refGradient     uniform (0 0 0);
        valueFraction   uniform (0 0 0 0 0 1);
        value           nonuniform List<vector> 
13
(
(-32.2763 0 0)
(-40.0386 0 0)
(-45.4749 0 0)
(-48.9317 0 0)
(-51.1737 0 0)
(-52.7552 0 0)
(-53.9266 0 0)
(-54.7714 0 0)
(-55.2579 0 0)
(-55.3609 0 0)
(-55.063 0 0)
(-54.3005 0 0)
(-52.9629 0 0)
)
;
    }
    bottom
    {
        type            fixedValue;
        value           uniform (0 0 0);
    }
    frontAndBack
    {
        type            empty;
    }
    left_cyc
    {
        type            cyclic;
    }
    right_cyc
    {
        type            cyclic;
    }
    procBoundary3to0throughright_cyc
    {
        type            processorCyclic;
        value           nonuniform List<vector> 
15
(
(46.3553 0 0.295457)
(82.187 0 -0.737008)
(86.7923 0 -3.18649)
(77.6205 0 -5.55644)
(61.4218 0 -7.0698)
(40.0414 0 -7.25748)
(15.1183 0 -6.14612)
(-10.8162 0 -4.14166)
(-34.968 0 -1.7311)
(-54.691 0 0.69082)
(-67.2301 0 2.86043)
(-69.6921 0 4.3647)
(-61.1669 0 6.36364)
(-52.842 0 3.53815)
(-50.9923 0 3.02869)
)
;
    }
    procBoundary3to2
    {
        type            processor;
        value           nonuniform List<vector> 
16
(
(63.6735 0 -12.084)
(28.7683 0 -23.023)
(20.7896 0 -30.8472)
(15.0094 0 -35.7397)
(15.0094 0 -35.7397)
(7.09282 0 -43.3213)
(4.14406 0 -45.8042)
(1.55513 0 -47.044)
(-0.86133 0 -47.0452)
(-3.33004 0 -45.8116)
(-6.12042 0 -43.334)
(-9.48153 0 -39.512)
(-13.3717 0 -34.0724)
(-17.2506 0 -26.9615)
(-20.2287 0 -17.0371)
(-22.6259 0 -11.3614)
)
;
    }
}


// ************************************************************************* //
