/*--------------------------------*- C++ -*----------------------------------*\
| =========                 |                                                 |
| \\      /  F ield         | OpenFOAM: The Open Source CFD Toolbox           |
|  \\    /   O peration     | Version:  2.3.0                                 |
|   \\  /    A nd           | Web:      www.OpenFOAM.org                      |
|    \\/     M anipulation  |                                                 |
\*---------------------------------------------------------------------------*/
FoamFile
{
    version     2.0;
    format      ascii;
    class       volScalarField;
    location    "3000";
    object      p_rgh;
}
// * * * * * * * * * * * * * * * * * * * * * * * * * * * * * * * * * * * * * //

dimensions      [0 2 -2 0 0 0 0];

internalField   nonuniform List<scalar> 
191
(
-1545.49
-1589.03
-1622.06
-1648
-1669.09
-1686.87
-1702.27
-1715.87
-1728.01
-1738.94
-1748.83
-1757.87
-1516.93
-1554.02
-1584.36
-1609.51
-1630.8
-1649.36
-1665.89
-1680.8
-1694.3
-1706.51
-1717.2
-1727.09
-1499.04
-1528.08
-1549.34
-1569.14
-1587.54
-1604.76
-1620.88
-1635.82
-1649.49
-1661.8
-1673.4
-1684.44
-1487.75
-1523.15
-1543.71
-1560.13
-1574.1
-1586.85
-1599.07
-1611.09
-1622.94
-1634.64
-1646.2
-1657.58
-1435.55
-1495.71
-1535.73
-1561.62
-1579.75
-1592.54
-1602.37
-1610.94
-1619.29
-1628
-1637.27
-1647.08
-1657.18
-1442.69
-1513.02
-1561.14
-1593.58
-1614.59
-1627.65
-1636.04
-1642.25
-1647.94
-1654.07
-1661.06
-1668.85
-1676.92
-1451.67
-1532.65
-1590.22
-1628.83
-1652.9
-1666.78
-1674.63
-1679.65
-1683.96
-1688.71
-1694.23
-1700.24
-1705.9
-1455.27
-1546.48
-1613.39
-1658
-1685.68
-1701.42
-1710.08
-1715.44
-1719.83
-1724.28
-1728.82
-1732.91
-1735.69
-1448.45
-1547.58
-1621.96
-1672.2
-1704.86
-1724.82
-1736.84
-1744.64
-1750.44
-1755.21
-1759.11
-1761.93
-1763.41
-1420.52
-1524.98
-1606.46
-1663.48
-1703.26
-1729.88
-1747.48
-1759.54
-1768.39
-1775.3
-1780.82
-1785.11
-1788.16
-1353.19
-1464.93
-1551.55
-1614.96
-1662.67
-1697.55
-1722.82
-1741.57
-1756.21
-1768.22
-1778.76
-1787.98
-1795.93
-1217.21
-1328.26
-1421.32
-1493.12
-1548.36
-1590.87
-1624.33
-1651.58
-1674.73
-1696.52
-1716.99
-1735.86
-1753.18
-992.546
-1076.05
-1171.02
-1244.99
-1304.6
-1351.55
-1390.66
-1424.61
-1457.8
-1491.34
-1524.27
-1555.2
-1583.95
-679.786
-726.837
-777.268
-826.356
-876.898
-924.154
-966.914
-1008.67
-1048.97
-1087.99
-1125.43
-1160.68
-1193.97
-397.542
-346.456
-307.59
-287.765
-284.139
-291.622
-308.144
-330.875
-358.686
-388.82
-418.707
-448.758
-479.204
)
;

boundaryField
{
    top
    {
        type            fixedValue;
        value           uniform 0;
    }
    bottom
    {
        type            fixedFluxPressure;
        gradient        uniform 0;
        value           nonuniform List<scalar> 
12
(
-1545.49
-1589.03
-1622.06
-1648
-1669.09
-1686.87
-1702.27
-1715.87
-1728.01
-1738.94
-1748.83
-1757.87
)
;
    }
    frontAndBack
    {
        type            empty;
    }
    left_cyc
    {
        type            cyclic;
    }
    right_cyc
    {
        type            cyclic;
    }
    procBoundary3to0throughright_cyc
    {
        type            processorCyclic;
        value           nonuniform List<scalar> 
15
(
-1766.73
-1736.66
-1695.17
-1668.72
-1667.05
-1684.34
-1710.03
-1736.38
-1763.58
-1789.97
-1802.66
-1769.07
-1610.88
-1225.73
-510.119
)
;
    }
    procBoundary3to2
    {
        type            processor;
        value           nonuniform List<scalar> 
16
(
-1487.36
-1474.42
-1465.87
-1437.25
-1437.25
-1355.19
-1348.09
-1349.47
-1349.25
-1339.82
-1310.02
-1245.17
-1114.38
-915.053
-629.914
-450.137
)
;
    }
}


// ************************************************************************* //
