/*--------------------------------*- C++ -*----------------------------------*\
| =========                 |                                                 |
| \\      /  F ield         | OpenFOAM: The Open Source CFD Toolbox           |
|  \\    /   O peration     | Version:  2.3.0                                 |
|   \\  /    A nd           | Web:      www.OpenFOAM.org                      |
|    \\/     M anipulation  |                                                 |
\*---------------------------------------------------------------------------*/
FoamFile
{
    version     2.0;
    format      ascii;
    class       volScalarField;
    location    "3000";
    object      T;
}
// * * * * * * * * * * * * * * * * * * * * * * * * * * * * * * * * * * * * * //

dimensions      [0 0 0 1 0 0 0];

internalField   nonuniform List<scalar> 
191
(
33.952
35.2277
36.2934
37.165
37.8646
38.4222
38.8683
39.2277
39.5174
39.7443
39.8952
39.9073
22.803
24.88
26.5722
27.9084
28.9987
29.9187
30.7114
31.3965
31.9767
32.4387
32.7155
32.8657
18.8554
20.2972
21.592
22.7462
23.7743
24.6992
25.5292
26.259
26.8755
27.3615
27.7612
28.0786
18.8176
20.1856
21.2352
22.0553
22.731
23.324
23.8714
24.3885
24.8741
25.3272
25.7481
26.1368
18.0634
20.0663
21.5803
22.6354
23.3512
23.8493
24.2265
24.5497
24.8593
25.1763
25.5088
25.8565
26.2098
19.189
21.4877
23.1698
24.3015
25.017
25.4553
25.7345
25.9419
26.1347
26.3458
26.5891
26.8629
27.1483
20.1518
22.6819
24.5075
25.7229
26.4707
26.9004
27.1455
27.3085
27.4558
27.6227
27.8196
28.0365
28.2453
20.823
23.5031
25.4306
26.72
27.5196
27.9804
28.2443
28.4209
28.5762
28.7384
28.9083
29.0692
29.1952
21.0973
23.851
25.8189
27.1697
28.0554
28.6111
28.9632
29.2094
29.4075
29.5817
29.736
29.865
29.9623
20.7676
23.5699
25.5776
27.0146
28.0293
28.7275
29.2103
29.5617
29.8369
30.0654
30.2607
30.428
30.569
19.6354
22.446
24.4785
25.999
27.1548
28.0182
28.6638
29.1621
29.5662
29.9079
30.2132
30.4894
30.7405
17.4824
20.13
22.121
23.6673
24.908
25.8988
26.6996
27.3662
27.9419
28.4786
28.9802
29.4466
29.8831
14.1401
16.3259
18.0733
19.471
20.6183
21.5977
22.4644
23.2479
24.0149
24.7668
25.4894
26.1723
26.8185
9.49126
10.9738
12.1866
13.1767
14.0216
14.7856
15.5111
16.2697
17.0433
17.8178
18.578
19.309
20.0103
3.53078
4.02351
4.43677
4.79278
5.12136
5.45342
5.81476
6.18763
6.56942
6.96152
7.36067
7.75715
8.14762
)
;

boundaryField
{
    top
    {
        type            fixedValue;
        value           uniform 0;
    }
    bottom
    {
        type            fixedValue;
        value           uniform 43.8;
    }
    frontAndBack
    {
        type            empty;
    }
    left_cyc
    {
        type            cyclic;
    }
    right_cyc
    {
        type            cyclic;
    }
    procBoundary3to0throughright_cyc
    {
        type            processorCyclic;
        value           nonuniform List<scalar> 
15
(
39.8258
32.9129
28.3292
26.4926
26.5482
27.4099
28.4057
29.2633
30.0295
30.6854
30.9708
30.2963
27.4378
20.6897
8.53397
)
;
    }
    procBoundary3to2
    {
        type            processor;
        value           nonuniform List<scalar> 
16
(
32.4026
20.7898
17.2662
17.1171
17.1171
15.7332
16.4406
17.0537
17.4679
17.5671
17.1559
16.0978
14.2845
11.5594
7.77079
2.95239
)
;
    }
}


// ************************************************************************* //
