/*--------------------------------*- C++ -*----------------------------------*\
| =========                 |                                                 |
| \\      /  F ield         | OpenFOAM: The Open Source CFD Toolbox           |
|  \\    /   O peration     | Version:  2.3.0                                 |
|   \\  /    A nd           | Web:      www.OpenFOAM.org                      |
|    \\/     M anipulation  |                                                 |
\*---------------------------------------------------------------------------*/
FoamFile
{
    version     2.0;
    format      ascii;
    class       volScalarField;
    location    "20000";
    object      p_rgh;
}
// * * * * * * * * * * * * * * * * * * * * * * * * * * * * * * * * * * * * * //

dimensions      [0 2 -2 0 0 0 0];

internalField   nonuniform List<scalar> 
191
(
-1831.87
-1813.65
-1798.27
-1786.18
-1776.38
-1767.67
-1759.04
-1749.77
-1739.58
-1728.34
-1715.89
-1701.99
-1686.26
-1801.09
-1783.73
-1769.1
-1757.3
-1747.3
-1738.03
-1728.63
-1718.56
-1707.2
-1694.61
-1680.78
-1665.59
-1648.78
-1762.72
-1742.92
-1728.88
-1717.11
-1706.5
-1696.22
-1685.76
-1674.8
-1663.2
-1650.35
-1636.28
-1621.12
-1604.86
-1732.92
-1712.51
-1699.87
-1689.35
-1678.98
-1668.36
-1657.49
-1646.42
-1635.19
-1623.8
-1612.2
-1600.37
-1588.38
-1718.4
-1700.33
-1690.72
-1683.22
-1674.81
-1665.42
-1655.64
-1646.01
-1636.84
-1628.27
-1620.23
-1612.41
-1604.2
-1716.91
-1702.5
-1697.83
-1694.37
-1689.35
-1682.42
-1674.56
-1666.75
-1659.65
-1653.49
-1648.15
-1643.04
-1637.04
-1727.71
-1714.16
-1713.31
-1713.83
-1712.91
-1709.33
-1703.94
-1697.9
-1692.18
-1687.28
-1683.21
-1679.35
-1674.26
-1750.42
-1736.81
-1735.23
-1737.07
-1738.32
-1737.92
-1735.47
-1731.52
-1726.94
-1722.42
-1718.21
-1713.9
-1708.02
-1779.78
-1766.88
-1763.79
-1764.63
-1765.61
-1765.53
-1764.25
-1761.66
-1757.96
-1753.43
-1748.17
-1741.72
-1810.47
-1799.23
-1794.9
-1793.5
-1792.6
-1791.02
-1788.27
-1784.3
-1779.13
-1772.75
-1764.84
-1754.63
-1834.79
-1824.59
-1818.14
-1812.88
-1807.37
-1800.96
-1793.42
-1784.66
-1774.64
-1763.33
-1749.82
-1733.28
-1831.01
-1817.78
-1805.22
-1792.11
-1777.93
-1762.52
-1745.76
-1727.55
-1707.77
-1686.55
-1664.35
-1639.15
-1739.52
-1718.67
-1697.01
-1674.28
-1650.35
-1625.19
-1598.69
-1570.54
-1540.4
-1508.13
-1474.55
-1441.38
-1409.12
-1372.25
-1350.81
-1326.49
-1299.68
-1270.84
-1240.42
-1208.65
-1175.52
-1140.78
-1104.13
-1065.83
-1026.37
-985.674
-678.565
-646.986
-613.002
-578.634
-544.81
-511.857
-479.782
-448.473
-417.863
-387.924
-358.222
-329.245
-304.134
)
;

boundaryField
{
    top
    {
        type            fixedValue;
        value           uniform 0;
    }
    bottom
    {
        type            fixedFluxPressure;
        gradient        uniform 0;
        value           nonuniform List<scalar> 
13
(
-1831.87
-1813.65
-1798.27
-1786.18
-1776.38
-1767.67
-1759.04
-1749.77
-1739.58
-1728.34
-1715.89
-1701.99
-1686.26
)
;
    }
    frontAndBack
    {
        type            empty;
    }
    left_cyc
    {
        type            cyclic;
    }
    right_cyc
    {
        type            cyclic;
    }
    procBoundary1to0
    {
        type            processor;
        value           nonuniform List<scalar> 
16
(
-1851.33
-1821.51
-1789.94
-1765.61
-1753.85
-1753.83
-1765.64
-1785.58
-1809.55
-1833.65
-1852.13
-1846.76
-1846.76
-1759.53
-1390.22
-704.17
)
;
    }
    procBoundary1to2
    {
        type            processor;
        value           nonuniform List<scalar> 
16
(
-1668.11
-1629.94
-1587.57
-1575.81
-1594.39
-1628.32
-1665.57
-1697.83
-1732.7
-1732.7
-1740.54
-1711.9
-1609.29
-1372.88
-945.057
-284.679
)
;
    }
}


// ************************************************************************* //
