/*--------------------------------*- C++ -*----------------------------------*\
| =========                 |                                                 |
| \\      /  F ield         | OpenFOAM: The Open Source CFD Toolbox           |
|  \\    /   O peration     | Version:  2.3.0                                 |
|   \\  /    A nd           | Web:      www.OpenFOAM.org                      |
|    \\/     M anipulation  |                                                 |
\*---------------------------------------------------------------------------*/
FoamFile
{
    version     2.0;
    format      ascii;
    class       surfaceScalarField;
    location    "20000";
    object      phi;
}
// * * * * * * * * * * * * * * * * * * * * * * * * * * * * * * * * * * * * * //

dimensions      [0 3 -1 0 0 0 0];

internalField   nonuniform List<scalar> 
353
(
-0.406451
0.0260465
-0.395848
-0.0106028
-0.369328
-0.0265199
-0.341993
-0.0273354
-0.321678
-0.0203146
-0.310767
-0.0109113
-0.308536
-0.00223073
-0.312997
0.00446043
-0.322054
0.00905758
-0.334332
0.0122776
-0.349203
0.0148715
-0.366687
0.017484
0.0207097
-0.640747
0.0852347
-0.648223
-0.00312734
-0.629562
-0.0451812
-0.602205
-0.0546917
-0.576327
-0.0461925
-0.556559
-0.0306801
-0.543969
-0.0148206
-0.537711
-0.00179733
-0.536043
0.00738976
-0.536837
0.0130719
-0.537992
0.0160264
-0.537428
0.0169195
0.0161763
-0.624691
0.154543
-0.647691
0.0198726
-0.644558
-0.0483145
-0.628872
-0.0703781
-0.609089
-0.0659747
-0.589846
-0.0499236
-0.573183
-0.0314831
-0.559499
-0.0154813
-0.548192
-0.00391769
-0.537794
0.00267393
-0.526197
0.00442943
-0.510737
0.00145976
-0.00633382
-0.500624
0.222933
-0.534917
0.0541649
-0.547161
-0.03607
-0.546166
-0.0713734
-0.537857
-0.0742833
-0.526027
-0.0617537
-0.51295
-0.0445603
-0.499801
-0.0286302
-0.48689
-0.0168289
-0.473749
-0.0104664
-0.459061
-0.0102585
-0.44067
-0.0169316
-0.0313324
-0.333284
0.282705
-0.372928
0.0938086
-0.396978
-0.0120191
-0.409521
-0.0588306
-0.413871
-0.0699334
-0.412548
-0.0630767
-0.407457
-0.0496517
-0.399978
-0.0361091
-0.39097
-0.0258368
-0.380706
-0.0207303
-0.368732
-0.0222321
-0.353752
-0.0319118
-0.0514794
-0.151549
0.326907
-0.189247
0.131507
-0.21899
0.0177244
-0.240778
-0.0370426
-0.25548
-0.0552314
-0.264179
-0.0543778
-0.267997
-0.0458337
-0.268022
-0.0360841
-0.265223
-0.0286363
-0.260318
-0.0256353
-0.253577
-0.0289728
-0.244606
-0.0408824
-0.0638876
0.0274266
0.350387
-0.00206976
0.161003
-0.0312098
0.0468645
-0.0568093
-0.011443
-0.0776097
-0.0344311
-0.0934143
-0.0385732
-0.104497
-0.0347506
-0.111411
-0.0291708
-0.114908
-0.0251395
-0.115832
-0.0247113
-0.114901
-0.0299037
-0.11243
-0.0433528
-0.0682076
0.191358
0.349889
0.174167
0.178195
0.149895
0.0711363
0.124635
0.0138169
0.101624
-0.0114206
0.0822412
-0.0191899
0.0668929
-0.0194022
0.0554696
-0.0177475
0.0474738
-0.0171437
0.04209
-0.0193275
0.0383721
-0.0261859
0.0355267
-0.0405074
0.329375
0.324525
0.32679
0.18078
0.309782
0.0881439
0.287295
0.0363037
0.264596
0.0112791
0.244367
0.0010391
0.227692
-0.0027273
0.214749
-0.00480496
0.205126
-0.00751996
0.19791
-0.0121121
0.191881
-0.020157
-0.0344354
0.429827
0.277068
0.441853
0.168755
0.433298
0.096699
0.415249
0.054353
0.394763
0.0317645
0.375737
0.0200655
0.359942
0.0130673
0.347843
0.00729452
0.339043
0.00128007
0.332386
-0.00545521
0.326168
-0.0139389
-0.0268631
0.478551
0.214798
0.502311
0.144994
0.502208
0.0968022
0.490093
0.0664684
0.473898
0.0479591
0.458141
0.0358229
0.444941
0.0262676
0.434954
0.0172809
0.427884
0.00835025
0.422455
-2.65947e-05
0.416515
-0.00799855
-0.0181336
0.45689
0.149478
0.487016
0.114868
0.494722
0.0890962
0.490594
0.0705965
0.481717
0.0568354
0.472027
0.0455138
0.463265
0.035029
0.455946
0.0245997
0.449926
0.0143706
0.44431
0.00558974
0.437343
-0.0010322
-0.0076458
0.293115
0.104949
0.348834
0.0937596
0.381076
0.0826263
0.398025
0.0721472
0.406182
0.0624386
0.409633
0.0533846
0.41038
0.044767
0.409071
0.0363376
0.405796
0.0278747
0.400778
0.019389
0.394687
0.0116806
0.388149
0.00550631
8.38503e-06
0.155162
0.0517847
0.200955
0.047967
0.240052
0.0435293
0.273301
0.038898
0.301412
0.0343278
0.324872
0.0299244
0.343948
0.0256909
0.358715
0.0215703
0.369096
0.0174944
0.374967
0.0135171
0.376657
0.00999149
0.375086
0.00707718
0.00430908
0.136676
0.181516
0.221324
0.255982
0.285634
0.310521
0.330875
0.346869
0.358615
0.366284
0.370373
0.371537
)
;

boundaryField
{
    top
    {
        type            calculated;
        value           nonuniform List<scalar> 
13
(
0.00249519
0.00312631
0.00372185
0.00423971
0.00467532
0.00503761
0.00533674
0.00557623
0.005749
0.00584813
0.00590233
0.005913
0.00578803
)
;
    }
    bottom
    {
        type            calculated;
        value           uniform 0;
    }
    frontAndBack
    {
        type            empty;
        value           nonuniform 0();
    }
    left_cyc
    {
        type            cyclic;
        value           nonuniform 0();
    }
    right_cyc
    {
        type            cyclic;
        value           nonuniform 0();
    }
    procBoundary1to0
    {
        type            processor;
        value           nonuniform List<scalar> 
16
(
0.380404
0.581559
0.555383
0.432234
0.273512
0.107346
-0.0509062
-0.190861
-0.304012
-0.38237
-0.416282
-0.39157
-0.19132
-0.206744
-0.101997
-0.0873862
)
;
    }
    procBoundary1to2
    {
        type            processor;
        value           nonuniform List<scalar> 
16
(
-0.387397
-0.532895
-0.488227
-0.415671
-0.333605
-0.232198
-0.10811
0.0330833
-0.0657642
0.185809
0.318596
0.407786
0.426856
0.380495
0.370785
0.370058
)
;
    }
}


// ************************************************************************* //
