/*--------------------------------*- C++ -*----------------------------------*\
| =========                 |                                                 |
| \\      /  F ield         | OpenFOAM: The Open Source CFD Toolbox           |
|  \\    /   O peration     | Version:  2.3.0                                 |
|   \\  /    A nd           | Web:      www.OpenFOAM.org                      |
|    \\/     M anipulation  |                                                 |
\*---------------------------------------------------------------------------*/
FoamFile
{
    version     2.0;
    format      ascii;
    class       volScalarField;
    location    "20000";
    object      T;
}
// * * * * * * * * * * * * * * * * * * * * * * * * * * * * * * * * * * * * * //

dimensions      [0 0 0 1 0 0 0];

internalField   nonuniform List<scalar> 
191
(
40.3079
40.0223
39.8363
39.8422
39.9406
40.0337
40.0518
39.9481
39.7586
39.5123
39.2093
38.8385
38.3809
34.4194
33.7667
33.4015
33.2892
33.2804
33.2591
33.1511
32.9228
32.5259
32.0068
31.3904
30.6804
29.8677
30.6719
29.7176
29.2826
29.0201
28.8173
28.6009
28.3276
27.976
27.5425
26.9865
26.3219
25.5666
24.7218
28.9312
27.9674
27.5295
27.2282
26.9305
26.6067
26.2515
25.8638
25.4437
24.9921
24.5066
23.9914
23.4535
28.4619
27.6858
27.3524
27.1289
26.8623
26.5486
26.2135
25.8788
25.5566
25.2509
24.9592
24.6715
24.3643
28.6233
28.0521
27.8881
27.7809
27.614
27.3738
27.0991
26.8277
26.583
26.3735
26.1942
26.0256
25.8295
29.1715
28.6651
28.6021
28.5933
28.5406
28.4009
28.203
27.9872
27.7854
27.6146
27.4749
27.3469
27.1865
29.9808
29.5033
29.3911
29.3886
29.3752
29.3175
29.2028
29.0479
28.8784
28.7147
28.5648
28.417
28.2303
30.8435
30.4117
30.245
30.191
30.1488
30.0854
29.9947
29.8733
29.726
29.5599
29.3769
29.166
31.6244
31.2518
31.0488
30.925
30.8227
30.7124
30.5798
30.4219
30.2378
30.0249
29.7747
29.4694
32.1788
31.8393
31.5854
31.3677
31.1555
30.933
30.6921
30.4283
30.1379
29.8165
29.4423
28.9965
32.1033
31.7074
31.3296
30.952
30.5647
30.1619
29.7383
29.2878
28.8046
28.2863
27.7371
27.118
30.6411
30.1123
29.5575
28.9858
28.4017
27.806
27.1951
26.5615
25.8957
25.1919
24.4549
23.7034
22.9527
24.1715
23.6212
23.0192
22.3877
21.738
21.075
20.3983
19.7034
18.984
18.2368
17.4706
16.7025
15.9432
10.541
10.2416
9.8988
9.53125
9.1513
8.76601
8.37827
7.98782
7.593
7.19436
6.79903
6.41465
6.04064
)
;

boundaryField
{
    top
    {
        type            fixedValue;
        value           uniform 0;
    }
    bottom
    {
        type            fixedValue;
        value           uniform 43.8;
    }
    frontAndBack
    {
        type            empty;
    }
    left_cyc
    {
        type            cyclic;
    }
    right_cyc
    {
        type            cyclic;
    }
    procBoundary1to0
    {
        type            processor;
        value           nonuniform List<scalar> 
16
(
40.659
35.5791
32.3861
30.759
30.148
30.1293
30.5219
31.1016
31.7176
32.2739
32.6641
32.5406
32.5406
31.1187
24.6276
10.77
)
;
    }
    procBoundary1to2
    {
        type            processor;
        value           nonuniform List<scalar> 
16
(
37.8101
28.9287
23.7911
22.8713
23.9916
25.5421
26.9178
27.9251
28.8915
28.8915
29.0714
28.4404
26.3961
22.1326
15.228
5.67943
)
;
    }
}


// ************************************************************************* //
