/*--------------------------------*- C++ -*----------------------------------*\
| =========                 |                                                 |
| \\      /  F ield         | OpenFOAM: The Open Source CFD Toolbox           |
|  \\    /   O peration     | Version:  2.3.0                                 |
|   \\  /    A nd           | Web:      www.OpenFOAM.org                      |
|    \\/     M anipulation  |                                                 |
\*---------------------------------------------------------------------------*/
FoamFile
{
    version     2.0;
    format      ascii;
    class       volScalarField;
    location    "15000";
    object      NUEff;
}
// * * * * * * * * * * * * * * * * * * * * * * * * * * * * * * * * * * * * * //

dimensions      [0 2 -1 0 0 0 0];

internalField   nonuniform List<scalar> 
765
(
0.0165287
0.0164886
0.0165216
0.0165918
0.0166454
0.0166104
0.0164318
0.016243
0.0159954
0.015677
0.0155032
0.0157889
0.0160945
0.0163241
0.0165158
0.0166443
0.0166409
0.0165735
0.0165099
0.0164972
0.0165672
0.0166974
0.0168702
0.017088
0.0173627
0.0177147
0.0181756
0.0187903
0.0196207
0.0207488
0.022298
0.0245718
0.0271257
0.0294117
0.0312606
0.0321412
0.0319056
0.0306633
0.0286024
0.026221
0.023612
0.0216618
0.0202871
0.0192809
0.0185394
0.0179883
0.0175725
0.0172522
0.0170004
0.0168
0.0166422
0.0233209
0.0230643
0.0229653
0.0229559
0.022917
0.0226824
0.0221468
0.0211653
0.0197287
0.018113
0.0173439
0.0186299
0.0202441
0.021535
0.0223408
0.0228207
0.0229734
0.0229857
0.0230141
0.0231607
0.0234783
0.0240529
0.024851
0.0258734
0.0271645
0.0288157
0.0310008
0.0340726
0.0388165
0.0472189
0.0639642
0.0959757
0.160166
0.317069
0.587723
0.716804
0.687604
0.489343
0.240159
0.130094
0.0819225
0.0561267
0.0434165
0.0367661
0.0327873
0.0301056
0.0281469
0.0266434
0.0254588
0.0245207
0.0237992
0.0331497
0.0322503
0.0315882
0.0310648
0.0305388
0.0298
0.0285511
0.0262523
0.0231434
0.0200508
0.0187243
0.0209995
0.0242463
0.0271753
0.0291502
0.0301491
0.0307867
0.0312976
0.0318612
0.0326028
0.0336109
0.0349459
0.0368252
0.0393621
0.0427162
0.0472291
0.0534688
0.0625993
0.0773254
0.104538
0.172651
0.433386
0.804895
0.905966
0.938614
0.949839
0.947228
0.929805
0.881388
0.708261
0.287969
0.137195
0.0917
0.0707137
0.0586531
0.0508361
0.0453438
0.0413239
0.0383042
0.0360172
0.0343538
0.0406575
0.0390827
0.0377484
0.0366105
0.0356073
0.0345563
0.0328367
0.0297351
0.0254876
0.0213804
0.0197072
0.022613
0.0269955
0.0309899
0.0336321
0.0349919
0.0359905
0.0370342
0.0382419
0.0396627
0.0413413
0.043331
0.0456996
0.0485563
0.0520121
0.0561931
0.0615507
0.0691518
0.081579
0.106337
0.174789
0.484962
0.849689
0.930604
0.956417
0.965176
0.963197
0.949537
0.911229
0.769046
0.306367
0.138264
0.094351
0.0759083
0.0658366
0.0592979
0.0544855
0.050608
0.0473918
0.0447408
0.0425229
0.0407454
0.0393226
0.0380199
0.0369108
0.0360412
0.0352595
0.0338718
0.0310266
0.0265973
0.0221422
0.0203623
0.0234671
0.0282044
0.0322188
0.0344936
0.0355743
0.0363339
0.0372833
0.0384684
0.0398228
0.0412766
0.0427822
0.0443175
0.0458903
0.0475558
0.0494731
0.052017
0.0559695
0.063033
0.0776199
0.115838
0.289897
0.815566
0.931918
0.961103
0.97016
0.968194
0.953747
0.907932
0.668358
0.185021
0.0961946
0.0706868
0.0598167
0.0542341
0.0509495
0.0487105
0.0469214
0.045306
0.0437549
0.0422331
0.0370873
0.0361128
0.0352161
0.0345168
0.0340888
0.0337456
0.0330142
0.030801
0.0267395
0.0224605
0.02077
0.023723
0.0282455
0.03179
0.0333904
0.0338802
0.034207
0.0347259
0.0355026
0.0364371
0.037412
0.0383378
0.0391686
0.0399092
0.040631
0.0415034
0.0428512
0.0452717
0.049943
0.059659
0.0835754
0.176651
0.745862
0.929905
0.963756
0.973332
0.971321
0.955713
0.898881
0.481437
0.12329
0.0718167
0.0551856
0.0478607
0.0442206
0.0422923
0.0411726
0.0403855
0.0396724
0.038905
0.0380387
0.0333829
0.0327669
0.0322588
0.0319562
0.0318909
0.0318733
0.031421
0.029599
0.0262167
0.0225752
0.0210778
0.0236491
0.0274583
0.030407
0.0316932
0.0318644
0.0318873
0.0320264
0.0324044
0.0329574
0.0335837
0.0341921
0.0347253
0.0351743
0.0355952
0.0361363
0.03708
0.0389236
0.0425899
0.0501442
0.0679785
0.130628
0.659895
0.928912
0.966286
0.976142
0.974114
0.957814
0.891329
0.335257
0.0959656
0.0594359
0.0467445
0.04099
0.0381388
0.0366988
0.0359445
0.0354713
0.0350515
0.0345742
0.0340088
0.0305982
0.0302478
0.0300171
0.0299241
0.0298953
0.0298664
0.0293986
0.0279795
0.025463
0.0226331
0.021352
0.0234739
0.026375
0.0285767
0.0296373
0.0299
0.0299059
0.0299371
0.0300716
0.030344
0.0307204
0.0311442
0.0315651
0.0319608
0.0323606
0.0328796
0.0337646
0.0354593
0.0387613
0.0453996
0.0606333
0.111385
0.597663
0.930375
0.969021
0.978867
0.976852
0.960496
0.889302
0.270144
0.0836422
0.053385
0.0424502
0.0373499
0.0347579
0.0334203
0.0327029
0.0322445
0.0318517
0.0314447
0.0310155
0.0287354
0.0284964
0.0283244
0.0282071
0.0281277
0.0279686
0.0274991
0.0264478
0.0246981
0.0226492
0.0216001
0.0232551
0.0253159
0.0268594
0.0276972
0.0280359
0.0281474
0.0282342
0.028366
0.0285566
0.0288161
0.0291377
0.0295096
0.0299306
0.0304313
0.0311085
0.032175
0.0340271
0.0373904
0.0438562
0.0583708
0.107003
0.610537
0.935595
0.972146
0.981597
0.979642
0.964078
0.897001
0.265988
0.080362
0.0515249
0.041039
0.0359941
0.0332879
0.0317729
0.0308745
0.0302732
0.0298041
0.0293984
0.02904
0.0275894
0.0272972
0.0270584
0.0268591
0.0266644
0.026406
0.0259692
0.0252094
0.0240418
0.0226448
0.0218315
0.0230433
0.0244321
0.0254784
0.026122
0.0264868
0.0267142
0.0269049
0.0271132
0.0273681
0.0276783
0.0280492
0.0284912
0.029029
0.0297141
0.030658
0.0320793
0.0343777
0.0382965
0.0455385
0.0618081
0.121029
0.721739
0.94512
0.97588
0.984402
0.9826
0.968851
0.915439
0.360353
0.0881453
0.0541971
0.0424534
0.0367195
0.0334899
0.0315559
0.0303306
0.0294908
0.0288623
0.0283586
0.0279407
0.0275183
0.0270254
0.0265899
0.0261976
0.0258282
0.0254471
0.0249976
0.0244046
0.023613
0.0226923
0.0220985
0.0229317
0.0238493
0.0245834
0.0251255
0.0255468
0.0259197
0.0262937
0.026698
0.0271504
0.0276643
0.0282536
0.0289366
0.0297756
0.0308426
0.0322886
0.0343924
0.0376586
0.0430497
0.0529509
0.076734
0.189222
0.849053
0.957186
0.98011
0.987261
0.9857
0.974541
0.938384
0.668437
0.122452
0.0653742
0.048768
0.0409261
0.0364264
0.0336333
0.0317922
0.0304949
0.029515
0.028733
0.028082
0.0298329
0.0288463
0.0279751
0.0271929
0.0264799
0.0258173
0.0251808
0.0245382
0.0238633
0.0231856
0.0227511
0.0233349
0.0240324
0.0247014
0.0253411
0.0259842
0.0266612
0.0273945
0.0282025
0.0291068
0.0301365
0.0313273
0.0327169
0.0343335
0.0363638
0.0390631
0.0429121
0.04887
0.0590335
0.0795971
0.144324
0.630684
0.925052
0.969614
0.984668
0.990145
0.988902
0.980712
0.959387
0.883846
0.344814
0.110376
0.0706475
0.0550149
0.0466403
0.0415416
0.0381443
0.035699
0.0338184
0.0322896
0.0309686
0.0403315
0.0377114
0.0355124
0.0336198
0.0319595
0.0304875
0.029179
0.028021
0.0270137
0.0261975
0.0257714
0.0263567
0.0272448
0.0283035
0.0295096
0.0308681
0.0323955
0.0341215
0.0360986
0.0384124
0.0411929
0.0446153
0.0488772
0.0541663
0.0607395
0.0700237
0.0842102
0.109158
0.165706
0.368726
0.794836
0.924088
0.963674
0.980826
0.989344
0.993022
0.992149
0.986908
0.976014
0.953514
0.896635
0.681673
0.265307
0.140871
0.099384
0.0790505
0.066827
0.0585723
0.0524681
0.0475133
0.0435343
0.152565
0.119234
0.0981119
0.0835508
0.072907
0.0648208
0.0585422
0.0536451
0.0499111
0.047325
0.0462787
0.0478184
0.0507545
0.0548239
0.0601017
0.0668602
0.0756038
0.0872235
0.103365
0.127314
0.166329
0.237922
0.379662
0.594604
0.757202
0.838896
0.884869
0.914708
0.936044
0.95256
0.965846
0.976355
0.984295
0.990016
0.99386
0.995837
0.995345
0.99267
0.988187
0.981747
0.972978
0.961639
0.947484
0.929766
0.90635
0.872517
0.818637
0.717317
0.528506
0.327039
0.211441
0.982524
0.980835
0.979012
0.977031
0.974875
0.972545
0.970083
0.967595
0.965285
0.963497
0.962797
0.963862
0.965852
0.968258
0.970771
0.973216
0.975508
0.97762
0.979559
0.981345
0.983002
0.984542
0.985951
0.987222
0.988374
0.989415
0.990333
0.991153
0.991953
0.992795
0.993727
0.99476
0.995862
0.996957
0.99792
0.998515
0.998359
0.997598
0.996572
0.995469
0.994392
0.993401
0.99251
0.991693
0.990899
0.990063
0.989102
0.988031
0.986849
0.985541
0.984094
)
;

boundaryField
{
    top
    {
        type            calculated;
        value           uniform 1;
    }
    bottom
    {
        type            calculated;
        value           uniform 0.0143123;
    }
    frontAndBack
    {
        type            empty;
    }
    left_cyc
    {
        type            cyclic;
    }
    right_cyc
    {
        type            cyclic;
    }
}


// ************************************************************************* //
