/*--------------------------------*- C++ -*----------------------------------*\
| =========                 |                                                 |
| \\      /  F ield         | OpenFOAM: The Open Source CFD Toolbox           |
|  \\    /   O peration     | Version:  2.3.0                                 |
|   \\  /    A nd           | Web:      www.OpenFOAM.org                      |
|    \\/     M anipulation  |                                                 |
\*---------------------------------------------------------------------------*/
FoamFile
{
    version     2.0;
    format      ascii;
    class       volScalarField;
    location    "15000";
    object      p;
}
// * * * * * * * * * * * * * * * * * * * * * * * * * * * * * * * * * * * * * //

dimensions      [0 2 -2 0 0 0 0];

internalField   nonuniform List<scalar> 
765
(
0
-13.6542
-38.6686
-73.8647
-117.592
-167.394
-219.47
-268.892
-311.807
-346.147
-367.341
-375.642
-377.685
-376.459
-370.057
-352.414
-320.261
-279.228
-230.973
-179.04
-128.296
-82.8828
-45.5053
-17.9534
-1.49476
3.0139
-4.71707
-24.2164
-54.5081
-94.2087
-141.338
-192.863
-244.273
-290.977
-329.78
-358.854
-372.796
-377.36
-377.75
-374.612
-363.777
-338.47
-301.884
-256.968
-206.426
-154.471
-105.906
-64.1367
-31.3686
-9.11306
1.54856
43.7214
34.9394
19.109
-2.77936
-29.6159
-60.1243
-93.1071
-128.281
-161.233
-184.058
-197.951
-204.27
-205.194
-204.695
-200.161
-187.78
-167.294
-136.222
-100.747
-67.207
-36.0037
-8.16007
15.0225
32.4021
42.9627
45.8819
40.8787
28.4183
9.39802
-15.1378
-44.005
-75.8932
-110.051
-145.397
-173.87
-191.864
-202.408
-205.232
-205.375
-203.731
-195.255
-179.469
-153.838
-119.337
-84.6401
-52.1992
-22.4839
3.224
23.6913
37.8408
44.7214
134.067
127.068
114.478
97.1849
76.1727
52.4191
26.8355
-0.0217098
-24.7021
-39.8544
-46.5679
-45.7415
-43.272
-44.909
-47.017
-41.8984
-28.9615
-5.88925
21.0361
46.9653
71.2444
93.0092
111.291
125.103
133.523
135.851
131.856
121.921
106.824
87.5163
64.9844
40.1868
13.8782
-12.7902
-33.4762
-44.1386
-47.284
-44.2813
-43.7175
-46.802
-45.7461
-37.1352
-19.217
6.72492
33.3487
58.5543
81.718
101.897
118.106
129.375
134.863
221.756
215.865
205.301
190.938
173.828
155.122
136.093
118.107
103.629
94.6646
94.7269
104.219
110.785
106.398
96.3527
93.7377
101.259
114.533
132.035
150.964
169.884
187.494
202.624
214.195
221.281
223.238
219.872
211.511
198.889
182.982
164.894
145.821
127.086
110.347
98.496
93.0428
98.499
108.294
109.827
101.258
93.3444
96.1925
106.626
122.343
140.758
159.849
178.279
194.814
208.326
217.799
222.423
295.523
290.851
282.558
271.494
258.678
245.182
232.111
220.602
212.383
209.24
214.69
229.216
237.975
232.279
217.467
209.498
211.251
218.454
229.426
242.261
255.778
268.871
280.463
289.516
295.129
296.684
294.004
287.393
277.559
265.453
252.128
238.664
226.174
215.955
210.011
210.193
220.944
234.902
236.849
225.039
211.935
209.298
213.883
223.169
235.207
248.507
261.947
274.436
284.908
292.374
296.051
366.748
363.122
356.778
348.531
339.351
330.234
322.148
315.999
312.789
313.37
319.11
331.181
339.264
333.888
321.352
314.117
312.598
315.007
320.597
328.336
337.318
346.591
355.166
362.059
366.406
367.617
365.526
360.419
352.976
344.106
334.802
326.045
318.772
313.891
312.444
315.171
324.23
336.365
338.232
327.65
316.839
312.69
313.131
317.207
323.941
332.39
341.628
350.681
358.551
364.294
367.157
435.951
433.374
428.968
423.458
417.692
412.522
408.731
406.981
407.724
411.156
417.266
425.795
431.369
427.628
419.014
412.275
408.261
406.908
408.135
411.522
416.454
422.171
427.835
432.589
435.668
436.535
435.035
431.435
426.346
420.572
414.974
410.37
407.495
406.894
408.946
413.636
421.093
429.336
430.644
423.422
415.318
409.923
407.169
407.106
409.428
413.647
419.055
424.851
430.175
434.197
436.244
503.863
502.431
500.114
497.478
495.163
493.796
493.928
495.945
499.901
505.535
512.194
518.921
522.673
520.183
513.732
506.945
501.014
496.637
494.179
493.643
494.717
496.876
499.507
501.965
503.66
504.154
503.3
501.34
498.763
496.185
494.246
493.545
494.567
497.531
502.365
508.588
515.461
521.342
522.205
517.234
510.366
503.898
498.64
495.173
493.652
493.951
495.623
498.092
500.719
502.875
504.029
569.989
569.888
569.962
570.534
571.939
574.493
578.455
583.92
590.672
598.173
605.499
611.512
614.378
612.506
606.989
599.842
592.282
585.292
579.505
575.197
572.341
570.702
569.971
569.815
569.906
569.963
569.865
569.8
570.067
570.999
572.924
576.141
580.849
586.987
594.203
601.76
608.621
613.422
614.064
610.16
603.677
596.202
588.814
582.354
577.258
573.676
571.448
570.294
569.888
569.896
570.007
633.139
634.602
637.437
641.642
647.164
653.931
661.849
670.722
680.147
689.443
697.62
703.575
706.124
704.479
699.169
691.385
682.237
672.761
663.713
655.55
648.508
642.691
638.172
635.011
633.225
632.762
633.562
635.706
639.226
644.091
650.236
657.584
666.012
675.228
684.706
693.608
700.86
705.339
705.897
702.353
695.718
687.147
677.732
668.393
659.731
652.095
645.639
640.445
636.585
634.101
632.98
691.544
694.777
700.697
708.925
718.972
730.326
742.493
754.971
767.205
778.436
787.707
794.036
796.594
794.956
789.4
780.699
769.813
757.723
745.237
732.951
721.365
710.965
702.261
695.75
691.847
690.789
692.612
697.24
704.379
713.583
724.346
736.165
748.553
761.002
772.866
783.284
791.257
795.864
796.417
792.822
785.649
775.777
764.205
751.846
739.401
727.392
716.317
706.676
698.982
693.705
691.183
742.988
748.091
757.253
769.703
784.516
800.736
817.451
833.845
849.19
862.663
873.357
880.411
883.191
881.42
875.275
865.325
852.392
837.389
821.161
804.45
788.032
772.8
759.7
749.673
743.537
741.845
744.756
751.999
762.935
776.7
792.342
808.926
825.577
841.56
856.11
868.356
877.39
882.446
883.041
879.117
871.056
859.563
845.528
829.845
813.309
796.628
780.666
766.347
754.63
746.415
742.411
785.014
791.897
804.134
820.602
839.996
860.979
882.271
902.748
921.473
937.523
949.993
958.09
961.254
959.244
952.217
940.668
925.349
907.146
886.983
865.786
844.614
824.721
807.432
794.067
785.809
783.512
787.46
797.185
811.726
829.847
850.215
871.52
892.535
912.274
929.813
944.234
954.673
960.437
961.111
956.64
947.357
933.889
917.069
897.812
877.043
855.703
834.984
816.186
800.648
789.647
784.23
814.905
823.237
837.968
857.699
880.85
905.831
931.125
955.368
977.376
996.073
1010.48
1019.8
1023.44
1021.13
1013.06
999.734
981.929
960.583
936.75
911.581
886.388
862.656
841.96
825.891
815.908
813.114
817.91
829.651
847.112
868.78
893.06
918.396
943.334
966.625
987.145
1003.87
1015.89
1022.51
1023.28
1018.15
1007.46
991.865
972.225
949.541
924.912
899.55
874.871
852.415
833.78
820.519
813.951
830.742
839.886
855.996
877.515
902.728
929.942
957.578
984.167
1008.31
1028.79
1044.56
1054.74
1058.73
1056.2
1047.38
1032.81
1013.31
989.907
963.763
936.233
908.775
882.932
860.371
842.81
831.863
828.787
834.063
846.923
865.991
889.6
916.038
943.665
970.982
996.536
1019.03
1037.34
1050.48
1057.72
1058.57
1052.94
1041.25
1024.19
1002.66
977.768
950.761
923.085
896.211
871.753
851.42
836.907
829.69
)
;

boundaryField
{
    top
    {
        type            calculated;
        value           nonuniform List<scalar> 
51
(
832.609
842.247
859.123
881.555
907.749
935.981
964.702
992.446
1017.68
1039.11
1055.63
1066.33
1070.54
1067.87
1058.59
1043.32
1022.91
998.448
971.159
942.517
914.033
887.2
863.704
845.332
833.813
830.556
836.134
849.645
869.565
894.128
921.562
950.224
978.686
1005.37
1028.89
1048.06
1061.85
1069.46
1070.36
1064.43
1052.16
1034.28
1011.77
985.761
957.589
928.861
900.982
875.557
854.337
839.113
831.494
)
;
    }
    bottom
    {
        type            calculated;
        value           nonuniform List<scalar> 
51
(
-71.5688
-85.5064
-111.017
-146.896
-191.47
-242.263
-295.423
-345.839
-389.724
-424.997
-447.026
-455.957
-458.285
-456.873
-449.905
-431.463
-398.395
-356.399
-307.154
-254.147
-202.387
-156.093
-117.993
-89.8982
-73.1027
-68.4951
-76.392
-96.2855
-127.169
-167.636
-215.684
-268.25
-320.708
-368.398
-408.157
-438.126
-452.82
-457.865
-458.319
-454.793
-443.263
-417.087
-379.555
-333.66
-282.095
-229.076
-179.555
-136.979
-103.573
-80.872
-69.9855
)
;
    }
    frontAndBack
    {
        type            empty;
    }
    left_cyc
    {
        type            cyclic;
    }
    right_cyc
    {
        type            cyclic;
    }
}


// ************************************************************************* //
