/*--------------------------------*- C++ -*----------------------------------*\
| =========                 |                                                 |
| \\      /  F ield         | OpenFOAM: The Open Source CFD Toolbox           |
|  \\    /   O peration     | Version:  2.3.0                                 |
|   \\  /    A nd           | Web:      www.OpenFOAM.org                      |
|    \\/     M anipulation  |                                                 |
\*---------------------------------------------------------------------------*/
FoamFile
{
    version     2.0;
    format      ascii;
    class       volScalarField;
    location    "15000";
    object      p;
}
// * * * * * * * * * * * * * * * * * * * * * * * * * * * * * * * * * * * * * //

dimensions      [0 2 -2 0 0 0 0];

internalField   nonuniform List<scalar> 
3060
(
0
-3.20964
-9.21097
-17.943
-29.3372
-43.3335
-59.8873
-78.9579
-100.478
-124.316
-150.249
-177.944
-206.933
-236.585
-266.049
-294.283
-320.223
-342.97
-361.792
-376.315
-386.781
-393.736
-397.984
-400.359
-401.511
-401.822
-401.408
-400.127
-397.568
-393.058
-385.754
-374.864
-359.872
-340.584
-317.431
-291.165
-262.713
-233.163
-203.551
-174.708
-147.251
-121.632
-98.176
-77.093
-58.5056
-42.4762
-29.0455
-18.2604
-10.1822
-4.87688
-2.39975
-2.78116
-6.0159
-12.066
-20.8719
-32.3673
-46.4944
-63.2097
-82.4703
-104.201
-128.259
-154.404
-182.282
-211.396
-241.083
-270.446
-298.416
-323.935
-346.124
-364.285
-378.146
-388.016
-394.493
-398.404
-400.567
-401.589
-401.806
-401.292
-399.863
-397.062
-392.177
-384.359
-372.851
-357.185
-337.257
-313.58
-286.932
-258.261
-228.649
-199.1
-170.401
-143.137
-117.735
-94.4978
-73.622
-55.2185
-39.3439
-26.0374
-15.3475
-7.33806
-2.07697
0.379319
34.3454
31.8023
27.0104
19.9541
10.6059
-1.06576
-15.0784
-31.4071
-49.9587
-70.5578
-92.9382
-116.721
-141.376
-166.204
-190.538
-214.092
-236.712
-257.538
-275.127
-288.586
-298.274
-304.844
-309.047
-311.551
-312.844
-313.21
-312.735
-311.313
-308.641
-304.208
-297.334
-287.268
-273.368
-255.367
-234.279
-211.53
-187.89
-163.489
-138.671
-114.131
-90.5564
-68.4628
-48.2164
-30.0731
-14.1973
-0.670909
10.4905
19.3096
25.8198
30.0484
32.0098
31.7084
29.1436
24.3091
17.1868
7.74684
-4.04357
-18.1999
-34.6912
-53.4148
-74.1827
-96.7122
-120.602
-145.29
-170.057
-194.264
-217.69
-240.11
-260.521
-277.477
-290.296
-299.442
-305.594
-309.496
-311.794
-312.943
-313.191
-312.594
-311.014
-308.113
-303.349
-296.022
-285.387
-270.824
-252.236
-230.799
-207.884
-184.117
-159.6
-134.745
-110.261
-86.8074
-64.8705
-44.7958
-26.824
-11.1077
2.28001
13.3285
22.0615
28.5108
32.7013
34.6449
63.2383
60.6557
55.82
48.7759
39.5994
28.4123
15.3922
0.766666
-15.2132
-32.3078
-50.3125
-69.0632
-88.4464
-108.414
-128.901
-149.336
-168.286
-184.573
-198.322
-209.889
-218.589
-224.025
-227.141
-228.855
-229.696
-229.924
-229.62
-228.688
-226.844
-223.524
-217.783
-208.737
-196.931
-182.954
-166.392
-147.243
-126.794
-106.412
-86.5763
-67.3375
-48.7494
-30.9363
-14.0723
1.62726
15.9148
28.5378
39.2737
47.9537
54.4642
58.7362
60.7289
60.4221
57.8192
52.9459
45.8489
36.6078
25.3501
12.2599
-2.42911
-18.4622
-35.5985
-53.6332
-72.4041
-91.8044
-111.793
-132.277
-152.542
-171.083
-186.904
-200.289
-211.464
-219.606
-224.598
-227.446
-229.006
-229.752
-229.911
-229.534
-228.495
-226.474
-222.841
-216.606
-207.032
-194.864
-180.498
-163.459
-143.955
-123.397
-103.028
-83.2131
-63.9914
-45.426
-27.6463
-10.8274
4.81546
19.0366
31.5878
42.2531
50.8699
57.33
61.5675
63.5433
110.93
108.435
103.777
97.0255
88.2863
77.7107
65.4994
51.895
37.1599
21.5431
5.25198
-11.5639
-28.8116
-46.4184
-64.1642
-81.3408
-96.9212
-110.668
-122.828
-132.409
-139.253
-144.005
-146.289
-147.138
-147.418
-147.471
-147.386
-147.056
-146.102
-143.599
-138.617
-131.559
-121.697
-109.384
-95.504
-79.7624
-62.5208
-44.8241
-27.3139
-10.1827
6.4986
22.6282
38.0451
52.5312
65.8296
77.6764
87.8323
96.1034
102.346
106.461
108.385
108.089
105.576
100.887
94.0924
85.3029
74.6753
62.4167
48.7756
34.0175
18.3916
2.10206
-14.7063
-31.9446
-49.5336
-67.2027
-84.1442
-99.3742
-112.827
-124.617
-133.672
-140.154
-144.493
-146.453
-147.178
-147.422
-147.467
-147.368
-146.987
-145.868
-142.978
-137.625
-130.153
-119.776
-107.148
-92.9507
-76.8705
-59.4397
-41.691
-24.1682
-7.02853
9.65896
25.7875
41.1914
55.6502
68.908
80.7049
90.8076
99.0288
105.23
109.315
111.226
158.149
155.914
151.747
145.713
137.912
128.477
117.573
105.393
92.1456
78.0416
63.2848
48.0723
32.6084
17.1344
1.98578
-12.3477
-25.453
-37.4937
-48.5026
-57.0439
-62.4865
-65.3962
-66.4168
-66.4357
-66.1881
-66.0759
-66.1973
-66.4364
-66.3503
-65.2013
-62.0813
-56.3893
-47.5673
-36.4369
-24.3275
-11.1115
3.30711
18.4727
33.9092
49.2928
64.3879
78.9896
92.8977
105.904
117.796
128.363
137.415
144.791
150.365
154.042
155.763
155.498
153.251
149.061
142.997
135.16
125.687
114.748
102.538
89.2705
75.1575
60.4048
45.2121
29.789
14.3875
-0.634107
-14.763
-27.648
-39.5246
-50.2208
-58.1948
-63.1478
-65.6515
-66.4459
-66.3733
-66.143
-66.0792
-66.2434
-66.4813
-66.265
-64.8448
-61.295
-55.0779
-45.7233
-34.3567
-22.0729
-8.62917
5.97494
21.2513
36.7506
52.1687
67.2789
81.881
95.7766
108.76
120.619
131.149
140.162
147.503
153.046
156.703
158.413
199.612
197.58
193.796
188.329
181.282
172.786
163.002
152.112
140.311
127.798
114.77
101.421
87.9517
74.5907
61.6221
49.4217
38.4053
28.8427
20.9369
14.8234
10.9267
10.1028
11.3823
13.288
14.4302
14.7386
14.3657
13.1268
11.1975
10.0243
11.0985
15.2496
21.5288
29.6058
39.3114
50.4463
62.719
75.7058
89.041
102.446
115.696
128.589
140.928
152.512
163.142
172.621
180.77
187.431
192.478
195.814
197.377
197.136
195.096
191.296
185.809
178.737
170.218
160.414
149.51
137.705
125.199
112.192
98.8796
85.4691
72.1959
59.3579
47.3489
36.5747
27.2805
19.6826
13.8804
10.5123
10.1892
11.7019
13.5614
14.5384
14.7272
14.2265
12.8189
10.9267
10.0529
11.6746
16.2916
22.8735
31.2481
41.2157
52.5827
65.0302
78.1354
91.5498
105.007
118.29
131.199
143.541
155.119
165.732
175.189
183.312
189.949
194.975
198.297
199.852
238.172
236.34
232.93
228.014
221.693
214.096
205.376
195.703
185.261
174.238
162.824
151.21
139.596
128.199
117.27
107.101
98.0016
90.2346
84.1066
80.0461
78.6087
80.4898
85.0641
89.966
93.242
94.1524
93.0299
89.5201
84.519
80.0796
78.5109
80.239
84.5196
90.8242
98.7256
107.93
118.167
129.123
140.51
152.078
163.613
174.912
185.783
196.033
205.473
213.92
221.204
227.176
231.712
234.716
236.124
235.907
234.069
230.649
225.721
219.386
211.776
203.047
193.373
182.939
171.935
160.554
148.99
137.447
126.149
115.354
105.362
96.4807
88.9699
83.1638
79.4947
78.5907
81.0589
85.9039
90.67
93.5502
94.1137
92.6145
88.7579
83.7123
79.6616
78.6909
80.9103
85.5617
92.1682
100.315
109.728
120.131
131.211
142.688
154.322
165.901
177.23
188.116
198.37
207.806
216.243
223.513
229.47
233.992
236.986
238.389
274.253
272.603
269.538
265.128
259.475
252.706
244.969
236.429
227.26
217.641
207.754
197.784
187.918
178.356
169.319
161.051
153.812
147.852
143.456
141.008
141.046
144.592
152.052
160.602
166.741
168.773
166.298
159.798
151.146
143.968
140.813
141.055
143.712
148.275
154.367
161.707
170.044
179.118
188.683
198.521
208.431
218.224
227.714
236.718
245.054
252.549
259.038
264.377
268.443
271.142
272.409
272.214
270.561
267.49
263.074
257.416
250.643
242.908
234.377
225.226
215.637
205.794
195.884
186.099
176.642
167.74
159.642
152.61
146.896
142.801
140.725
141.27
145.534
153.478
161.853
167.391
168.675
165.471
158.45
149.796
143.235
140.75
141.452
144.46
149.308
155.634
163.172
171.671
180.871
190.533
200.446
210.412
220.245
229.761
238.78
247.122
254.616
261.101
266.433
270.492
273.184
274.448
308.695
307.214
304.466
300.522
295.484
289.477
282.645
275.15
267.158
258.843
250.376
241.93
233.682
225.812
218.509
211.983
206.451
202.138
199.302
198.274
199.492
203.691
211.783
222.246
230.589
233.494
229.963
221.201
210.762
203.037
199.174
198.203
199.426
202.42
206.86
212.492
219.09
226.437
234.325
242.561
250.966
259.361
267.572
275.424
282.743
289.361
295.12
299.878
303.513
305.931
307.068
306.893
305.41
302.661
298.716
293.678
287.675
280.854
273.377
265.412
257.135
248.72
240.343
232.182
224.42
217.251
210.889
205.552
201.47
198.913
198.227
199.883
204.697
213.434
223.893
231.504
233.35
228.811
219.476
209.254
202.222
198.919
198.355
199.901
203.161
207.822
213.641
220.395
227.868
235.858
244.176
252.643
261.087
269.333
277.209
284.543
291.169
296.93
301.688
305.32
307.736
308.871
342.103
340.778
338.323
334.811
330.341
325.038
319.044
312.514
305.611
298.498
291.341
284.3
277.536
271.21
265.486
260.538
256.543
253.687
252.179
252.278
254.31
258.719
266.06
275.71
284.086
287.149
283.431
274.706
265.15
258.1
253.949
252.127
252.201
253.854
256.831
260.923
265.947
271.723
278.079
284.847
291.865
298.972
306.003
312.791
319.172
324.982
330.067
334.288
337.525
339.683
340.699
340.542
339.217
336.764
333.255
328.792
323.499
317.522
311.016
304.147
297.08
289.981
283.013
276.34
270.123
264.529
259.736
255.922
253.277
252.017
252.413
254.808
259.678
267.534
277.309
285.04
286.995
282.244
273.072
263.807
257.281
253.561
252.082
252.44
254.331
257.51
261.776
266.948
272.849
279.308
286.161
293.249
300.41
307.483
314.303
320.705
326.529
331.623
335.848
339.086
341.245
342.26
374.911
373.733
371.555
368.449
364.513
359.869
354.656
349.026
343.133
337.134
331.185
325.433
320.026
315.103
310.804
307.27
304.638
303.048
302.651
303.62
306.154
310.474
316.753
324.489
331.307
333.879
330.762
323.683
316.008
309.917
305.784
303.418
302.597
303.123
304.824
307.552
311.164
315.523
320.487
325.913
331.66
337.578
343.517
349.319
354.825
359.881
364.336
368.053
370.915
372.829
373.731
373.592
372.416
370.242
367.142
363.216
358.587
353.397
347.796
341.942
335.994
330.107
324.432
319.115
314.3
310.126
306.735
304.267
302.863
302.679
303.891
306.706
311.347
317.95
325.768
332.102
333.749
329.783
322.383
314.894
309.138
305.316
303.22
302.634
303.365
305.247
308.133
311.884
316.364
321.43
326.943
332.762
338.739
344.725
350.563
356.097
361.171
365.639
369.365
372.232
374.148
375.051
407.399
406.364
404.454
401.738
398.315
394.301
389.832
385.052
380.109
375.152
370.323
365.761
361.594
357.946
354.93
352.656
351.222
350.722
351.249
352.894
355.739
359.837
365.125
371.088
376.148
378.051
375.743
370.481
364.53
359.349
355.379
352.662
351.139
350.725
351.326
352.852
355.206
358.288
361.987
366.185
370.758
375.574
380.491
385.365
390.046
394.384
398.236
401.47
403.972
405.65
406.442
406.32
405.287
403.383
400.676
397.266
393.271
388.827
384.08
379.18
374.276
369.512
365.027
360.95
357.405
354.506
352.363
351.075
350.734
351.435
353.269
356.316
360.62
366.08
372.042
376.735
377.955
375.022
369.501
363.616
358.625
354.862
352.344
351.006
350.762
351.519
353.186
355.669
358.864
362.663
366.947
371.594
376.47
381.438
386.352
391.063
395.424
399.293
402.538
405.046
406.728
407.522
439.719
438.826
437.182
434.855
431.937
428.542
424.797
420.839
416.807
412.838
409.064
405.609
402.587
400.101
398.244
397.094
396.714
397.155
398.456
400.637
403.692
407.556
412.041
416.662
420.356
421.711
420.065
416.209
411.565
407.13
403.348
400.387
398.302
397.098
396.749
397.217
398.448
400.375
402.919
405.983
409.462
413.239
417.186
421.171
425.052
428.691
431.952
434.709
436.853
438.297
438.98
438.874
437.985
436.348
434.031
431.128
427.754
424.037
420.115
416.127
412.212
408.503
405.124
402.189
399.8
398.052
397.018
396.763
397.337
398.774
401.094
404.282
408.262
412.813
417.372
420.776
421.643
419.546
415.466
410.805
406.456
402.796
399.971
398.025
396.956
396.738
397.329
398.675
400.709
403.347
406.495
410.047
413.885
417.884
421.91
425.824
429.489
432.768
435.539
437.692
439.14
439.825
471.922
471.174
469.804
467.873
465.468
462.697
459.676
456.533
453.393
450.382
447.618
445.211
443.259
441.847
441.045
440.904
441.457
442.717
444.678
447.304
450.523
454.2
458.094
461.779
464.538
465.517
464.327
461.435
457.705
453.824
450.194
447.04
444.489
442.61
441.433
440.962
441.181
442.056
443.531
445.534
447.976
450.757
453.763
456.874
459.963
462.902
465.566
467.839
469.619
470.822
471.393
471.305
470.562
469.199
467.279
464.891
462.142
459.151
456.043
452.949
449.991
447.291
444.956
443.086
441.764
441.06
441.022
441.68
443.046
445.108
447.828
451.124
454.849
458.738
462.325
464.844
465.468
463.945
460.853
457.055
453.187
449.614
446.543
444.089
442.313
441.242
440.876
441.197
442.167
443.731
445.814
448.326
451.168
454.225
457.378
460.501
463.467
466.151
468.439
470.228
471.437
472.01
503.979
503.386
502.302
500.786
498.916
496.79
494.512
492.195
489.951
487.89
486.115
484.719
483.785
483.38
483.553
484.332
485.723
487.708
490.244
493.255
496.626
500.181
503.672
506.738
508.895
509.634
508.737
506.467
503.344
499.842
496.307
492.978
490.024
487.554
485.642
484.327
483.624
483.523
483.995
484.985
486.425
488.228
490.299
492.531
494.814
497.035
499.082
500.851
502.248
503.199
503.652
503.582
502.993
501.917
500.414
498.562
496.458
494.209
491.929
489.729
487.72
486.004
484.677
483.819
483.495
483.754
484.621
486.097
488.163
490.77
493.837
497.239
500.793
504.232
507.179
509.13
509.598
508.441
505.988
502.766
499.229
495.701
492.412
489.518
487.123
485.293
484.065
483.449
483.433
483.986
485.05
486.556
488.417
490.538
492.812
495.129
497.377
499.445
501.229
502.637
503.594
504.05
535.804
535.376
534.6
533.526
532.225
530.779
529.279
527.819
526.494
525.396
524.61
524.212
524.267
524.826
525.918
527.55
529.706
532.346
535.398
538.758
542.283
545.784
549.02
551.697
553.484
554.079
553.358
551.472
548.732
545.467
541.966
538.464
535.145
532.146
529.568
527.48
525.919
524.897
524.406
524.41
524.857
525.68
526.801
528.131
529.577
531.045
532.44
533.672
534.662
535.342
535.669
535.619
535.195
534.427
533.366
532.083
530.659
529.188
527.763
526.48
525.431
524.701
524.366
524.489
525.12
526.285
527.989
530.213
532.91
536.006
539.389
542.91
546.373
549.528
552.074
553.676
554.049
553.115
551.057
548.199
544.865
541.336
537.839
534.549
531.598
529.082
527.062
525.573
524.626
524.206
524.277
524.785
525.662
526.83
528.2
529.68
531.175
532.59
533.838
534.838
535.526
535.856
567.264
567.015
566.572
565.977
565.288
564.57
563.895
563.337
562.97
562.865
563.088
563.694
564.732
566.233
568.209
570.651
573.524
576.77
580.298
583.987
587.68
591.186
594.284
596.735
598.308
598.819
598.201
596.537
594.019
590.88
587.358
583.672
580.008
576.52
573.325
570.51
568.132
566.221
564.785
563.808
563.254
563.076
563.213
563.601
564.165
564.833
565.529
566.184
566.732
567.12
567.309
567.28
567.036
566.601
566.019
565.347
564.651
564.004
563.479
563.152
563.092
563.365
564.028
565.124
566.687
568.724
571.222
574.145
577.428
580.976
584.661
588.323
591.765
594.762
597.074
598.474
598.793
597.986
596.159
593.511
590.281
586.704
582.995
579.336
575.872
572.718
569.955
567.635
565.786
564.411
563.492
562.993
562.864
563.045
563.47
564.066
564.76
565.477
566.147
566.707
567.102
567.294
598.185
598.132
598.051
597.976
597.948
598.013
598.22
598.621
599.264
600.196
601.462
603.096
605.127
607.57
610.419
613.65
617.215
621.041
625.027
629.04
632.921
636.485
639.534
641.871
643.331
643.797
643.233
641.686
639.277
636.178
632.584
628.695
624.692
620.733
616.946
613.429
610.252
607.462
605.079
603.106
601.526
600.309
599.418
598.81
598.437
598.248
598.192
598.222
598.291
598.36
598.399
598.393
598.344
598.272
598.21
598.199
598.285
598.519
598.95
599.629
600.602
601.912
603.595
605.676
608.169
611.065
614.338
617.935
621.779
625.763
629.752
633.581
637.062
639.995
642.189
643.483
643.774
643.035
641.327
638.782
635.576
631.908
627.974
623.954
619.999
616.234
612.752
609.619
606.878
604.545
602.622
601.089
599.916
599.065
598.491
598.147
597.983
597.948
597.993
598.073
598.149
598.192
628.358
628.518
628.832
629.32
630.004
630.91
632.061
633.482
635.195
637.221
639.578
642.28
645.334
648.737
652.467
656.488
660.741
665.142
669.584
673.93
678.025
681.694
684.761
687.063
688.476
688.923
688.382
686.88
684.501
681.374
677.664
673.547
669.196
664.767
660.39
656.173
652.196
648.514
645.163
642.163
639.514
637.209
635.234
633.57
632.197
631.09
630.226
629.581
629.131
628.853
628.729
628.748
628.912
629.234
629.735
630.436
631.362
632.538
633.987
635.732
637.793
640.189
642.93
646.025
649.466
653.231
657.279
661.548
665.95
670.372
674.676
678.701
682.273
685.215
687.371
688.622
688.9
688.191
686.531
684.01
680.766
676.966
672.787
668.4
663.958
659.586
655.389
651.44
647.795
644.484
641.524
638.915
636.647
634.707
633.074
631.728
630.644
629.8
629.171
628.732
628.461
628.34
657.544
657.934
658.672
659.763
661.211
663.016
665.173
667.678
670.525
673.706
677.212
681.033
685.154
689.552
694.192
699.024
703.979
708.969
713.881
718.582
722.921
726.737
729.874
732.198
733.609
734.052
733.512
732.009
729.602
726.394
722.524
718.149
713.429
708.513
703.533
698.599
693.797
689.194
684.839
680.765
676.995
673.543
670.421
667.637
665.199
663.114
661.386
660.018
659.01
658.358
658.058
658.104
658.498
659.245
660.349
661.813
663.637
665.817
668.348
671.224
674.435
677.972
681.825
685.976
690.402
695.063
699.907
704.863
709.837
714.714
719.357
723.613
727.321
730.327
732.501
733.751
734.029
733.324
731.663
729.11
725.777
721.806
717.355
712.583
707.638
702.647
697.717
692.931
688.352
684.024
679.982
676.243
672.823
669.731
666.974
664.561
662.498
660.789
659.436
658.44
657.795
657.499
685.477
686.11
687.299
689.03
691.286
694.04
697.26
700.911
704.954
709.353
714.069
719.067
724.308
729.749
735.34
741.019
746.708
752.316
757.727
762.813
767.432
771.436
774.689
777.075
778.515
778.964
778.412
776.873
774.395
771.061
766.989
762.32
757.198
751.766
746.151
740.466
734.802
729.235
723.825
718.623
713.673
709.012
704.68
700.713
697.151
694.031
691.389
689.256
687.656
686.608
686.12
686.195
686.833
688.03
689.774
692.046
694.819
698.061
701.735
705.803
710.227
714.969
719.99
725.252
730.709
736.308
741.986
747.662
753.239
758.601
763.616
768.14
772.027
775.143
777.378
778.656
778.941
778.225
776.527
773.899
770.433
766.251
761.493
756.307
750.831
745.191
739.496
733.834
728.278
722.885
717.705
712.779
708.143
703.836
699.894
696.355
693.256
690.632
688.514
686.927
685.886
685.402
711.869
712.757
714.414
716.813
719.91
723.654
727.981
732.826
738.119
743.791
749.775
756.007
762.423
768.961
775.552
782.125
788.593
794.86
800.811
806.323
811.262
815.497
818.906
821.39
822.882
823.345
822.771
821.17
818.582
815.08
810.763
805.756
800.191
794.201
787.908
781.426
774.852
768.268
761.749
755.363
749.174
743.248
737.649
732.448
727.713
723.515
719.921
716.99
714.774
713.312
712.628
712.734
713.627
715.293
717.704
720.818
724.58
728.928
733.794
739.109
744.802
750.805
757.053
763.481
770.023
776.612
783.17
789.611
795.834
801.723
807.152
811.988
816.098
819.365
821.695
823.024
823.322
822.582
820.82
818.081
814.44
810.005
804.9
799.257
793.21
786.879
780.373
773.788
767.204
760.692
754.319
748.147
742.24
736.662
731.483
726.77
722.592
719.016
716.101
713.897
712.443
711.764
736.418
737.566
739.702
742.78
746.736
751.49
756.95
763.018
769.594
776.578
783.873
791.385
799.026
806.71
814.353
821.871
829.168
836.144
842.684
848.67
853.978
858.489
862.095
864.71
866.275
866.758
866.152
864.465
861.734
858.02
853.412
848.018
841.96
835.36
828.339
821.009
813.471
805.82
798.142
790.522
783.048
775.813
768.911
762.441
756.505
751.205
746.637
742.893
740.048
738.164
737.28
737.417
738.57
740.715
743.807
747.779
752.551
758.031
764.12
770.715
777.716
785.025
792.546
800.191
807.87
815.499
822.99
830.248
837.167
843.634
849.527
854.722
859.102
862.561
865.018
866.418
866.734
865.96
864.11
861.223
857.367
852.632
847.131
840.984
834.315
827.243
819.877
812.317
804.654
796.973
789.358
781.895
774.675
767.79
761.34
755.425
750.145
745.596
741.868
739.036
737.161
736.282
758.813
760.219
762.83
766.584
771.393
777.152
783.742
791.034
798.898
807.204
815.825
824.642
833.537
842.404
851.141
859.648
867.824
875.559
882.742
889.255
894.984
899.819
903.663
906.442
908.1
908.61
907.963
906.169
903.259
899.289
894.339
888.506
881.9
874.639
866.837
858.609
850.063
841.302
832.428
823.545
814.764
806.204
797.988
790.245
783.109
776.709
771.173
766.62
763.15
760.847
759.765
759.932
761.343
763.964
767.732
772.558
778.336
784.946
792.257
800.139
808.46
817.091
825.911
834.803
843.656
852.369
860.84
868.965
876.633
883.731
890.142
895.749
900.446
904.14
906.756
908.246
908.585
907.767
905.805
902.736
898.618
893.534
887.585
880.881
873.539
865.675
857.4
848.821
840.039
831.154
822.269
813.494
804.945
796.745
789.021
781.905
775.525
770.009
765.473
762.017
759.723
758.646
778.742
780.396
783.464
787.866
793.497
800.224
807.904
816.382
825.499
835.097
845.024
855.131
865.279
875.336
885.185
894.71
903.799
912.336
920.207
927.297
933.496
938.701
942.826
945.799
947.57
948.112
947.416
945.492
942.371
938.104
932.764
926.441
919.238
911.267
902.644
893.483
883.902
874.014
863.938
853.795
843.721
833.859
824.36
815.38
807.08
799.619
793.151
787.819
783.749
781.042
779.77
779.966
781.626
784.704
789.121
794.77
801.517
809.218
817.715
826.849
836.46
846.394
856.5
866.639
876.676
886.493
895.973
905.001
913.462
921.238
928.217
934.287
939.349
943.316
946.122
947.72
948.086
947.214
945.118
941.832
937.411
931.93
925.483
918.173
910.113
901.417
892.2
882.576
872.66
862.566
852.416
842.344
832.49
823.006
814.045
805.765
798.325
791.878
786.564
782.509
779.812
778.545
795.9
797.783
801.271
806.273
812.66
820.283
828.972
838.551
848.836
859.646
870.804
882.139
893.489
904.702
915.641
926.177
936.184
945.54
954.124
961.823
968.528
974.14
978.576
981.767
983.666
984.245
983.494
981.424
978.065
973.468
967.703
960.854
953.023
944.319
934.858
924.761
914.153
903.162
891.921
880.571
869.268
858.179
847.478
837.345
827.965
819.521
812.191
806.141
801.517
798.439
796.991
797.214
799.103
802.603
807.62
814.026
821.67
830.381
839.98
850.282
861.104
872.268
883.599
894.936
906.123
917.025
927.509
937.448
946.718
955.201
962.78
969.348
974.81
979.082
982.101
983.821
984.217
983.284
981.037
977.507
972.75
966.837
959.857
951.91
943.108
933.566
923.405
912.749
901.723
890.459
879.098
867.794
856.713
846.026
835.912
826.554
818.133
810.825
804.794
800.186
797.119
795.677
810
812.083
815.938
821.461
828.51
836.914
846.487
857.031
868.344
880.226
892.481
904.919
917.359
929.632
941.585
953.072
963.955
974.101
983.385
991.69
998.905
1004.93
1009.69
1013.11
1015.14
1015.76
1014.95
1012.73
1009.12
1004.19
997.987
990.609
982.154
972.732
962.464
951.476
939.905
927.89
915.582
903.138
890.733
878.552
866.788
855.641
845.315
836.012
827.929
821.252
816.145
812.743
811.141
811.388
813.477
817.344
822.884
829.952
838.379
847.974
858.54
869.871
881.766
894.025
906.458
918.883
931.128
943.039
954.468
965.276
975.331
984.507
992.685
999.757
1005.63
1010.22
1013.46
1015.3
1015.73
1014.74
1012.33
1008.55
1003.44
997.087
989.571
980.994
971.467
961.111
950.053
938.428
926.374
914.041
901.584
889.178
877.004
865.255
854.128
843.824
834.544
826.485
819.829
814.739
811.349
809.753
820.795
823.038
827.189
833.132
840.711
849.743
860.027
871.348
883.492
896.244
909.393
922.737
936.085
949.251
962.068
974.375
986.022
996.867
1006.78
1015.63
1023.31
1029.73
1034.78
1038.42
1040.58
1041.23
1040.37
1038
1034.17
1028.91
1022.31
1014.45
1005.43
995.368
984.387
972.624
960.223
947.337
934.132
920.78
907.471
894.4
881.775
869.809
858.72
848.725
840.038
832.857
827.362
823.698
821.973
822.239
824.488
828.652
834.612
842.213
851.269
861.576
872.92
885.083
897.847
911.001
924.341
937.672
950.809
963.581
975.827
987.396
998.144
1007.94
1016.66
1024.2
1030.44
1035.33
1038.77
1040.74
1041.2
1040.14
1037.59
1033.57
1028.14
1021.38
1013.37
1004.23
994.054
982.981
971.143
958.685
945.758
932.526
919.162
905.85
892.787
880.178
868.232
857.167
847.198
838.535
831.376
825.898
822.248
820.529
828.015
830.372
834.734
840.975
848.931
858.408
869.193
881.064
893.795
907.162
920.947
934.941
948.945
962.769
976.229
989.153
1001.38
1012.76
1023.16
1032.44
1040.5
1047.21
1052.51
1056.32
1058.58
1059.26
1058.36
1055.88
1051.85
1046.35
1039.43
1031.18
1021.72
1011.16
999.637
987.284
974.26
960.727
946.864
932.857
918.899
905.196
891.962
879.417
867.789
857.306
848.19
840.652
834.88
831.031
829.217
829.497
831.861
836.235
842.494
850.472
859.974
870.784
882.678
895.428
908.809
922.601
936.591
950.579
964.372
977.786
990.648
1002.8
1014.08
1024.36
1033.5
1041.4
1047.95
1053.07
1056.69
1058.75
1059.23
1058.13
1055.45
1051.24
1045.55
1038.47
1030.08
1020.48
1009.81
998.19
985.76
972.676
959.102
945.213
931.192
917.234
903.539
890.321
877.798
866.195
855.738
846.647
839.131
833.378
829.542
827.735
831.611
834.028
838.498
844.892
853.041
862.744
873.783
885.928
898.951
912.622
926.721
941.036
955.366
969.52
983.306
996.545
1009.07
1020.73
1031.37
1040.87
1049.12
1055.99
1061.41
1065.31
1067.62
1068.32
1067.39
1064.85
1060.73
1055.1
1048.01
1039.57
1029.89
1019.08
1007.27
994.616
981.274
967.414
953.221
938.888
924.611
910.597
897.06
884.228
872.33
861.6
852.266
844.545
838.63
834.685
832.825
833.112
835.536
840.019
846.432
854.603
864.331
875.394
887.564
900.606
914.292
928.397
942.708
957.022
971.146
984.886
998.061
1010.5
1022.06
1032.58
1041.95
1050.04
1056.74
1061.98
1065.68
1067.79
1068.29
1067.16
1064.42
1060.11
1054.29
1047.04
1038.45
1028.63
1017.7
1005.8
993.07
979.668
965.766
951.547
937.202
922.924
908.918
895.398
882.587
870.715
860.011
850.703
843.004
837.109
833.176
831.324
)
;

boundaryField
{
    top
    {
        type            calculated;
        value           nonuniform List<scalar> 
102
(
831.882
834.333
838.862
845.339
853.586
863.401
874.562
886.837
899.993
913.8
928.035
942.487
956.956
971.254
985.182
998.559
1011.22
1023
1033.75
1043.36
1051.69
1058.64
1064.12
1068.06
1070.4
1071.11
1070.17
1067.6
1063.43
1057.73
1050.57
1042.04
1032.25
1021.32
1009.39
996.605
983.124
969.121
954.783
940.312
925.897
911.746
898.074
885.108
873.082
862.231
852.788
844.971
838.98
834.982
833.096
833.387
835.844
840.387
846.882
855.153
864.993
876.18
888.479
901.655
915.477
929.719
944.168
958.623
972.891
986.773
1000.09
1012.66
1024.34
1034.98
1044.44
1052.62
1059.4
1064.69
1068.44
1070.58
1071.08
1069.93
1067.16
1062.8
1056.92
1049.59
1040.91
1030.98
1019.94
1007.91
995.048
981.507
967.462
953.1
938.616
924.202
910.059
896.404
883.461
871.461
860.637
851.22
843.427
837.455
833.47
831.591
)
;
    }
    bottom
    {
        type            calculated;
        value           nonuniform List<scalar> 
102
(
-38.8558
-42.0782
-48.103
-56.8687
-68.3062
-82.3549
-98.9697
-118.11
-139.707
-163.631
-189.658
-217.455
-246.554
-276.322
-305.904
-334.26
-360.325
-383.198
-402.147
-416.793
-427.376
-434.436
-438.774
-441.219
-442.415
-442.74
-442.309
-440.981
-438.351
-433.749
-426.338
-415.33
-400.215
-380.8
-357.52
-331.129
-302.555
-272.886
-243.158
-214.206
-186.647
-160.936
-137.395
-116.235
-97.5797
-81.4909
-68.0097
-57.1834
-49.0738
-43.7477
-41.2606
-41.6436
-44.8912
-50.965
-59.8049
-71.344
-85.5241
-102.301
-121.632
-143.441
-167.586
-193.826
-221.807
-251.034
-280.837
-310.32
-338.413
-364.057
-386.374
-404.661
-418.645
-428.63
-435.21
-439.209
-441.437
-442.498
-442.724
-442.188
-440.707
-437.83
-432.851
-424.924
-413.297
-397.507
-377.452
-353.649
-326.877
-298.084
-268.354
-238.691
-209.884
-182.52
-157.026
-133.706
-112.754
-94.2838
-78.3504
-64.9939
-54.2633
-46.2228
-40.9411
-38.475
)
;
    }
    frontAndBack
    {
        type            empty;
    }
    left_cyc
    {
        type            cyclic;
    }
    right_cyc
    {
        type            cyclic;
    }
}


// ************************************************************************* //
