/*--------------------------------*- C++ -*----------------------------------*\
| =========                 |                                                 |
| \\      /  F ield         | OpenFOAM: The Open Source CFD Toolbox           |
|  \\    /   O peration     | Version:  2.3.0                                 |
|   \\  /    A nd           | Web:      www.OpenFOAM.org                      |
|    \\/     M anipulation  |                                                 |
\*---------------------------------------------------------------------------*/
FoamFile
{
    version     2.0;
    format      ascii;
    class       volScalarField;
    location    "15000";
    object      p;
}
// * * * * * * * * * * * * * * * * * * * * * * * * * * * * * * * * * * * * * //

dimensions      [0 2 -2 0 0 0 0];

internalField   nonuniform List<scalar> 
765
(
-1662.34
-1671.18
-1679.84
-1689.01
-1699.61
-1712.58
-1728.44
-1746.57
-1764.87
-1779.44
-1784.46
-1775.31
-1758.96
-1740.31
-1722.72
-1707.75
-1695.63
-1685.59
-1676.66
-1667.99
-1658.97
-1649.22
-1638.55
-1626.79
-1613.75
-1599.08
-1582.26
-1562.38
-1537.95
-1506.75
-1465.21
-1409.33
-1342.49
-1264.86
-1172.81
-1110.14
-1125.85
-1207.06
-1295.84
-1367.94
-1432.06
-1482.14
-1519.26
-1547.58
-1570.09
-1588.69
-1604.64
-1618.67
-1631.22
-1642.56
-1652.88
-1497.17
-1505.67
-1514.43
-1523.78
-1534.04
-1545.43
-1557.84
-1570.74
-1582.56
-1591.17
-1594.18
-1588.75
-1578.88
-1566.42
-1553.52
-1541.39
-1530.35
-1520.41
-1511.27
-1502.62
-1494.11
-1485.47
-1476.44
-1466.84
-1456.51
-1445.28
-1432.88
-1418.91
-1402.74
-1383.9
-1361.06
-1332.53
-1299.22
-1274.43
-1281.45
-1282.47
-1282.86
-1277.04
-1280.36
-1312.45
-1343.93
-1370.03
-1391.17
-1408.93
-1424.2
-1437.53
-1449.46
-1460.34
-1470.37
-1479.75
-1488.62
-1359.5
-1366.56
-1374.04
-1381.99
-1390.45
-1399.34
-1408.45
-1417.05
-1423.93
-1428.16
-1429.62
-1426.99
-1421.92
-1414.28
-1405.37
-1396.3
-1387.53
-1379.23
-1371.42
-1364.08
-1357.13
-1350.47
-1343.97
-1337.48
-1330.95
-1324.34
-1317.67
-1310.96
-1304.29
-1297.8
-1284.64
-1268.29
-1248.15
-1212.77
-1204.32
-1203.23
-1203.65
-1205.23
-1224.28
-1257.41
-1273.29
-1290.83
-1300.12
-1306.57
-1313.29
-1319.99
-1326.65
-1333.24
-1339.75
-1346.23
-1352.76
-1236.96
-1241.95
-1247.23
-1252.74
-1258.39
-1264.09
-1269.62
-1274.2
-1276.99
-1277.91
-1278.14
-1277.72
-1276.33
-1272.87
-1267.87
-1262.23
-1256.53
-1250.92
-1245.47
-1240.27
-1235.4
-1230.87
-1226.71
-1222.85
-1219.26
-1215.86
-1212.6
-1209.33
-1205.86
-1201.91
-1187.26
-1161.64
-1139.44
-1130.01
-1123.03
-1117.63
-1119.06
-1125.62
-1133.07
-1143.21
-1172.01
-1194.82
-1203.34
-1206.97
-1210.36
-1213.61
-1216.92
-1220.39
-1224.07
-1228.02
-1232.31
-1118.02
-1120.84
-1123.76
-1126.71
-1129.63
-1132.52
-1135.14
-1136.89
-1137.16
-1136.17
-1135.62
-1136.58
-1137.32
-1136.52
-1134.41
-1131.65
-1128.74
-1125.8
-1122.86
-1119.97
-1117.21
-1114.67
-1112.38
-1110.32
-1108.42
-1106.52
-1104.37
-1101.69
-1098.12
-1093.89
-1084.03
-1063.17
-1030.52
-1022.74
-1022.95
-1021.61
-1022.05
-1022.97
-1024.53
-1038.28
-1072.51
-1089.36
-1095.39
-1099.41
-1102.6
-1105.03
-1107.06
-1108.93
-1110.88
-1113.01
-1115.39
-996.822
-997.812
-998.76
-999.638
-1000.45
-1001.16
-1001.6
-1001.38
-1000.12
-998.059
-997.075
-998.818
-1000.75
-1001.65
-1001.6
-1001.04
-1000.28
-999.45
-998.551
-997.589
-996.603
-995.643
-994.748
-993.905
-993.032
-991.962
-990.465
-988.282
-985.144
-981.251
-974.955
-962.127
-936.113
-931.8
-933.139
-932.688
-932.91
-932.382
-933.062
-943.932
-967.12
-978.092
-982.606
-986.293
-989.035
-990.928
-992.237
-993.21
-994.059
-994.918
-995.842
-871.264
-870.864
-870.358
-869.766
-869.087
-868.231
-867.074
-865.388
-863.005
-860.263
-859.089
-861.232
-863.97
-866.129
-867.61
-868.638
-869.415
-870.064
-870.632
-871.109
-871.477
-871.743
-871.919
-871.999
-871.931
-871.61
-870.893
-869.64
-867.745
-865.41
-862.071
-857.45
-847.603
-846.937
-846.521
-845.845
-846.095
-846.53
-847.808
-850.109
-858.471
-863.504
-866.165
-868.411
-870.058
-871.096
-871.651
-871.867
-871.875
-871.761
-871.558
-741.099
-739.702
-738.194
-736.58
-734.812
-732.776
-730.355
-727.443
-724.112
-720.924
-719.688
-721.999
-725.339
-728.568
-731.308
-733.57
-735.501
-737.209
-738.789
-740.264
-741.623
-742.848
-743.932
-744.865
-745.613
-746.133
-746.39
-746.374
-746.151
-745.984
-745.323
-748.629
-761.347
-765.908
-762.942
-761.209
-761.623
-764.76
-766.78
-754.162
-746.327
-745.702
-746.03
-746.223
-746.367
-746.274
-745.915
-745.306
-744.488
-743.501
-742.369
-606.977
-604.822
-602.539
-600.085
-597.372
-594.295
-590.742
-586.745
-582.612
-579.139
-577.878
-580.253
-584.032
-588.19
-592.052
-595.431
-598.375
-600.989
-603.379
-605.615
-607.733
-609.749
-611.674
-613.513
-615.252
-616.889
-618.482
-620.135
-622.064
-624.579
-626.892
-638.723
-675.233
-684.622
-679.34
-676.733
-677.327
-683.289
-686.292
-658.284
-633.407
-626.345
-623.815
-621.404
-619.565
-617.923
-616.313
-614.636
-612.857
-610.984
-609.027
-469.841
-466.931
-463.872
-460.565
-456.898
-452.762
-448.109
-443.103
-438.25
-434.518
-433.212
-435.639
-439.818
-444.814
-449.736
-454.221
-458.193
-461.728
-464.941
-467.94
-470.816
-473.642
-476.494
-479.432
-482.468
-485.636
-489.061
-492.921
-497.576
-503.385
-510.143
-533.256
-590.201
-600.197
-592.899
-590.711
-591.053
-596.913
-599.134
-562.875
-523.184
-507.48
-501.445
-495.928
-491.588
-487.881
-484.555
-481.436
-478.429
-475.518
-472.679
-331.352
-327.439
-323.364
-318.985
-314.163
-308.802
-302.927
-296.822
-291.15
-287.019
-285.604
-288.16
-292.873
-298.793
-304.875
-310.6
-315.782
-320.448
-324.713
-328.719
-332.608
-336.516
-340.605
-345.041
-349.866
-355.148
-361.115
-368.044
-376.505
-386.725
-399.545
-426.642
-492.221
-506.49
-502.124
-502.583
-502.247
-503.1
-504.423
-471.147
-415.666
-393.764
-383.073
-373.419
-365.627
-359.063
-353.368
-348.261
-343.569
-339.254
-335.241
-195.389
-189.956
-184.411
-178.561
-172.232
-165.328
-157.916
-150.377
-143.517
-138.619
-136.95
-139.855
-145.482
-152.685
-160.255
-167.534
-174.257
-180.42
-186.156
-191.645
-197.086
-202.677
-208.67
-215.309
-222.619
-230.659
-239.621
-249.322
-259.295
-267.525
-283.519
-319.229
-383.117
-402.49
-410.21
-415.361
-414.138
-407.355
-399.28
-362.778
-301.609
-276.019
-265.506
-256.074
-246.175
-236.638
-228.007
-220.237
-213.152
-206.737
-200.908
-68.0947
-60.2134
-52.1074
-43.6139
-34.6029
-25.0313
-15.0509
-5.15542
3.69013
9.99031
12.1517
8.51692
1.28394
-8.04046
-18.0548
-27.9535
-37.3641
-46.2113
-54.5755
-62.6009
-70.4581
-78.3621
-86.8367
-96.5515
-107.141
-117.707
-127.687
-135.321
-140.982
-143.868
-157.66
-210.204
-275.767
-311.326
-333.341
-343.749
-341.326
-326.258
-300.177
-254.032
-185.514
-147.191
-144.133
-138.925
-133.377
-124.652
-114.426
-103.832
-93.4333
-84.1419
-75.9432
23.5427
33.1645
42.9053
52.9647
63.6122
75.0895
87.4403
100.229
112.227
121.174
124.381
119.143
109.018
96.5387
83.7598
71.632
60.4101
49.9592
40.0121
30.3099
20.6985
11.2895
2.35432
-5.54025
-11.6719
-15.1606
-15.9217
-15.4401
-20.105
-35.2613
-66.0655
-118.394
-169.719
-202.339
-223.608
-233.571
-231.267
-216.965
-191.823
-153.034
-96.5296
-53.1163
-29.2771
-17.4998
-15.8785
-16.1604
-14.5747
-10.1387
-3.34144
4.9501
14.0594
74.0023
69.2119
63.4577
56.7437
48.9379
39.857
29.4222
17.9189
6.42007
-2.82204
-5.87252
-0.61877
9.80192
21.5582
32.8509
42.8926
51.568
59.0178
65.4264
70.8899
75.3653
78.9147
82.4376
85.9742
86.3503
81.9243
71.7529
53.5614
21.8792
-29.5276
-104.166
-193.51
-282.473
-354.024
-404.541
-428.757
-423.181
-388.791
-330.031
-251.644
-159.7
-75.8126
-9.24363
34.7158
60.7189
75.8053
83.866
86.6878
85.0353
81.2067
77.8088
)
;

boundaryField
{
    top
    {
        type            calculated;
        value           uniform -9.81;
    }
    bottom
    {
        type            calculated;
        value           nonuniform List<scalar> 
51
(
-1753.35
-1762.32
-1770.87
-1779.81
-1790.23
-1803.32
-1819.78
-1838.56
-1857.73
-1873.48
-1879.15
-1868.92
-1851.47
-1832.01
-1813.78
-1798.37
-1786.26
-1776.45
-1767.74
-1759.11
-1749.85
-1739.67
-1728.44
-1715.99
-1702.1
-1686.39
-1668.26
-1646.75
-1620.29
-1586.6
-1542.06
-1482.49
-1412.27
-1332.12
-1238.31
-1174.88
-1190.79
-1273.1
-1363.94
-1438.84
-1506.69
-1560.17
-1600.09
-1630.73
-1655.12
-1675.22
-1692.37
-1707.36
-1720.69
-1732.67
-1743.51
)
;
    }
    frontAndBack
    {
        type            empty;
    }
    left_cyc
    {
        type            cyclic;
    }
    right_cyc
    {
        type            cyclic;
    }
}


// ************************************************************************* //
