/*--------------------------------*- C++ -*----------------------------------*\
| =========                 |                                                 |
| \\      /  F ield         | OpenFOAM: The Open Source CFD Toolbox           |
|  \\    /   O peration     | Version:  2.3.0                                 |
|   \\  /    A nd           | Web:      www.OpenFOAM.org                      |
|    \\/     M anipulation  |                                                 |
\*---------------------------------------------------------------------------*/
FoamFile
{
    version     2.0;
    format      ascii;
    class       volScalarField;
    location    "15000";
    object      p;
}
// * * * * * * * * * * * * * * * * * * * * * * * * * * * * * * * * * * * * * //

dimensions      [0 2 -2 0 0 0 0];

internalField   nonuniform List<scalar> 
3060
(
-926.899
-930.987
-938.494
-949.017
-961.983
-976.761
-992.926
-1010.72
-1031.38
-1056.52
-1086.95
-1121.81
-1159.44
-1198.15
-1236.18
-1271.89
-1303.98
-1331.64
-1353.99
-1370.13
-1380.45
-1385.94
-1388.02
-1388.21
-1387.78
-1387.5
-1387.62
-1387.91
-1387.6
-1385.46
-1379.96
-1369.67
-1353.56
-1331.23
-1303.54
-1271.38
-1235.61
-1197.55
-1158.9
-1121.46
-1086.91
-1056.88
-1032.07
-1011.67
-994.132
-978.324
-964.041
-951.708
-941.936
-935.262
-932.057
-932.5
-936.564
-944.026
-954.469
-967.326
-981.998
-998.166
-1016.25
-1037.59
-1063.65
-1094.88
-1130.28
-1168.19
-1206.86
-1244.52
-1279.53
-1310.66
-1337.16
-1358.03
-1372.65
-1381.67
-1386.22
-1387.77
-1387.84
-1387.54
-1387.51
-1387.87
-1388.23
-1387.7
-1384.94
-1378.39
-1366.74
-1349.06
-1325.31
-1296.52
-1263.45
-1227.04
-1188.69
-1150.1
-1112.98
-1079.05
-1049.9
-1025.99
-1006.18
-988.852
-973.011
-958.62
-946.191
-936.359
-929.658
-926.448
-988.153
-987.968
-987.626
-987.178
-986.824
-987.104
-989.153
-994.836
-1006.26
-1024.49
-1048.66
-1076.62
-1106.3
-1136.07
-1164.39
-1190.36
-1215.02
-1239.14
-1260.51
-1276.3
-1286.55
-1292.43
-1295.31
-1296.41
-1296.68
-1296.67
-1296.57
-1296.19
-1295.01
-1292.1
-1286.22
-1276.02
-1260.32
-1239.01
-1214.86
-1190.15
-1164.19
-1135.95
-1106.34
-1076.9
-1049.33
-1025.7
-1008.03
-997.051
-991.652
-989.756
-989.554
-989.949
-990.418
-990.763
-990.93
-990.905
-990.69
-990.304
-989.823
-989.504
-989.984
-992.531
-999.094
-1011.65
-1030.91
-1055.7
-1083.9
-1113.52
-1142.95
-1170.66
-1196.17
-1220.78
-1244.55
-1264.67
-1278.93
-1287.97
-1293.01
-1295.4
-1296.31
-1296.58
-1296.66
-1296.63
-1296.22
-1294.78
-1291.3
-1284.47
-1272.98
-1255.72
-1233.36
-1209.02
-1184.2
-1157.68
-1128.88
-1099
-1069.58
-1042.33
-1019.44
-1002.87
-993.018
-988.422
-986.948
-986.898
-987.304
-987.732
-988.034
-988.176
-950.218
-950.828
-952.052
-954.045
-957.074
-961.548
-968.018
-977.104
-989.267
-1004.47
-1021.99
-1040.83
-1060.26
-1080.05
-1100.52
-1122.31
-1145.23
-1166.35
-1182.91
-1195.43
-1204.45
-1209.19
-1210.87
-1211.08
-1210.85
-1210.68
-1210.75
-1210.88
-1210.6
-1208.91
-1204.23
-1195.29
-1182.83
-1166.42
-1145.47
-1122.69
-1101.03
-1080.75
-1061.17
-1041.99
-1023.43
-1006.21
-991.335
-979.453
-970.589
-964.288
-959.947
-957.028
-955.135
-954.01
-953.509
-953.575
-954.215
-955.504
-957.612
-960.829
-965.586
-972.448
-982.01
-994.643
-1010.17
-1027.8
-1046.56
-1065.85
-1085.54
-1106.1
-1128.14
-1150.84
-1170.81
-1186.14
-1197.81
-1205.71
-1209.51
-1210.73
-1210.84
-1210.69
-1210.68
-1210.89
-1211.07
-1210.61
-1208.35
-1202.62
-1192.65
-1179.28
-1161.55
-1139.65
-1116.85
-1095.44
-1075.19
-1055.5
-1036.17
-1017.57
-1000.52
-986.027
-974.637
-966.242
-960.314
-956.236
-953.489
-951.7
-950.631
-950.155
-893.505
-894.531
-896.528
-899.62
-904.012
-909.996
-917.92
-928.082
-940.527
-954.855
-970.313
-986.154
-1001.98
-1017.71
-1033.52
-1049.77
-1066.68
-1083.27
-1098.69
-1111.82
-1120.22
-1124.9
-1126.08
-1125.43
-1124.59
-1124.21
-1124.49
-1125.25
-1125.88
-1124.77
-1120.21
-1112.01
-1099.12
-1083.87
-1067.44
-1050.64
-1034.49
-1018.8
-1003.21
-987.54
-971.876
-956.621
-942.516
-930.287
-920.319
-912.565
-906.735
-902.493
-899.555
-897.725
-896.889
-897.001
-898.066
-900.146
-903.374
-907.967
-914.226
-922.49
-933.013
-945.748
-960.205
-975.616
-991.304
-1006.95
-1022.54
-1038.3
-1054.63
-1071.48
-1087.64
-1102.55
-1114.41
-1121.59
-1125.31
-1125.78
-1125.02
-1124.34
-1124.22
-1124.73
-1125.62
-1126.03
-1124.06
-1118.56
-1108.99
-1095.03
-1079.33
-1062.53
-1045.75
-1029.65
-1013.89
-998.144
-982.3
-966.502
-951.241
-937.314
-925.408
-915.808
-908.388
-902.821
-898.766
-895.954
-894.199
-893.396
-846.864
-847.909
-849.928
-853.006
-857.274
-862.903
-870.081
-878.96
-889.559
-901.685
-914.934
-928.834
-942.991
-957.113
-970.965
-984.316
-996.999
-1009.09
-1020.98
-1031.48
-1038.53
-1041.94
-1041.75
-1039.96
-1038.41
-1037.82
-1038.32
-1039.8
-1041.6
-1041.93
-1038.79
-1031.99
-1021.7
-1009.87
-997.823
-985.181
-971.886
-958.113
-944.093
-930.062
-916.31
-903.229
-891.284
-880.863
-872.153
-865.133
-859.657
-855.542
-852.625
-850.781
-849.932
-850.046
-851.126
-853.217
-856.407
-860.83
-866.66
-874.074
-883.2
-894.015
-906.274
-919.558
-933.41
-947.462
-961.442
-975.122
-988.271
-1000.75
-1012.71
-1024.43
-1033.93
-1039.89
-1042.09
-1041.19
-1039.35
-1038.08
-1037.84
-1038.69
-1040.4
-1042
-1041.46
-1037.12
-1029.21
-1018.1
-1006.18
-993.976
-981.126
-967.635
-953.698
-939.546
-925.423
-911.642
-898.622
-886.839
-876.65
-868.194
-861.409
-856.127
-852.161
-849.349
-847.57
-846.752
-804.035
-805.133
-807.238
-810.399
-814.69
-820.198
-827.007
-835.154
-844.587
-855.122
-866.464
-878.279
-890.273
-902.211
-913.898
-925.126
-935.612
-944.94
-952.723
-958.792
-962.821
-963.145
-960.137
-955.565
-952.463
-951.532
-952.369
-955.37
-960.01
-963.262
-963.229
-959.379
-953.368
-945.636
-936.359
-925.922
-914.749
-903.132
-891.277
-879.383
-867.683
-856.471
-846.076
-836.789
-828.788
-822.126
-816.767
-812.634
-809.643
-807.726
-806.838
-806.957
-808.087
-810.255
-813.51
-817.928
-823.592
-830.575
-838.894
-848.468
-859.089
-870.448
-882.218
-894.122
-905.937
-917.469
-928.495
-938.697
-947.628
-954.948
-960.555
-963.578
-962.687
-958.891
-954.393
-951.976
-951.571
-952.967
-956.632
-961.067
-963.406
-962.13
-957.452
-950.98
-942.8
-933.149
-922.451
-911.091
-899.328
-887.358
-875.385
-863.657
-852.481
-842.191
-833.06
-825.237
-818.75
-813.545
-809.535
-806.636
-804.778
-803.917
-764.658
-765.753
-767.834
-770.922
-775.043
-780.226
-786.484
-793.796
-802.081
-811.18
-820.866
-830.886
-840.998
-850.986
-860.647
-869.773
-878.122
-885.386
-891.18
-894.962
-895.878
-892.386
-884.611
-875.71
-869.338
-867.389
-869.187
-875.447
-884.457
-892.51
-896.254
-895.472
-891.756
-886.009
-878.785
-870.473
-861.39
-851.781
-841.856
-831.819
-821.887
-812.301
-803.313
-795.148
-787.962
-781.838
-776.799
-772.835
-769.92
-768.03
-767.148
-767.267
-768.387
-770.519
-773.682
-777.901
-783.198
-789.58
-797.011
-805.39
-814.543
-824.235
-834.213
-844.242
-854.108
-863.611
-872.533
-880.614
-887.521
-892.835
-895.96
-895.772
-890.853
-882.178
-873.53
-868.358
-867.486
-870.45
-877.738
-886.744
-893.661
-895.997
-894.252
-889.927
-883.736
-876.177
-867.616
-858.34
-848.583
-838.547
-828.437
-818.476
-808.91
-799.991
-791.931
-784.871
-778.873
-773.95
-770.082
-767.24
-765.398
-764.541
-727.569
-728.637
-730.657
-733.621
-737.522
-742.342
-748.049
-754.58
-761.836
-769.669
-777.892
-786.3
-794.693
-802.877
-810.665
-817.855
-824.221
-829.487
-833.315
-835.237
-834.531
-829.413
-818.119
-804.106
-793.599
-789.865
-793.362
-803.754
-817.898
-829.501
-834.86
-835.667
-833.799
-830.007
-824.772
-818.435
-811.276
-803.525
-795.386
-787.047
-778.702
-770.555
-762.809
-755.651
-749.229
-743.645
-738.961
-735.214
-732.421
-730.593
-729.736
-729.852
-730.94
-732.998
-736.019
-739.992
-744.894
-750.686
-757.294
-764.608
-772.468
-780.681
-789.041
-797.349
-805.411
-813.038
-820.022
-826.121
-831.042
-834.419
-835.732
-834.059
-827.195
-814.434
-800.688
-791.826
-790.083
-795.56
-807.372
-821.312
-831.201
-835.004
-834.969
-832.534
-828.321
-822.762
-816.174
-808.82
-800.919
-792.668
-784.254
-775.872
-767.725
-760.017
-752.926
-746.587
-741.091
-736.492
-732.817
-730.081
-728.291
-727.453
-691.897
-692.924
-694.852
-697.659
-701.306
-705.746
-710.912
-716.716
-723.045
-729.757
-736.688
-743.665
-750.513
-757.065
-763.15
-768.589
-773.181
-776.684
-778.795
-779.098
-776.995
-771.287
-759.724
-743.426
-729.66
-724.41
-729.369
-743.019
-759.497
-771.37
-777.251
-779.431
-779.172
-777.09
-773.609
-769.036
-763.616
-757.553
-751.03
-744.216
-737.284
-730.407
-723.762
-717.513
-711.803
-706.748
-702.437
-698.937
-696.3
-694.559
-693.738
-693.849
-694.89
-696.847
-699.694
-703.392
-707.887
-713.107
-718.956
-725.314
-732.03
-738.935
-745.854
-752.612
-759.039
-764.964
-770.199
-774.533
-777.707
-779.393
-779.13
-776.217
-769.095
-755.682
-739.135
-727.243
-724.739
-732.337
-747.443
-763.123
-773.107
-777.764
-779.211
-778.424
-775.944
-772.153
-767.336
-761.723
-755.509
-748.871
-741.976
-734.995
-728.101
-721.468
-715.255
-709.596
-704.599
-700.346
-696.899
-694.303
-692.591
-691.786
-657.042
-658.014
-659.831
-662.455
-665.829
-669.881
-674.523
-679.648
-685.135
-690.845
-696.629
-702.333
-707.806
-712.9
-717.465
-721.348
-724.379
-726.358
-727.037
-726.079
-723.005
-717.041
-706.759
-691.983
-678.153
-672.452
-677.869
-691.627
-706.597
-717.101
-723.181
-726.314
-727.305
-726.645
-724.679
-721.656
-717.781
-713.225
-708.145
-702.691
-697.013
-691.266
-685.605
-680.182
-675.137
-670.596
-666.664
-663.431
-660.969
-659.333
-658.559
-658.664
-659.646
-661.482
-664.133
-667.54
-671.625
-676.297
-681.443
-686.935
-692.63
-698.374
-704.011
-709.388
-714.355
-718.761
-722.447
-725.234
-726.91
-727.207
-725.751
-721.999
-715.007
-703.254
-687.863
-675.584
-672.821
-680.97
-695.764
-709.716
-718.808
-723.971
-726.478
-727.002
-725.982
-723.728
-720.474
-716.411
-711.703
-706.505
-700.962
-695.225
-689.445
-683.775
-678.364
-673.346
-668.839
-664.944
-661.746
-659.314
-657.699
-656.936
-622.606
-623.512
-625.2
-627.62
-630.702
-634.358
-638.486
-642.969
-647.679
-652.481
-657.236
-661.804
-666.053
-669.853
-673.077
-675.599
-677.283
-677.977
-677.498
-675.604
-671.969
-666.132
-657.412
-645.746
-634.464
-629.549
-634.246
-645.504
-657.309
-666.163
-672.073
-675.746
-677.66
-678.148
-677.456
-675.77
-673.246
-670.019
-666.219
-661.974
-657.417
-652.684
-647.917
-643.257
-638.842
-634.803
-631.257
-628.307
-626.041
-624.525
-623.806
-623.903
-624.816
-626.515
-628.951
-632.051
-635.724
-639.864
-644.348
-649.046
-653.817
-658.519
-663.013
-667.161
-670.835
-673.903
-676.238
-677.698
-678.124
-677.316
-675.013
-670.85
-664.3
-654.653
-642.494
-632.292
-629.874
-636.827
-648.731
-659.818
-667.775
-673.026
-676.203
-677.728
-677.904
-676.954
-675.054
-672.35
-668.974
-665.054
-660.716
-656.089
-651.31
-646.518
-641.851
-637.444
-633.42
-629.895
-626.967
-624.719
-623.218
-622.507
-588.36
-589.189
-590.728
-592.92
-595.687
-598.933
-602.546
-606.405
-610.38
-614.341
-618.157
-621.701
-624.855
-627.508
-629.554
-630.895
-631.432
-631.061
-629.663
-627.095
-623.18
-617.707
-610.469
-601.708
-593.507
-589.9
-593.369
-601.564
-610.4
-617.707
-623.219
-627.153
-629.726
-631.121
-631.485
-630.937
-629.583
-627.524
-624.859
-621.698
-618.153
-614.346
-610.406
-606.468
-602.665
-599.128
-595.982
-593.336
-591.286
-589.907
-589.25
-589.34
-590.172
-591.716
-593.916
-596.69
-599.94
-603.551
-607.397
-611.347
-615.266
-619.02
-622.483
-625.535
-628.062
-629.96
-631.128
-631.466
-630.864
-629.199
-626.315
-622.022
-616.094
-608.351
-599.374
-591.932
-590.137
-595.23
-603.896
-612.383
-619.182
-624.258
-627.828
-630.097
-631.235
-631.375
-630.634
-629.113
-626.91
-624.126
-620.867
-617.245
-613.382
-609.406
-605.447
-601.636
-598.102
-594.963
-592.328
-590.29
-588.92
-588.269
-554.198
-554.938
-556.305
-558.241
-560.664
-563.473
-566.556
-569.791
-573.052
-576.213
-579.153
-581.757
-583.92
-585.548
-586.556
-586.873
-586.436
-585.185
-583.063
-580.014
-575.984
-570.947
-564.967
-558.437
-552.715
-550.264
-552.638
-558.352
-564.913
-570.918
-575.966
-579.995
-583.037
-585.146
-586.38
-586.797
-586.458
-585.427
-583.778
-581.597
-578.982
-576.04
-572.889
-569.653
-566.462
-563.443
-560.72
-558.405
-556.597
-555.374
-554.789
-554.869
-555.609
-556.978
-558.915
-561.336
-564.141
-567.211
-570.424
-573.65
-576.761
-579.634
-582.153
-584.214
-585.721
-586.591
-586.753
-586.143
-584.703
-582.374
-579.098
-574.824
-569.534
-563.335
-556.801
-551.652
-550.422
-553.898
-560.014
-566.486
-572.254
-577.048
-580.836
-583.655
-585.56
-586.609
-586.857
-586.365
-585.2
-583.433
-581.154
-578.458
-575.454
-572.257
-568.991
-565.782
-562.755
-560.03
-557.719
-555.915
-554.697
-554.116
-520.105
-520.742
-521.912
-523.557
-525.597
-527.933
-530.456
-533.048
-535.592
-537.969
-540.07
-541.79
-543.039
-543.738
-543.823
-543.247
-541.978
-539.995
-537.297
-533.896
-529.833
-525.204
-520.208
-515.264
-511.265
-509.627
-511.222
-515.209
-520.154
-525.147
-529.765
-533.812
-537.193
-539.869
-541.826
-543.068
-543.615
-543.5
-542.772
-541.497
-539.757
-537.645
-535.267
-532.738
-530.177
-527.704
-525.439
-523.491
-521.955
-520.91
-520.409
-520.477
-521.112
-522.28
-523.922
-525.955
-528.28
-530.784
-533.347
-535.85
-538.174
-540.205
-541.841
-542.99
-543.575
-543.533
-542.821
-541.407
-539.276
-536.428
-532.88
-528.684
-523.952
-518.921
-514.101
-510.556
-509.73
-512.071
-516.416
-521.431
-526.365
-530.87
-534.778
-538.011
-540.536
-542.343
-543.442
-543.854
-543.615
-542.775
-541.403
-539.582
-537.404
-534.976
-532.41
-529.824
-527.337
-525.064
-523.113
-521.578
-520.534
-520.035
-486.134
-486.65
-487.593
-488.908
-490.518
-492.333
-494.25
-496.164
-497.968
-499.555
-500.827
-501.695
-502.081
-501.92
-501.167
-499.797
-497.805
-495.205
-492.036
-488.365
-484.299
-480.003
-475.733
-471.868
-468.988
-467.868
-468.96
-471.823
-475.671
-479.919
-484.189
-488.227
-491.868
-495.007
-497.575
-499.533
-500.868
-501.586
-501.712
-501.295
-500.4
-499.108
-497.511
-495.712
-493.816
-491.934
-490.173
-488.635
-487.408
-486.566
-486.161
-486.216
-486.73
-487.669
-488.977
-490.578
-492.377
-494.272
-496.154
-497.913
-499.445
-500.649
-501.435
-501.726
-501.461
-500.595
-499.109
-497.001
-494.29
-491.022
-487.273
-483.162
-478.87
-474.679
-471.007
-468.5
-467.937
-469.552
-472.737
-476.744
-481.05
-485.308
-489.29
-492.847
-495.883
-498.337
-500.178
-501.397
-502.002
-502.025
-501.515
-500.541
-499.184
-497.535
-495.696
-493.771
-491.87
-490.097
-488.552
-487.323
-486.481
-486.076
-452.385
-452.762
-453.445
-454.383
-455.51
-456.744
-457.999
-459.183
-460.204
-460.973
-461.406
-461.428
-460.975
-459.997
-458.465
-456.374
-453.738
-450.602
-447.034
-443.141
-439.069
-435.021
-431.258
-428.099
-425.913
-425.106
-425.891
-428.054
-431.184
-434.913
-438.926
-442.961
-446.818
-450.349
-453.448
-456.045
-458.098
-459.591
-460.531
-460.948
-460.894
-460.436
-459.649
-458.621
-457.442
-456.206
-455.005
-453.928
-453.053
-452.444
-452.148
-452.189
-452.563
-453.241
-454.171
-455.285
-456.502
-457.733
-458.884
-459.862
-460.577
-460.945
-460.89
-460.35
-459.279
-457.65
-455.463
-452.739
-449.527
-445.906
-441.991
-437.94
-433.97
-430.356
-427.423
-425.558
-425.155
-426.33
-428.788
-432.125
-435.984
-440.059
-444.102
-447.928
-451.398
-454.417
-456.923
-458.878
-460.273
-461.12
-461.452
-461.324
-460.802
-459.964
-458.896
-457.687
-456.43
-455.215
-454.129
-453.249
-452.638
-452.342
-418.999
-419.217
-419.603
-420.114
-420.695
-421.283
-421.808
-422.198
-422.382
-422.288
-421.85
-421.01
-419.719
-417.942
-415.664
-412.897
-409.672
-406.052
-402.13
-398.035
-393.937
-390.049
-386.617
-383.898
-382.126
-381.497
-382.103
-383.849
-386.533
-389.924
-393.77
-397.826
-401.88
-405.762
-409.342
-412.526
-415.254
-417.49
-419.228
-420.481
-421.286
-421.692
-421.761
-421.56
-421.161
-420.638
-420.062
-419.504
-419.026
-418.683
-418.513
-418.537
-418.751
-419.131
-419.634
-420.202
-420.772
-421.272
-421.63
-421.773
-421.629
-421.131
-420.223
-418.855
-416.997
-414.64
-411.798
-408.51
-404.847
-400.91
-396.838
-392.811
-389.052
-385.809
-383.332
-381.845
-381.537
-382.457
-384.478
-387.392
-390.956
-394.916
-399.03
-403.096
-406.954
-410.484
-413.601
-416.251
-418.406
-420.063
-421.241
-421.978
-422.327
-422.348
-422.108
-421.68
-421.134
-420.543
-419.975
-419.491
-419.145
-418.974
-386.155
-386.192
-386.241
-386.271
-386.242
-386.112
-385.832
-385.356
-384.634
-383.618
-382.262
-380.526
-378.377
-375.794
-372.779
-369.354
-365.565
-361.489
-357.232
-352.936
-348.78
-344.973
-341.736
-339.273
-337.731
-337.198
-337.706
-339.218
-341.644
-344.838
-348.601
-352.713
-356.966
-361.182
-365.218
-368.966
-372.351
-375.326
-377.869
-379.98
-381.679
-383
-383.984
-384.678
-385.13
-385.391
-385.51
-385.532
-385.503
-385.461
-385.434
-385.438
-385.472
-385.515
-385.535
-385.494
-385.346
-385.044
-384.538
-383.779
-382.718
-381.31
-379.514
-377.3
-374.652
-371.575
-368.096
-364.27
-360.179
-355.939
-351.702
-347.654
-344.008
-340.983
-338.767
-337.491
-337.234
-338.016
-339.791
-342.456
-345.85
-349.761
-353.967
-358.267
-362.491
-366.505
-370.21
-373.537
-376.448
-378.924
-380.971
-382.612
-383.881
-384.822
-385.481
-385.906
-386.146
-386.249
-386.261
-386.225
-386.179
-386.15
-354.064
-353.898
-353.57
-353.064
-352.359
-351.437
-350.275
-348.853
-347.149
-345.14
-342.803
-340.119
-337.071
-333.656
-329.889
-325.801
-321.451
-316.921
-312.328
-307.817
-303.566
-299.77
-296.624
-294.289
-292.861
-292.375
-292.835
-294.232
-296.53
-299.634
-303.386
-307.595
-312.064
-316.617
-321.108
-325.421
-329.471
-333.201
-336.578
-339.588
-342.235
-344.534
-346.504
-348.169
-349.552
-350.675
-351.559
-352.225
-352.696
-352.989
-353.122
-353.105
-352.935
-352.602
-352.087
-351.371
-350.432
-349.249
-347.801
-346.065
-344.018
-341.637
-338.904
-335.805
-332.341
-328.53
-324.41
-320.045
-315.526
-310.978
-306.554
-302.436
-298.823
-295.901
-293.814
-292.641
-292.41
-293.124
-294.776
-297.318
-300.636
-304.559
-308.89
-313.434
-318.023
-322.517
-326.809
-330.822
-334.505
-337.831
-340.79
-343.389
-345.645
-347.578
-349.213
-350.57
-351.673
-352.543
-353.199
-353.662
-353.95
-354.081
-322.968
-322.578
-321.836
-320.741
-319.297
-317.509
-315.386
-312.937
-310.169
-307.088
-303.696
-299.997
-295.996
-291.704
-287.149
-282.372
-277.44
-272.441
-267.493
-262.741
-258.353
-254.51
-251.377
-249.084
-247.698
-247.229
-247.672
-249.029
-251.287
-254.382
-258.186
-262.534
-267.249
-272.161
-277.126
-282.025
-286.768
-291.291
-295.55
-299.516
-303.178
-306.528
-309.565
-312.283
-314.676
-316.738
-318.458
-319.83
-320.848
-321.511
-321.82
-321.779
-321.386
-320.639
-319.537
-318.082
-316.279
-314.138
-311.666
-308.872
-305.76
-302.334
-298.598
-294.56
-290.235
-285.654
-280.866
-275.941
-270.977
-266.097
-261.454
-257.22
-253.572
-250.67
-248.625
-247.488
-247.264
-247.954
-249.562
-252.065
-255.382
-259.372
-263.863
-268.675
-273.646
-278.638
-283.538
-288.265
-292.759
-296.982
-300.911
-304.536
-307.853
-310.86
-313.552
-315.923
-317.967
-319.673
-321.034
-322.045
-322.703
-323.009
-293.133
-292.501
-291.312
-289.583
-287.342
-284.622
-281.464
-277.909
-273.996
-269.761
-265.236
-260.448
-255.425
-250.195
-244.801
-239.292
-233.741
-228.24
-222.905
-217.877
-213.311
-209.368
-206.19
-203.881
-202.491
-202.022
-202.468
-203.832
-206.112
-209.258
-213.168
-217.702
-222.699
-228.004
-233.478
-239.003
-244.486
-249.854
-255.056
-260.048
-264.8
-269.283
-273.466
-277.318
-280.8
-283.872
-286.494
-288.625
-290.234
-291.296
-291.796
-291.728
-291.094
-289.901
-288.165
-285.914
-283.181
-280.008
-276.434
-272.5
-268.242
-263.692
-258.88
-253.834
-248.588
-243.187
-237.687
-232.164
-226.719
-221.473
-216.572
-212.174
-208.436
-205.49
-203.428
-202.285
-202.06
-202.75
-204.363
-206.887
-210.26
-214.367
-219.057
-224.172
-229.558
-235.08
-240.627
-246.113
-251.471
-256.654
-261.623
-266.35
-270.808
-274.969
-278.799
-282.263
-285.319
-287.927
-290.048
-291.648
-292.704
-293.201
-264.848
-263.961
-262.3
-259.902
-256.818
-253.113
-248.859
-244.13
-238.999
-233.534
-227.798
-221.845
-215.726
-209.491
-203.195
-196.898
-190.678
-184.629
-178.865
-173.518
-168.729
-164.639
-161.369
-159.002
-157.579
-157.101
-157.561
-158.965
-161.309
-164.556
-168.622
-173.387
-178.713
-184.457
-190.488
-196.691
-202.971
-209.249
-215.463
-221.556
-227.475
-233.167
-238.574
-243.631
-248.268
-252.412
-255.986
-258.921
-261.154
-262.637
-263.338
-263.243
-262.354
-260.689
-258.284
-255.191
-251.475
-247.207
-242.463
-237.316
-231.836
-226.084
-220.119
-213.992
-207.758
-201.473
-195.204
-189.032
-183.059
-177.402
-172.198
-167.588
-163.709
-160.673
-158.552
-157.376
-157.141
-157.846
-159.497
-162.086
-165.563
-169.832
-174.768
-180.227
-186.07
-192.17
-198.416
-204.718
-211.005
-217.217
-223.3
-229.206
-234.882
-240.272
-245.313
-249.934
-254.063
-257.624
-260.547
-262.771
-264.247
-264.944
-238.421
-237.27
-235.123
-232.035
-228.083
-223.359
-217.968
-212.018
-205.615
-198.861
-191.848
-184.661
-177.378
-170.07
-162.806
-155.658
-148.71
-142.057
-135.811
-130.094
-125.033
-120.748
-117.342
-114.883
-113.405
-112.91
-113.394
-114.861
-117.307
-120.7
-124.972
-130.021
-135.728
-141.966
-148.611
-155.554
-162.695
-169.951
-177.247
-184.509
-191.664
-198.63
-205.32
-211.636
-217.475
-222.729
-227.289
-231.052
-233.929
-235.846
-236.755
-236.631
-235.479
-233.328
-230.233
-226.271
-221.537
-216.134
-210.172
-203.758
-196.994
-189.975
-182.788
-175.511
-168.219
-160.983
-153.881
-147
-140.442
-134.32
-128.758
-123.885
-119.816
-116.645
-114.433
-113.202
-112.953
-113.684
-115.399
-118.09
-121.715
-126.196
-131.426
-137.282
-143.636
-150.369
-157.374
-164.557
-171.839
-179.148
-186.414
-193.566
-200.525
-207.203
-213.506
-219.331
-224.57
-229.116
-232.867
-235.733
-237.643
-238.546
-214.158
-212.745
-210.112
-206.335
-201.513
-195.767
-189.232
-182.046
-174.349
-166.275
-157.948
-149.483
-140.984
-132.546
-124.255
-116.195
-108.458
-101.141
-94.3531
-88.2064
-82.8145
-78.2816
-74.6928
-72.1063
-70.551
-70.0328
-70.5498
-72.1035
-74.6882
-78.2755
-82.8079
-88.2009
-94.3506
-101.144
-108.466
-116.21
-124.276
-132.569
-141.003
-149.487
-157.922
-166.2
-174.202
-181.799
-188.853
-195.225
-200.773
-205.366
-208.886
-211.237
-212.352
-212.201
-210.786
-208.149
-204.365
-199.533
-193.776
-187.23
-180.034
-172.329
-164.251
-155.925
-147.469
-138.989
-130.581
-122.334
-114.337
-106.685
-99.4786
-92.829
-86.8504
-81.6546
-77.342
-73.9911
-71.6522
-70.3474
-70.0791
-70.8463
-72.6506
-75.4817
-79.3037
-84.0517
-89.6351
-95.9464
-102.872
-110.299
-118.124
-126.248
-134.583
-143.044
-151.544
-159.986
-168.263
-176.258
-183.844
-190.885
-197.241
-202.775
-207.353
-210.861
-213.202
-214.312
-192.412
-190.746
-187.646
-183.204
-177.542
-170.805
-163.155
-154.76
-145.789
-136.405
-126.763
-117.007
-107.269
-97.6672
-88.3051
-79.2821
-70.698
-62.655
-55.2589
-48.6155
-42.827
-37.9844
-34.1611
-31.4079
-29.7525
-29.2038
-29.7623
-31.4278
-34.1915
-38.0264
-42.8823
-48.6862
-55.3469
-62.7622
-70.8253
-79.4292
-88.4697
-97.8442
-107.45
-117.179
-126.906
-136.496
-145.799
-154.656
-162.9
-170.36
-176.867
-182.261
-186.4
-189.169
-190.484
-190.305
-188.638
-185.534
-181.083
-175.41
-168.662
-161
-152.595
-143.618
-134.233
-124.599
-114.86
-105.15
-95.5908
-86.2871
-77.3418
-68.8577
-60.9399
-53.6956
-47.2311
-41.6467
-37.0297
-33.448
-30.9461
-29.5461
-29.2535
-30.0683
-31.9889
-35.0027
-39.0766
-44.1542
-50.1573
-56.9915
-64.5533
-72.7366
-81.4364
-90.551
-99.9812
-109.627
-119.381
-129.122
-138.715
-148.014
-156.861
-165.091
-172.535
-179.025
-184.403
-188.529
-191.286
-192.594
-173.388
-171.492
-167.969
-162.923
-156.495
-148.851
-140.177
-130.664
-120.507
-109.894
-99.0076
-88.0171
-77.079
-66.3354
-55.9083
-45.9127
-36.4587
-27.6546
-19.6063
-12.4157
-6.17739
-0.974215
3.12745
6.08023
7.85556
8.44091
7.8333
6.03518
3.05854
-1.06863
-6.29939
-12.5675
-19.7901
-27.872
-36.71
-46.1964
-56.2206
-66.6691
-77.423
-88.3553
-99.3177
-110.148
-120.67
-130.7
-140.042
-148.502
-155.885
-162.01
-166.713
-169.861
-171.357
-171.153
-169.256
-165.727
-160.672
-154.232
-146.575
-137.888
-128.365
-118.201
-107.59
-96.7147
-85.7466
-74.8451
-64.1531
-53.7955
-43.8898
-34.5487
-25.8822
-17.997
-10.9949
-4.96843
0.00301277
3.85772
6.55341
8.06635
8.38742
7.51559
5.45556
2.2232
-2.14854
-7.60761
-14.0833
-21.4897
-29.7301
-38.7011
-48.2963
-58.4072
-68.9224
-79.7256
-90.6905
-101.671
-112.508
-123.027
-133.046
-142.373
-150.815
-158.179
-164.285
-168.973
-172.108
-173.595
-157.136
-155.052
-151.179
-145.634
-138.571
-130.174
-120.645
-110.193
-99.032
-87.3706
-75.4103
-63.3414
-51.3408
-39.5705
-28.1707
-17.2719
-6.99602
2.54138
11.2314
18.9725
25.673
31.2538
35.6508
38.8166
40.7199
41.3444
40.6847
38.7455
35.5425
31.1063
25.4841
18.7399
10.9531
2.21652
-7.36703
-17.6863
-28.623
-40.0513
-51.8362
-63.8328
-75.872
-87.7709
-99.3335
-110.354
-120.618
-129.912
-138.023
-144.753
-149.921
-153.382
-155.027
-154.803
-152.717
-148.838
-143.282
-136.206
-127.794
-118.25
-107.787
-96.6195
-84.9598
-73.0117
-60.9681
-49.0087
-37.2962
-25.9738
-15.1738
-5.02031
4.37008
12.888
20.4327
26.9145
32.2574
36.4013
39.3031
40.936
41.2872
40.3545
38.1455
34.6801
29.9931
24.1362
17.1771
9.19826
0.294006
-9.43225
-19.8699
-30.9019
-42.4042
-54.2443
-66.2776
-78.3376
-90.2439
-101.803
-112.812
-123.059
-132.333
-140.423
-147.132
-152.283
-155.729
-157.365
-149.021
-146.703
-142.395
-136.226
-128.368
-119.02
-108.405
-96.7545
-84.3026
-71.2811
-57.9139
-44.414
-30.9816
-17.8017
-5.03925
7.15343
18.6357
29.2776
38.9596
47.5732
55.0219
61.2229
66.1086
69.6272
71.7425
72.4335
71.6924
69.5261
65.9552
61.0152
54.7576
47.2504
38.5769
28.8348
18.1346
6.59849
-5.64007
-18.4362
-31.6323
-45.0587
-58.5229
-71.8186
-84.727
-97.0189
-108.459
-118.809
-127.838
-135.325
-141.074
-144.923
-146.753
-146.503
-144.184
-139.869
-133.688
-125.815
-116.451
-105.82
-94.1557
-81.6967
-68.6769
-55.3231
-41.8513
-28.4645
-15.3494
-2.67321
9.40957
20.7569
31.2379
40.7333
49.1353
56.3496
62.2965
66.9118
70.148
71.9732
72.3702
71.3355
68.8801
65.0286
59.8207
53.3122
45.5745
36.6937
26.7694
15.9128
4.24621
-8.09799
-20.9763
-34.2334
-47.7005
-61.1878
-74.4918
-87.3964
-99.6756
-111.096
-121.424
-130.429
-137.894
-143.623
-147.456
-149.275
-110.023
-108.197
-104.807
-99.9556
-93.7781
-86.4334
-78.0949
-68.944
-59.1637
-48.9341
-38.4295
-27.8156
-17.2484
-6.87334
3.17658
12.7789
21.8213
30.2008
37.8236
44.6049
50.4697
55.3536
59.2033
61.9772
63.6454
64.1893
63.6018
61.8895
59.0702
55.1737
50.2413
44.3264
37.4941
29.8203
21.3915
12.3037
2.66255
-7.41606
-17.8057
-28.3691
-38.9561
-49.4057
-59.5477
-69.2039
-78.1908
-86.3231
-93.419
-99.3062
-103.829
-106.859
-108.3
-108.104
-106.277
-102.88
-98.0189
-91.8286
-84.4697
-76.1173
-66.9546
-57.1668
-46.9364
-36.44
-25.8455
-15.3113
-4.98454
5.00002
14.5185
23.4574
31.7134
39.1927
45.8114
51.496
56.1841
59.8253
62.3809
63.8242
64.1398
63.3244
61.3881
58.352
54.249
49.1233
43.0311
36.0394
28.2257
19.6769
10.4892
0.767722
-9.37271
-19.807
-30.3999
-41.0026
-51.4566
-61.5938
-71.2383
-80.2087
-88.322
-95.3982
-101.267
-105.774
-108.79
-110.223
-240.145
-235.653
-227.299
-215.321
-200.041
-181.837
-161.126
-138.351
-113.958
-88.3917
-62.082
-35.4397
-8.85299
17.3117
42.7003
66.9867
89.8729
111.089
130.391
147.562
162.413
174.781
184.531
191.556
195.778
197.15
195.654
191.305
184.153
174.273
161.772
146.787
129.481
110.049
88.7103
65.7153
41.3412
15.8946
-10.2884
-36.8436
-63.395
-89.5438
-114.869
-138.93
-161.278
-181.459
-199.032
-213.582
-224.739
-232.199
-235.743
-235.26
-230.766
-222.4
-210.402
-195.095
-176.862
-156.124
-133.328
-108.925
-83.3659
-57.0853
-30.4994
-4.0017
22.0346
47.2518
71.3206
93.9414
114.843
133.784
150.549
164.951
176.834
186.067
192.551
196.217
197.024
194.963
190.061
182.371
171.98
159
143.573
125.868
106.083
84.4399
61.1892
36.6075
10.9998
-15.3008
-41.9362
-68.5352
-94.7039
-120.026
-144.067
-166.382
-186.523
-204.053
-218.561
-229.682
-237.112
-240.637
)
;

boundaryField
{
    top
    {
        type            calculated;
        value           nonuniform List<scalar> 
102
(
-9.81
-9.81
-9.81
-9.81
-9.81
-9.81
-9.81
-9.81
-9.81
-9.81
-9.81
-9.81
-9.81
-9.81
-9.81
-9.81
-9.81
-9.81
-9.81
-9.81
-9.81
-9.81
-9.81
-9.81
-9.81
-9.81
-9.81
-9.81
-9.81
-9.81
-9.81
-9.81
-9.81
-9.81
-9.81
-9.81
-9.81
-9.81
-9.81
-9.81
-9.81
-9.81
-9.81
-9.81
-9.81
-9.81
-9.81
-9.81
-9.81
-9.81
-9.81
-9.81
-9.81
-9.81
-9.81
-9.81
-9.81
-9.81
-9.81
-9.81
-9.81
-9.81
-9.81
-9.81
-9.81
-9.81
-9.81
-9.81
-9.81
-9.81
-9.81
-9.81
-9.81
-9.81
-9.81
-9.81
-9.81
-9.81
-9.81
-9.81
-9.81
-9.81
-9.81
-9.81
-9.81
-9.81
-9.81
-9.81
-9.81
-9.81
-9.81
-9.81
-9.81
-9.81
-9.81
-9.81
-9.81
-9.81
-9.81
-9.81
-9.81
-9.81
)
;
    }
    bottom
    {
        type            calculated;
        value           nonuniform List<scalar> 
102
(
-965.07
-969.189
-976.752
-987.353
-1000.42
-1015.31
-1031.61
-1049.54
-1070.33
-1095.61
-1126.16
-1161.15
-1198.92
-1237.75
-1275.92
-1311.77
-1343.99
-1371.79
-1394.28
-1410.57
-1421.01
-1426.62
-1428.8
-1429.07
-1428.69
-1428.42
-1428.53
-1428.77
-1428.38
-1426.15
-1420.53
-1410.1
-1393.86
-1371.39
-1343.55
-1311.26
-1275.35
-1237.15
-1198.38
-1160.8
-1126.12
-1095.97
-1071.02
-1050.48
-1032.81
-1016.88
-1002.49
-990.059
-980.213
-973.489
-970.26
-970.706
-974.801
-982.319
-992.841
-1005.8
-1020.58
-1036.88
-1055.1
-1076.57
-1102.76
-1134.13
-1169.65
-1207.69
-1246.5
-1284.29
-1319.44
-1350.71
-1377.35
-1398.36
-1413.12
-1422.27
-1426.93
-1428.58
-1428.71
-1428.45
-1428.43
-1428.76
-1429.07
-1428.46
-1425.59
-1418.92
-1407.14
-1389.32
-1365.43
-1336.5
-1303.3
-1266.75
-1228.26
-1189.54
-1152.3
-1118.23
-1088.95
-1064.91
-1044.96
-1027.5
-1011.53
-997.03
-984.507
-974.601
-967.85
-964.615
)
;
    }
    frontAndBack
    {
        type            empty;
    }
    left_cyc
    {
        type            cyclic;
    }
    right_cyc
    {
        type            cyclic;
    }
}


// ************************************************************************* //
