/*--------------------------------*- C++ -*----------------------------------*\
| =========                 |                                                 |
| \\      /  F ield         | OpenFOAM: The Open Source CFD Toolbox           |
|  \\    /   O peration     | Version:  2.3.0                                 |
|   \\  /    A nd           | Web:      www.OpenFOAM.org                      |
|    \\/     M anipulation  |                                                 |
\*---------------------------------------------------------------------------*/
FoamFile
{
    version     2.0;
    format      ascii;
    class       volScalarField;
    location    "15000";
    object      p_rgh;
}
// * * * * * * * * * * * * * * * * * * * * * * * * * * * * * * * * * * * * * //

dimensions      [0 2 -2 0 0 0 0];

internalField   nonuniform List<scalar> 
765
(
-1753.35
-1762.32
-1770.87
-1779.81
-1790.23
-1803.32
-1819.78
-1838.56
-1857.73
-1873.48
-1879.15
-1868.92
-1851.47
-1832.01
-1813.78
-1798.37
-1786.26
-1776.45
-1767.74
-1759.11
-1749.85
-1739.67
-1728.44
-1715.99
-1702.1
-1686.39
-1668.26
-1646.75
-1620.29
-1586.6
-1542.06
-1482.49
-1412.27
-1332.12
-1238.31
-1174.88
-1190.79
-1273.1
-1363.94
-1438.84
-1506.69
-1560.17
-1600.09
-1630.73
-1655.12
-1675.22
-1692.37
-1707.36
-1720.69
-1732.67
-1743.51
-1722.47
-1732.25
-1741.51
-1750.9
-1761.36
-1773.96
-1789.22
-1807.73
-1828.83
-1849.71
-1859.4
-1843.12
-1821.67
-1801.23
-1783.85
-1769.2
-1757.39
-1747.38
-1738.1
-1728.71
-1718.65
-1707.29
-1694.71
-1680.89
-1665.71
-1648.92
-1630.09
-1608.51
-1583.01
-1552.3
-1515.19
-1473.23
-1428.93
-1395.06
-1395.07
-1392.34
-1393.72
-1393.01
-1404.2
-1446.01
-1489.24
-1529.77
-1564.37
-1592.94
-1616.81
-1637.26
-1655.27
-1671.44
-1686.1
-1699.47
-1711.62
-1679.06
-1689.79
-1700.11
-1710.39
-1721.27
-1733.71
-1749.26
-1771.35
-1800.89
-1834.94
-1852.35
-1823.65
-1790.15
-1762.88
-1743.02
-1728.98
-1717.2
-1706.58
-1696.31
-1685.85
-1674.89
-1663.3
-1650.45
-1636.39
-1621.24
-1604.99
-1587.71
-1569.3
-1549.59
-1528.61
-1498.77
-1463.81
-1424.44
-1370.96
-1347.94
-1338.86
-1341.36
-1353.78
-1389.09
-1441.03
-1476.12
-1511.68
-1536.71
-1557.06
-1576.24
-1594.19
-1611.1
-1626.94
-1641.7
-1655.36
-1667.73
-1650.53
-1661.52
-1672.28
-1682.79
-1693.11
-1704.01
-1718.77
-1742.77
-1780.08
-1827.92
-1853.12
-1811.79
-1765.88
-1733.1
-1712.63
-1699.95
-1689.43
-1679.07
-1668.45
-1657.58
-1646.51
-1635.28
-1623.9
-1612.29
-1600.46
-1588.47
-1575.91
-1561.93
-1545.23
-1524.05
-1486.59
-1432.47
-1378.4
-1337.41
-1304.58
-1285.11
-1290.08
-1315.85
-1352.04
-1394.52
-1454.36
-1503.66
-1532.72
-1551.84
-1567.33
-1580.63
-1592.88
-1604.8
-1616.55
-1628.04
-1639.36
-1649.34
-1659.07
-1668.78
-1677.89
-1685.92
-1693.61
-1705.32
-1728.32
-1770.98
-1830.38
-1861.65
-1810.35
-1754.17
-1718.58
-1700.43
-1690.78
-1683.28
-1674.87
-1665.49
-1655.71
-1646.08
-1636.92
-1628.34
-1620.29
-1612.48
-1604.27
-1594.48
-1581.31
-1562.29
-1535.06
-1492.18
-1428.04
-1345.78
-1288.16
-1247.34
-1223.89
-1229.77
-1261
-1308.11
-1372.64
-1454.74
-1511.26
-1546.31
-1570.16
-1586.63
-1598.25
-1607.25
-1615.19
-1623.02
-1631.22
-1640
-1669.26
-1677.19
-1684.87
-1691.25
-1695.54
-1699.11
-1705.83
-1726.51
-1772.85
-1840.25
-1874.92
-1817.82
-1754.18
-1717.08
-1702.57
-1697.86
-1694.4
-1689.4
-1682.48
-1674.62
-1666.81
-1659.7
-1653.54
-1648.19
-1643.08
-1637.1
-1628.41
-1614.4
-1591.71
-1557.03
-1505.48
-1431.89
-1334.83
-1258.5
-1200.35
-1168.06
-1175.98
-1219.21
-1285.85
-1369.83
-1460.95
-1527.11
-1571.2
-1601.09
-1620.12
-1631.8
-1639.21
-1644.69
-1649.77
-1655.36
-1661.85
-1699.76
-1705.73
-1710.67
-1713.41
-1713.46
-1712.8
-1716.77
-1737.35
-1784.78
-1852.96
-1888.35
-1830.66
-1765.99
-1727.88
-1714.2
-1713.31
-1713.83
-1712.93
-1709.37
-1703.98
-1697.94
-1692.21
-1687.32
-1683.24
-1679.38
-1674.31
-1665.65
-1650.02
-1623.28
-1581.36
-1519.68
-1435.86
-1331.65
-1234.33
-1153.64
-1109.96
-1120.52
-1180.01
-1270.09
-1370.25
-1468.16
-1544.67
-1598.33
-1634.23
-1656.39
-1669.01
-1676.02
-1680.42
-1684.24
-1688.58
-1693.81
-1732.73
-1736.3
-1738.13
-1737.87
-1736.53
-1734.92
-1739.5
-1759.29
-1802.65
-1864.83
-1899.11
-1844.78
-1785.9
-1750.58
-1736.85
-1735.22
-1737.06
-1738.31
-1737.93
-1735.49
-1731.55
-1726.97
-1722.44
-1718.24
-1713.93
-1708.08
-1697.92
-1679.45
-1647.98
-1598.97
-1527.01
-1433.38
-1328.24
-1210.69
-1105.41
-1048.19
-1061.95
-1140.82
-1255.57
-1366.31
-1469.65
-1556.2
-1618.8
-1660.72
-1686.86
-1701.79
-1710.01
-1715.08
-1719.27
-1723.6
-1728.24
-1762.37
-1764.57
-1765.47
-1765.21
-1763.99
-1763.93
-1769.5
-1787.14
-1823.25
-1875.09
-1906.38
-1858.8
-1809.81
-1779.91
-1766.92
-1763.79
-1764.62
-1765.6
-1765.53
-1764.26
-1761.67
-1757.98
-1753.46
-1748.2
-1741.77
-1732.77
-1718.55
-1695.16
-1658.07
-1602.65
-1522.12
-1420.2
-1315.85
-1179.07
-1050.23
-979.057
-996.376
-1094.87
-1233.32
-1353.08
-1460.3
-1554.78
-1624.85
-1672.7
-1704.24
-1723.83
-1735.82
-1743.7
-1749.66
-1754.68
-1758.98
-1785.29
-1788.86
-1791.21
-1792.49
-1793.38
-1795.39
-1801.41
-1815.89
-1843.46
-1883.08
-1909.67
-1871.28
-1833.83
-1810.56
-1799.26
-1794.91
-1793.5
-1792.6
-1791.03
-1788.29
-1784.32
-1779.17
-1772.79
-1764.89
-1754.7
-1740.64
-1720.09
-1689.46
-1645.05
-1582.74
-1495.17
-1388.75
-1284.88
-1129.44
-980.939
-898.319
-918.622
-1031.68
-1187.61
-1318.22
-1429.41
-1529.53
-1606.93
-1661.86
-1700.88
-1727.48
-1745.41
-1757.91
-1767.2
-1774.55
-1780.52
-1787
-1795.33
-1802.47
-1808.52
-1813.82
-1819.21
-1826.46
-1838.43
-1858.36
-1886.33
-1907.1
-1878.87
-1852.26
-1834.86
-1824.63
-1818.16
-1812.9
-1807.4
-1801
-1793.46
-1784.71
-1774.71
-1763.4
-1749.92
-1733.4
-1712.06
-1683.38
-1644.35
-1592.45
-1524.19
-1431.6
-1316.16
-1209.51
-1047.9
-891.471
-802.8
-824.969
-943.019
-1108.24
-1251.3
-1359.45
-1466.6
-1549.76
-1611.21
-1658.28
-1693.32
-1719.14
-1738.58
-1753.9
-1766.56
-1777.42
-1732.76
-1750.44
-1766.69
-1781.64
-1795.37
-1808.14
-1820.63
-1834.26
-1850.91
-1871.05
-1886.24
-1866.64
-1846.86
-1831.08
-1817.86
-1805.29
-1792.19
-1778.02
-1762.61
-1745.87
-1727.66
-1707.89
-1686.68
-1664.5
-1639.33
-1609.5
-1572.85
-1526.28
-1466.7
-1388.62
-1292.07
-1181.88
-1076.99
-923.396
-778.822
-692.149
-714.473
-826.892
-981.585
-1118.31
-1219.55
-1327.61
-1418
-1487.88
-1542.49
-1585.12
-1619.13
-1647.17
-1671.22
-1692.86
-1713.55
-1549.44
-1578.82
-1606.31
-1632.27
-1656.93
-1680.35
-1702.56
-1723.74
-1744.15
-1763.27
-1775.03
-1759.66
-1739.65
-1718.8
-1697.15
-1674.43
-1650.51
-1625.36
-1598.86
-1570.73
-1540.6
-1508.35
-1474.77
-1441.59
-1409.33
-1373.12
-1331.49
-1280.55
-1217.16
-1135.73
-1044.04
-966.599
-883.591
-765.894
-650.913
-576.689
-596.277
-689.935
-809.402
-916.269
-990.486
-1072.57
-1166.14
-1238.95
-1298.12
-1345.1
-1384.48
-1419.08
-1451.29
-1484.7
-1517.92
-1151.38
-1185.47
-1218.06
-1249.32
-1279.16
-1307.29
-1333.23
-1356.56
-1376.9
-1393.38
-1401.27
-1390.34
-1372.39
-1350.97
-1326.65
-1299.86
-1271.04
-1240.62
-1208.86
-1175.74
-1141.01
-1104.37
-1066.08
-1026.63
-985.953
-945.343
-901.56
-853.197
-803.994
-755.114
-707.183
-664.585
-608.607
-530.238
-450.908
-397.289
-411.714
-478.307
-559.362
-631.046
-677.7
-722.923
-771.807
-819.775
-869.44
-916.257
-958.492
-998.772
-1038.77
-1077.73
-1115.46
-427.195
-457.956
-489.426
-521.695
-554.851
-588.811
-623.087
-656.476
-686.561
-709.184
-717.252
-704.317
-678.759
-647.201
-613.223
-578.851
-545.022
-512.064
-479.983
-448.67
-418.057
-388.114
-358.414
-329.424
-304.282
-284.788
-272.532
-269.541
-279.413
-306.512
-352.539
-407.83
-457.412
-486.249
-495.955
-493.17
-494.811
-494.221
-477.714
-441.023
-386.469
-334.421
-294.63
-273.787
-269.052
-275.201
-290.205
-311.502
-338.034
-367.479
-397.118
)
;

boundaryField
{
    top
    {
        type            fixedValue;
        value           uniform 0;
    }
    bottom
    {
        type            fixedFluxPressure;
        gradient        uniform 0;
        value           nonuniform List<scalar> 
51
(
-1753.35
-1762.32
-1770.87
-1779.81
-1790.23
-1803.32
-1819.78
-1838.56
-1857.73
-1873.48
-1879.15
-1868.92
-1851.47
-1832.01
-1813.78
-1798.37
-1786.26
-1776.45
-1767.74
-1759.11
-1749.85
-1739.67
-1728.44
-1715.99
-1702.1
-1686.39
-1668.26
-1646.75
-1620.29
-1586.6
-1542.06
-1482.49
-1412.27
-1332.12
-1238.31
-1174.88
-1190.79
-1273.1
-1363.94
-1438.84
-1506.69
-1560.17
-1600.09
-1630.73
-1655.12
-1675.22
-1692.37
-1707.36
-1720.69
-1732.67
-1743.51
)
;
    }
    frontAndBack
    {
        type            empty;
    }
    left_cyc
    {
        type            cyclic;
    }
    right_cyc
    {
        type            cyclic;
    }
}


// ************************************************************************* //
