/*--------------------------------*- C++ -*----------------------------------*\
| =========                 |                                                 |
| \\      /  F ield         | OpenFOAM: The Open Source CFD Toolbox           |
|  \\    /   O peration     | Version:  2.3.0                                 |
|   \\  /    A nd           | Web:      www.OpenFOAM.org                      |
|    \\/     M anipulation  |                                                 |
\*---------------------------------------------------------------------------*/
FoamFile
{
    version     2.0;
    format      ascii;
    class       surfaceScalarField;
    location    "15000";
    object      phi;
}
// * * * * * * * * * * * * * * * * * * * * * * * * * * * * * * * * * * * * * //

dimensions      [0 3 -1 0 0 0 0];

internalField   nonuniform List<scalar> 
1464
(
0.308004
0.00243172
0.312962
-0.00495785
0.327024
-0.014062
0.350085
-0.0230612
0.378181
-0.0280953
0.401202
-0.0230217
0.401927
-0.000724614
0.358288
0.0436389
0.249435
0.108853
0.0707494
0.178685
-0.136918
0.207668
-0.294372
0.157454
-0.380026
0.0856543
-0.406402
0.0263757
-0.395975
-0.0104268
-0.369505
-0.02647
-0.342144
-0.0273613
-0.321771
-0.0203725
-0.310798
-0.0109729
-0.308516
-0.00228242
-0.312938
0.00442251
-0.32197
0.00903168
-0.334228
0.012258
-0.349082
0.0148534
-0.366545
0.0174633
-0.387227
0.0206821
-0.412317
0.0250898
-0.443169
0.0308524
-0.47958
0.0364112
-0.515077
0.0354966
-0.527757
0.0126799
-0.487537
-0.0402196
-0.396626
-0.0909113
-0.271893
-0.124733
-0.124388
-0.147506
0.0275446
-0.151932
0.178814
-0.151269
0.320541
-0.141727
0.434045
-0.113504
0.509771
-0.0757268
0.527111
-0.0173399
0.502371
0.0247399
0.465279
0.0370927
0.430879
0.0343997
0.402413
0.0284659
0.379181
0.0232322
0.359812
0.019369
0.343339
0.016473
0.329374
0.0139652
0.318114
0.0112601
0.00767767
0.547054
-0.00573721
0.561976
-0.0198796
0.58399
-0.0360761
0.611017
-0.0500888
0.636759
-0.053837
0.648703
-0.0349659
0.626809
0.0211698
0.543551
0.126896
0.371499
0.280906
0.103943
0.446241
-0.201874
0.513485
-0.440514
0.396094
-0.580892
0.226032
-0.640529
0.0860124
-0.648258
-0.00269758
-0.629709
-0.045019
-0.602374
-0.0546971
-0.576468
-0.0462781
-0.556654
-0.0307871
-0.544019
-0.0149171
-0.537726
-0.00187091
-0.536035
0.00734127
-0.536822
0.0130443
-0.537983
0.0160148
-0.53744
0.0169206
-0.532946
0.0161883
-0.521899
0.0140418
-0.501178
0.0101315
-0.4672
0.00243332
-0.416223
-0.0154799
-0.345424
-0.0581199
-0.260725
-0.124919
-0.178729
-0.172906
-0.109753
-0.193709
-0.0503899
-0.206869
0.0104337
-0.212756
0.0707338
-0.211569
0.132086
-0.203078
0.206632
-0.18805
0.292062
-0.161157
0.373551
-0.0988292
0.437233
-0.0389423
0.481654
-0.00732841
0.510335
0.00571923
0.527072
0.0117282
0.535328
0.0149767
0.538023
0.0166735
0.53761
0.0168867
0.536238
0.0153364
0.53596
0.0115388
0.00475241
0.578257
-0.0203129
0.595832
-0.0374545
0.615535
-0.0557785
0.634571
-0.0691252
0.647159
-0.066425
0.643216
-0.031023
0.606924
0.0574619
0.516536
0.217284
0.348687
0.448755
0.0967833
0.698145
-0.188076
0.798344
-0.414581
0.622599
-0.554686
0.366137
-0.624384
0.155711
-0.647623
0.0205413
-0.644617
-0.0480248
-0.628985
-0.0703296
-0.609213
-0.0660497
-0.589958
-0.0500416
-0.573278
-0.031598
-0.559577
-0.0155718
-0.548259
-0.00397614
-0.537864
0.00264888
-0.526287
0.00443745
-0.510868
0.00150183
-0.488424
-0.00625582
-0.455418
-0.0189637
-0.408811
-0.0364752
-0.347972
-0.0584056
-0.278302
-0.0851505
-0.215493
-0.120929
-0.170287
-0.170124
-0.129721
-0.213473
-0.0849359
-0.238494
-0.0388288
-0.252976
0.00794818
-0.259533
0.0545603
-0.258182
0.100427
-0.248945
0.14383
-0.231453
0.183559
-0.200886
0.236394
-0.151664
0.304495
-0.107043
0.37226
-0.0750939
0.428
-0.0500207
0.469228
-0.0294998
0.497815
-0.0136105
0.517156
-0.00266747
0.530697
0.00334627
0.541425
0.00460875
0.551794
0.00116949
-0.00713555
0.517207
-0.0334497
0.529996
-0.0502439
0.540929
-0.066711
0.547288
-0.0754842
0.544649
-0.0637857
0.526184
-0.0125581
0.481916
0.10173
0.398895
0.300305
0.263191
0.584458
0.072105
0.889232
-0.139704
1.01015
-0.31443
0.797325
-0.431615
0.483322
-0.500282
0.224377
-0.534762
0.0550216
-0.547123
-0.0356647
-0.546194
-0.0712584
-0.53792
-0.0743236
-0.526105
-0.0618565
-0.513032
-0.044671
-0.499883
-0.028721
-0.486972
-0.0168869
-0.473838
-0.0104846
-0.45917
-0.0102313
-0.440816
-0.0168522
-0.415877
-0.0311943
-0.381041
-0.0537998
-0.333682
-0.0838348
-0.274174
-0.117913
-0.209568
-0.149757
-0.156105
-0.174392
-0.122143
-0.204086
-0.0935351
-0.242081
-0.0628427
-0.269186
-0.0292185
-0.2866
0.00593858
-0.29469
0.0407244
-0.292967
0.0733505
-0.281571
0.102777
-0.26088
0.1317
-0.229809
0.173357
-0.19332
0.233153
-0.166839
0.297341
-0.139282
0.35269
-0.10537
0.395168
-0.0719779
0.42589
-0.0443321
0.447936
-0.0247138
0.464537
-0.0132545
0.478332
-0.00918616
0.491175
-0.0116739
-0.0200308
0.409228
-0.0402173
0.413211
-0.0542269
0.412862
-0.0663629
0.406108
-0.0687293
0.39021
-0.0478885
0.361579
0.0160734
0.315923
0.147386
0.248656
0.367572
0.156245
0.676869
0.0416316
1.00385
-0.0797825
1.13157
-0.188672
0.906215
-0.273035
0.567685
-0.332955
0.284297
-0.372717
0.0947836
-0.396856
-0.0115252
-0.409463
-0.0586524
-0.413857
-0.0699292
-0.412564
-0.063149
-0.407493
-0.0497425
-0.400027
-0.0361873
-0.391028
-0.0258857
-0.380774
-0.0207388
-0.368816
-0.0221893
-0.353863
-0.0318049
-0.333761
-0.0512962
-0.305759
-0.0818014
-0.267407
-0.122187
-0.218525
-0.166796
-0.163879
-0.204403
-0.115685
-0.222586
-0.0851167
-0.234654
-0.0633983
-0.263799
-0.0423771
-0.290208
-0.0197665
-0.309211
0.00394657
-0.318403
0.0273838
-0.316405
0.0493784
-0.303566
0.0701755
-0.281677
0.0933731
-0.253007
0.130504
-0.230451
0.183345
-0.21968
0.236991
-0.192929
0.28231
-0.150688
0.316688
-0.106356
0.34146
-0.0691039
0.359358
-0.042612
0.372981
-0.0268774
0.384183
-0.0203886
0.393948
-0.021439
-0.0285425
0.266874
-0.0390385
0.261549
-0.0489015
0.250979
-0.0557925
0.234069
-0.0518195
0.209822
-0.0236414
0.17761
0.0482847
0.137835
0.187161
0.0927508
0.412657
0.047953
0.721667
0.0113035
1.04049
-0.0200678
1.16294
-0.0606603
0.946808
-0.107053
0.614077
-0.151282
0.328526
-0.189025
0.132527
-0.218819
0.0182685
-0.240655
-0.0368169
-0.255398
-0.0551853
-0.264132
-0.054415
-0.267978
-0.0458966
-0.268025
-0.036141
-0.265241
-0.0286695
-0.260348
-0.0256317
-0.253619
-0.0289181
-0.244665
-0.040759
-0.232283
-0.0636781
-0.214531
-0.0995532
-0.189277
-0.147441
-0.155592
-0.200481
-0.115667
-0.244328
-0.0765558
-0.261697
-0.0515529
-0.259657
-0.0370683
-0.278284
-0.0246437
-0.302632
-0.0115732
-0.322281
0.00224069
-0.332217
0.0158585
-0.330022
0.0285641
-0.316272
0.0414776
-0.29459
0.0592293
-0.270759
0.0896856
-0.260908
0.130106
-0.260101
0.168074
-0.230897
0.198684
-0.181298
0.221024
-0.128695
0.236626
-0.084706
0.247632
-0.0536186
0.255739
-0.0349844
0.261851
-0.0265003
0.266104
-0.0256925
-0.0304912
0.10093
-0.030842
0.0883512
-0.0363231
0.0709311
-0.0383723
0.0485383
-0.0294268
0.0216609
0.00323605
-0.00779294
0.0777386
-0.035741
0.215109
-0.0543121
0.431228
-0.0509823
0.718337
-0.0158027
1.00532
0.0331787
1.11396
0.057185
0.922801
0.050992
0.62027
0.0275948
0.351923
-0.00187932
0.162002
-0.0310286
0.0474178
-0.0566542
-0.0111913
-0.0774857
-0.0343539
-0.0933214
-0.0385793
-0.104433
-0.0347848
-0.111371
-0.0292033
-0.114887
-0.0251538
-0.115824
-0.0246946
-0.114902
-0.0298402
-0.112439
-0.0432219
-0.108129
-0.0679876
-0.101007
-0.106675
-0.0897378
-0.158711
-0.0734475
-0.216771
-0.052825
-0.26495
-0.0311375
-0.283384
-0.0186114
-0.272183
-0.0131874
-0.283708
-0.00905216
-0.306768
-0.00441641
-0.326917
0.000791021
-0.337424
0.00584334
-0.335075
0.010174
-0.320602
0.014616
-0.299032
0.0231011
-0.279244
0.0395153
-0.277322
0.0604847
-0.28107
0.0791229
-0.249535
0.0933569
-0.195532
0.102998
-0.138336
0.109078
-0.0907858
0.112782
-0.0573232
0.114824
-0.0370262
0.115268
-0.0269438
0.11363
-0.0240547
-0.0259874
-0.0719818
-0.0182108
-0.0886248
-0.01968
-0.109233
-0.0177638
-0.133136
-0.00552404
-0.158423
0.0285233
-0.180941
0.100256
-0.193188
0.227356
-0.182871
0.420911
-0.13394
0.669406
-0.038074
0.909449
0.0763864
0.999497
0.156939
0.842248
0.190732
0.586478
0.191406
0.351249
0.174301
0.179107
0.150058
0.0716607
0.124795
0.0140719
0.101766
-0.0113249
0.0823581
-0.0191717
0.0669843
-0.019411
0.0555373
-0.0177564
0.0475224
-0.0171389
0.0421257
-0.0192979
0.0384017
-0.0261162
0.0355554
-0.0403755
0.0331145
-0.0655468
0.0308953
-0.104456
0.0288272
-0.156643
0.0266816
-0.214626
0.0242157
-0.262484
0.0213551
-0.280524
0.0159683
-0.266796
0.00999079
-0.27773
0.00556508
-0.302342
0.00224141
-0.323593
-0.000542998
-0.33464
-0.00346541
-0.332152
-0.00717546
-0.316892
-0.0121853
-0.294022
-0.0187029
-0.272726
-0.0233941
-0.272631
-0.0265299
-0.277934
-0.0290711
-0.246994
-0.031079
-0.193524
-0.0329863
-0.136429
-0.0350352
-0.0887369
-0.0373644
-0.054994
-0.0402604
-0.0341301
-0.0443063
-0.0228979
-0.050363
-0.017998
-0.0169998
-0.233316
-0.00412388
-0.251154
-0.00184166
-0.27231
0.00339255
-0.295255
0.0174203
-0.316518
0.0497863
-0.329708
0.113447
-0.324311
0.221958
-0.285461
0.38206
-0.197069
0.581015
-0.054802
0.767182
0.107908
0.836787
0.23351
0.716646
0.303681
0.516307
0.329295
0.325635
0.326854
0.181548
0.309913
0.0886016
0.287445
0.0365397
0.264738
0.0113824
0.24449
0.00107702
0.227791
-0.00271236
0.214825
-0.0047909
0.205183
-0.0074965
0.197956
-0.0120714
0.191925
-0.0200848
0.185859
-0.0343095
0.178566
-0.058254
0.168659
-0.094549
0.154432
-0.142415
0.134081
-0.194275
0.107224
-0.235627
0.0767163
-0.250016
0.0511795
-0.24126
0.0336312
-0.260182
0.0205622
-0.289273
0.00908837
-0.312119
-0.00198004
-0.323571
-0.0131426
-0.32099
-0.0250138
-0.305021
-0.039614
-0.279422
-0.0628049
-0.249535
-0.0914923
-0.243943
-0.120588
-0.248839
-0.144625
-0.222956
-0.162078
-0.176071
-0.174124
-0.124382
-0.182578
-0.0802829
-0.189027
-0.0485456
-0.194743
-0.0284142
-0.200882
-0.0167591
-0.208665
-0.0102141
-0.00643661
-0.36531
0.0091172
-0.3822
0.0150482
-0.401906
0.0230985
-0.422049
0.0375631
-0.437789
0.0655266
-0.440785
0.116443
-0.418544
0.199717
-0.355518
0.319034
-0.237815
0.463311
-0.0655579
0.594926
0.126927
0.644303
0.283197
0.560375
0.381882
0.417623
0.429634
0.277882
0.441847
0.169335
0.43339
0.0970583
0.415379
0.0545512
0.394896
0.0318658
0.375853
0.0201196
0.360035
0.0131055
0.347912
0.00733195
0.339094
0.00132196
0.332428
-0.00540594
0.326214
-0.0138701
0.318657
-0.0267525
0.307848
-0.047445
0.291367
-0.0780686
0.266352
-0.1174
0.229952
-0.157875
0.181571
-0.187245
0.127203
-0.195648
0.0846622
-0.198719
0.0588027
-0.234322
0.037412
-0.267882
0.016845
-0.291552
-0.00378923
-0.302937
-0.0244359
-0.300343
-0.0452018
-0.284255
-0.0684042
-0.25622
-0.100639
-0.217301
-0.148526
-0.196056
-0.202043
-0.195322
-0.246193
-0.178806
-0.277949
-0.144315
-0.299311
-0.10302
-0.313224
-0.0663698
-0.322448
-0.0393212
-0.329189
-0.0216732
-0.335236
-0.0107121
-0.342345
-0.00310586
0.00328795
-0.449491
0.0201096
-0.463593
0.0291507
-0.479745
0.03925
-0.495148
0.0529665
-0.50427
0.0746481
-0.497902
0.110075
-0.46306
0.164875
-0.384988
0.240962
-0.252661
0.330984
-0.0695461
0.411811
0.132228
0.442528
0.301307
0.391296
0.41571
0.30322
0.478282
0.21531
0.502248
0.145369
0.50226
0.0970464
0.490194
0.066617
0.474009
0.0480509
0.45824
0.0358885
0.44502
0.0263255
0.435013
0.0173392
0.427927
0.0084082
0.422494
2.68608e-05
0.416564
-0.00794079
0.407861
-0.0180494
0.393897
-0.0334803
0.371564
-0.0557357
0.337678
-0.0835142
0.289453
-0.109651
0.226808
-0.1246
0.163696
-0.132536
0.119859
-0.154882
0.087991
-0.202455
0.057624
-0.237515
0.0261849
-0.260113
-0.00600798
-0.270744
-0.0380644
-0.268287
-0.0692254
-0.253094
-0.0997757
-0.225669
-0.131797
-0.18528
-0.182692
-0.145161
-0.250333
-0.12768
-0.308873
-0.120267
-0.351858
-0.10133
-0.381326
-0.0735518
-0.400277
-0.0474194
-0.412013
-0.0275847
-0.419448
-0.0142389
-0.424901
-0.00525839
-0.430613
0.00260561
0.0111737
-0.466558
0.0278747
-0.475679
0.0382722
-0.485324
0.0488951
-0.493147
0.0607892
-0.49429
0.0757908
-0.480542
0.0963277
-0.44042
0.124752
-0.361292
0.161835
-0.234638
0.20433
-0.064889
0.242062
0.120889
0.256751
0.279393
0.232792
0.391018
0.191594
0.456605
0.149723
0.486917
0.115058
0.49473
0.0892333
0.490651
0.0706953
0.48179
0.0569122
0.472097
0.0455815
0.463327
0.0350956
0.455999
0.0246675
0.449972
0.0144349
0.444358
0.00564032
0.437409
-0.00099088
0.426954
-0.00759446
0.410152
-0.0166782
0.38353
-0.0291137
0.344814
-0.0447989
0.29504
-0.059877
0.239718
-0.0692773
0.19272
-0.0855384
0.159643
-0.121804
0.122275
-0.165087
0.0809763
-0.196217
0.0369274
-0.216064
-0.00846339
-0.225354
-0.0535472
-0.223203
-0.0967268
-0.209914
-0.136315
-0.186081
-0.171234
-0.150361
-0.209511
-0.106883
-0.260587
-0.0766044
-0.31448
-0.0663738
-0.36042
-0.0553904
-0.394685
-0.0392868
-0.417457
-0.0246475
-0.431657
-0.0133849
-0.440624
-0.0052718
-0.44688
0.000997756
-0.452435
0.0081611
0.017531
-0.410455
0.0305107
-0.411113
0.0389304
-0.4096
0.0473814
-0.404911
0.0561006
-0.394451
0.065331
-0.37339
0.0752662
-0.334598
0.0859605
-0.26993
0.0971668
-0.173662
0.108062
-0.0484499
0.11685
0.0881338
0.120167
0.206114
0.114811
0.292691
0.105018
0.348583
0.093831
0.380946
0.0826948
0.397968
0.0722107
0.406166
0.0624974
0.409639
0.05344
0.410399
0.0448206
0.409104
0.0363912
0.405842
0.0279295
0.400834
0.0194429
0.394748
0.011726
0.388214
0.00554347
0.380574
4.52042e-05
0.369572
-0.00567563
0.352284
-0.0118257
0.326188
-0.0187028
0.293671
-0.02736
0.263693
-0.0393002
0.236471
-0.0583157
0.202196
-0.0875295
0.156575
-0.119466
0.104042
-0.143683
0.0475135
-0.159536
-0.0108793
-0.166961
-0.0688435
-0.165239
-0.124143
-0.154614
-0.174494
-0.13573
-0.216468
-0.108388
-0.247707
-0.0756439
-0.274018
-0.0502938
-0.305682
-0.03471
-0.336872
-0.0241999
-0.359791
-0.0163681
-0.374615
-0.00982327
-0.384168
-0.00383218
-0.391207
0.00176716
-0.397546
0.00733709
-0.403338
0.0139524
0.0220126
-0.355538
0.0187502
-0.339437
0.0228293
-0.319027
0.0269712
-0.294174
0.0312476
-0.264543
0.0357001
-0.229575
0.0402976
-0.188507
0.0448932
-0.140524
0.0491834
-0.0851689
0.052707
-0.0232737
0.0549544
0.04132
0.0555735
0.10166
0.0544719
0.154871
0.0518067
0.200708
0.047994
0.239844
0.0435584
0.273128
0.0389273
0.301269
0.0343562
0.324757
0.0299517
0.34386
0.0257174
0.358655
0.0215965
0.369064
0.0175205
0.374965
0.013542
0.376679
0.0100122
0.375127
0.00709543
0.370844
0.00432763
0.363676
0.00149254
0.353272
-0.00142181
0.339284
-0.00471462
0.32138
-0.00945571
0.299502
-0.0174227
0.27191
-0.0307235
0.233365
-0.048984
0.18211
-0.0682116
0.121805
-0.083378
0.055834
-0.0935651
-0.0127604
-0.0983663
-0.0807482
-0.097251
-0.144972
-0.090391
-0.202363
-0.0783387
-0.249304
-0.0614466
-0.283164
-0.041784
-0.308116
-0.0253421
-0.328614
-0.0142114
-0.345188
-0.0076262
-0.35796
-0.00359605
-0.367275
-0.000508714
-0.373477
0.00236979
-0.376895
0.00518544
-0.377515
0.00795743
-0.374584
0.0110209
0.0147278
-0.34332
-0.325992
-0.304264
-0.27794
-0.24678
-0.210562
-0.169206
-0.122949
-0.0725487
-0.0193985
0.0345357
0.0870824
0.136397
0.181269
0.221109
0.255799
0.285482
0.310398
0.33078
0.346802
0.358574
0.366268
0.370378
0.37156
0.370098
0.366125
0.359835
0.351251
0.339616
0.322719
0.296423
0.256524
0.202033
0.136116
0.0626647
-0.0143057
-0.0904576
-0.161564
-0.223697
-0.273029
-0.307489
-0.329883
-0.344633
-0.355119
-0.362972
-0.368579
-0.371801
-0.372461
-0.370421
-0.365283
)
;

boundaryField
{
    top
    {
        type            calculated;
        value           nonuniform List<scalar> 
51
(
0.00569645
0.00550128
0.00524263
0.00492428
0.00454006
0.00407945
0.00353682
0.00292639
0.00230687
0.00180419
0.00163925
0.00192528
0.00249157
0.00312264
0.00371856
0.00423694
0.00467303
0.00503574
0.00533524
0.00557511
0.00574833
0.00584791
0.00590223
0.00591349
0.00578966
0.00546534
0.00486809
0.00386937
0.0021797
-0.000525568
-0.00442739
-0.009085
-0.0137214
-0.0174607
-0.0201137
-0.0213959
-0.0210992
-0.0192848
-0.0162057
-0.0121145
-0.00732438
-0.00294763
0.000538361
0.00285964
0.00425699
0.00509814
0.00559226
0.00584532
0.00591777
0.00588257
0.00581888
)
;
    }
    bottom
    {
        type            calculated;
        value           uniform 0;
    }
    frontAndBack
    {
        type            empty;
        value           nonuniform 0();
    }
    left_cyc
    {
        type            cyclic;
        value           nonuniform List<scalar> 
15
(
-0.310436
-0.538885
-0.563682
-0.50407
-0.40246
-0.268053
-0.109126
0.0593506
0.219229
0.352069
0.438498
0.458793
0.407819
0.367299
0.356374
)
;
    }
    right_cyc
    {
        type            cyclic;
        value           nonuniform List<scalar> 
15
(
0.310436
0.538885
0.563682
0.50407
0.40246
0.268053
0.109126
-0.0593506
-0.219229
-0.352069
-0.438498
-0.458793
-0.407819
-0.367299
-0.356374
)
;
    }
}


// ************************************************************************* //
