/*--------------------------------*- C++ -*----------------------------------*\
| =========                 |                                                 |
| \\      /  F ield         | OpenFOAM: The Open Source CFD Toolbox           |
|  \\    /   O peration     | Version:  2.3.0                                 |
|   \\  /    A nd           | Web:      www.OpenFOAM.org                      |
|    \\/     M anipulation  |                                                 |
\*---------------------------------------------------------------------------*/
FoamFile
{
    version     2.0;
    format      ascii;
    class       surfaceScalarField;
    location    "15000";
    object      phi;
}
// * * * * * * * * * * * * * * * * * * * * * * * * * * * * * * * * * * * * * //

dimensions      [0 3 -1 0 0 0 0];

internalField   nonuniform List<scalar> 
5988
(
0.00983923
-0.00874228
0.0182963
-0.00845704
0.0262172
-0.00792092
0.0333568
-0.00713963
0.0394833
-0.00612645
0.0443948
-0.00491151
0.0479506
-0.00355583
0.0501158
-0.0021652
0.0510014
-0.000885619
0.0508549
0.000146538
0.0499759
0.000879029
0.0485912
0.00138469
0.0467848
0.00180637
0.0445144
0.00227043
0.0416796
0.00283479
0.0382089
0.00347073
0.0341058
0.00410308
0.0294278
0.00467797
0.0243441
0.00508373
0.0192051
0.00513893
0.0143669
0.00483823
0.0101039
0.00426298
0.00654483
0.00355912
0.00363757
0.00290725
0.00118124
0.00245633
-0.00110967
0.00229091
-0.00354765
0.00243798
-0.00642043
0.00287278
-0.00993381
0.00351338
-0.0141467
0.00421292
-0.0189367
0.00478995
-0.0240323
0.00509559
-0.029079
0.00504675
-0.0337221
0.00464304
-0.0377839
0.0040618
-0.0412017
0.00341783
-0.0439688
0.00276711
-0.0461538
0.00218499
-0.0478517
0.00169793
-0.0490984
0.00124666
-0.0498053
0.00070695
-0.0497484
-5.69128e-05
-0.0486427
-0.0011057
-0.0462607
-0.00238203
-0.0425084
-0.00375227
-0.0374335
-0.0050749
-0.0311848
-0.00624871
-0.0239693
-0.00721549
-0.0160231
-0.00794626
-0.00759511
-0.00842796
0.00105955
-0.00865466
0.00968289
-0.00862334
0.0180174
-0.00833456
0.0258093
-0.00779185
0.0328116
-0.0070023
0.0387934
-0.0059818
0.0435584
-0.00476503
0.0469779
-0.00341951
0.0490356
-0.00205767
0.0498612
-0.000825552
0.0497065
0.000154692
0.0488521
0.000854402
0.0474921
0.00136001
0.045682
0.00181006
0.0433643
0.00231771
0.0404423
0.00292197
0.036864
0.00357831
0.0326528
0.00421116
0.0278871
0.00476574
0.0227907
0.00509634
0.0177383
0.00505248
0.0130673
0.004671
0.00901844
0.00404883
0.00567134
0.0033471
0.00292624
0.0027451
0.000551494
0.00237474
-0.00175124
0.00230274
-0.00429263
0.00254139
-0.00734361
0.00305098
-0.0110746
0.00373097
-0.015494
0.00441945
-0.0204334
0.00493933
-0.0255936
0.00516019
-0.030604
0.00501043
-0.0351496
0.00454564
-0.0391018
0.00395213
-0.042414
0.00331228
-0.0451012
0.00268715
-0.0472486
0.00214738
-0.0489502
0.00170167
-0.0502226
0.00127239
-0.0509463
0.000723669
-0.0508658
-8.04881e-05
-0.0496826
-0.00118319
-0.0471788
-0.00250383
-0.0432808
-0.003898
-0.038054
-0.00522682
-0.0316577
-0.00639624
-0.0243035
-0.00735426
-0.0162275
-0.008076
-0.00767672
-0.00855074
-0.00877367
0.00815368
-0.015988
0.0152527
-0.0155561
0.0220853
-0.0147535
0.0285543
-0.0136086
0.0345983
-0.0121704
0.0402038
-0.0105171
0.0454096
-0.00876164
0.0502884
-0.00704398
0.0548947
-0.00549194
0.0591984
-0.00415709
0.0630523
-0.00297495
0.0662334
-0.00179636
0.0685012
-0.000461469
0.0696137
0.00115791
0.0693132
0.0031353
0.0673369
0.00544705
0.0635177
0.0079223
0.0578584
0.0103373
0.0505796
0.0123625
0.0422117
0.0135068
0.0334071
0.0136428
0.024809
0.0128611
0.0168788
0.0114893
0.00975698
0.0100291
0.00326602
0.00894729
-0.00297894
0.00853587
-0.00943439
0.00889343
-0.0164914
0.0099298
-0.0243395
0.0113615
-0.0328529
0.0127263
-0.0415805
0.0135176
-0.0498814
0.0133965
-0.0571022
0.0122675
-0.0627049
0.0102458
-0.0664629
0.00781978
-0.0683708
0.00532579
-0.0685935
0.00298981
-0.0673936
0.000985011
-0.0650326
-0.000663033
-0.0617587
-0.00202729
-0.0578167
-0.00323497
-0.0534308
-0.00444289
-0.0487432
-0.00579326
-0.0437825
-0.00734277
-0.0384973
-0.00903743
-0.032821
-0.0107512
-0.026722
-0.0123477
-0.0202201
-0.0137174
-0.013382
-0.0147844
-0.00630828
-0.0155017
0.000879548
-0.0158425
0.00805154
-0.0157953
0.0150788
-0.0153618
0.0218436
-0.0145567
0.0282523
-0.013411
0.0342486
-0.0119781
0.0398251
-0.0103415
0.0450246
-0.00861907
0.0499163
-0.0069493
0.0545377
-0.005447
0.0588332
-0.00414074
0.0626351
-0.00294752
0.0657107
-0.00171562
0.0678135
-0.000292759
0.0686933
0.00143793
0.0680845
0.00353077
0.0657368
0.00592599
0.0615237
0.00842427
0.055496
0.0107935
0.0479524
0.0126399
0.0394857
0.0135192
0.030754
0.0134027
0.0223695
0.0124333
0.0147129
0.0110037
0.0078275
0.00963053
0.00146263
0.00873962
-0.00480078
0.00856615
-0.0114143
0.00915491
-0.0187252
0.0103619
-0.0268414
0.0118472
-0.035539
0.013117
-0.0442965
0.0136969
-0.0524575
0.0133212
-0.059377
0.01193
-0.0645971
0.0097657
-0.0679596
0.00731467
-0.0695052
0.0048579
-0.0694351
0.00261703
-0.0680169
0.000729136
-0.0655032
-0.000811964
-0.062135
-0.00209588
-0.0581509
-0.00326038
-0.0537631
-0.00446831
-0.0490909
-0.00585535
-0.044138
-0.00745675
-0.0388394
-0.00919667
-0.0331272
-0.010939
-0.0269751
-0.0125483
-0.0204091
-0.0139202
-0.0135008
-0.0149843
-0.00635395
-0.0156976
-0.0160356
0.0077638
-0.0228879
0.0145608
-0.022353
0.0211723
-0.021365
0.0275317
-0.019968
0.0335923
-0.018231
0.0393257
-0.0162505
0.0447103
-0.0141462
0.0497105
-0.0120442
0.0542565
-0.010038
0.058246
-0.00814655
0.0615725
-0.00630148
0.0641604
-0.00438425
0.0659791
-0.00228018
0.0670424
9.46525e-05
0.0673909
0.00278682
0.0670198
0.0058181
0.065723
0.00921913
0.0630689
0.0129913
0.0585727
0.0168587
0.0519059
0.0201737
0.0432717
0.022277
0.0335314
0.0226014
0.023585
0.0214357
0.0139668
0.0196472
0.00476134
0.0181528
-0.00425759
0.0175548
-0.0134235
0.0180593
-0.0229729
0.0194792
-0.0328414
0.02123
-0.0425175
0.0224023
-0.0511145
0.0221147
-0.0577632
0.0200452
-0.0622371
0.0167414
-0.0648556
0.0128642
-0.0661031
0.00906735
-0.0664147
0.00563739
-0.0660003
0.00257541
-0.0648656
-0.000149751
-0.0629701
-0.00255848
-0.060302
-0.00469539
-0.0568949
-0.00664208
-0.0528277
-0.00851007
-0.0482084
-0.0104126
-0.0431396
-0.0124116
-0.0376921
-0.0144849
-0.0319042
-0.016539
-0.0258015
-0.0184505
-0.0194166
-0.0201023
-0.0127997
-0.0214012
-0.0060201
-0.0222813
0.000838906
-0.0227015
0.00768684
-0.0226433
0.0144342
-0.0221092
0.0210005
-0.0211229
0.0273208
-0.0197313
0.0333496
-0.0180069
0.0390573
-0.0160492
0.0444175
-0.0139792
0.0493853
-0.0119172
0.0538812
-0.00994288
0.0577977
-0.00805726
0.0610314
-0.00618119
0.0635135
-0.0041977
0.0652216
-0.00200095
0.0661776
0.000481961
0.0664211
0.00328732
0.0659122
0.00643489
0.0643767
0.00995972
0.061351
0.0138192
0.0563656
0.0176253
0.0491927
0.020692
0.0402427
0.0223527
0.0304468
0.0222293
0.0206244
0.0208261
0.0111751
0.0190798
0.00207247
0.0178422
-0.00696181
0.0176004
-0.0162539
0.018447
-0.0259733
0.0200813
-0.0359336
0.0218075
-0.0454926
0.022676
-0.0537091
0.0219134
-0.0598376
0.0194497
-0.0638435
0.0159358
-0.0661208
0.012043
-0.0671573
0.00835122
-0.0673433
0.00504389
-0.066823
0.00209676
-0.0655779
-0.000516014
-0.0635702
-0.00281965
-0.0607965
-0.00486961
-0.0572986
-0.00675829
-0.0531619
-0.00860498
-0.0484956
-0.0105217
-0.0433957
-0.0125566
-0.0379227
-0.0146697
-0.0321066
-0.0167551
-0.025969
-0.0186859
-0.0195422
-0.0203469
-0.0128781
-0.0216485
-0.00604753
-0.0225281
-0.022947
0.00743639
-0.0294971
0.0139662
-0.0288829
0.0203515
-0.0277503
0.0265354
-0.0261519
0.0324689
-0.0241646
0.0381055
-0.021887
0.0433898
-0.0194306
0.0482472
-0.0169016
0.0525819
-0.0143727
0.0562936
-0.0118582
0.0593024
-0.00931035
0.0615645
-0.00664628
0.063068
-0.00378373
0.0638236
-0.00066096
0.0638505
0.00275999
0.0631665
0.00650204
0.0618024
0.0105833
0.0597971
0.0149967
0.056978
0.0196778
0.0526917
0.02446
0.0462388
0.0287299
0.0375106
0.0313296
0.027299
0.0316473
0.0165433
0.030403
0.00573162
0.0289645
-0.00504253
0.028329
-0.0158224
0.0288392
-0.0265298
0.0301867
-0.0367057
0.0314059
-0.0454338
0.0311303
-0.0519038
0.0285847
-0.0561933
0.0243347
-0.0589884
0.0195366
-0.0609517
0.0148275
-0.062266
0.0103817
-0.0628938
0.00626522
-0.0628044
0.00248601
-0.0619808
-0.000973411
-0.060405
-0.0041342
-0.0580685
-0.0070319
-0.0549853
-0.00972533
-0.0512021
-0.0122932
-0.046801
-0.0148138
-0.041883
-0.0173295
-0.0365447
-0.0198232
-0.0308623
-0.0222215
-0.0248933
-0.0244195
-0.018687
-0.0263085
-0.012295
-0.0277932
-0.0057759
-0.0288004
0.00080462
-0.029282
0.00737658
-0.0292152
0.0138707
-0.0286032
0.0202227
-0.0274749
0.0263759
-0.0258846
0.0322801
-0.0239111
0.0378849
-0.0216541
0.0431293
-0.0192235
0.0479315
-0.0167194
0.0521919
-0.0142033
0.0558117
-0.0116771
0.0587169
-0.00908636
0.0608692
-0.00634997
0.062261
-0.00339279
0.0629047
-0.000161781
0.0628183
0.00337372
0.0620196
0.0072336
0.0605463
0.0114331
0.0584142
0.0159513
0.055332
0.0207075
0.0505634
0.0254606
0.0435169
0.0293993
0.0343409
0.0314053
0.0239648
0.0312022
0.0132147
0.0298299
0.00243726
0.0286197
-0.00834261
0.0283803
-0.0191587
0.0292631
-0.0298447
0.0307673
-0.0397911
0.0317539
-0.0480084
0.0308933
-0.0538915
0.0277965
-0.0577451
0.0233032
-0.0603238
0.0185145
-0.0621704
0.0138896
-0.0633723
0.00955314
-0.0638838
0.00555537
-0.06368
0.00189298
-0.0627426
-0.00145336
-0.0610534
-0.00450891
-0.058606
-0.00731699
-0.0554192
-0.00994509
-0.0515459
-0.0124782
-0.0470733
-0.0149943
-0.0421027
-0.0175272
-0.0367256
-0.0200468
-0.0310113
-0.0224695
-0.0250117
-0.0246855
-0.0187734
-0.0265853
-0.0123468
-0.0280751
-0.00579101
-0.0290839
-0.0295652
0.00707789
-0.0357878
0.0133
-0.035105
0.0193953
-0.0338455
0.0253082
-0.0320649
0.0309847
-0.0298411
0.0363666
-0.0272689
0.0413856
-0.0244496
0.0459588
-0.0214747
0.0499926
-0.0184066
0.0533976
-0.0152632
0.0561056
-0.0120184
0.058079
-0.00861965
0.0593066
-0.00501135
0.0597953
-0.00114964
0.0595624
0.00299284
0.0586351
0.00742933
0.0570547
0.0121637
0.0548636
0.0171877
0.052072
0.0224695
0.0486045
0.0279274
0.0440194
0.033315
0.0373681
0.0379809
0.0283186
0.0406967
0.0176352
0.0410863
0.00621444
0.0403853
-0.00539834
0.0399417
-0.0168081
0.0402489
-0.0274892
0.0408679
-0.0365716
0.0404883
-0.0432708
0.0378295
-0.0478723
0.0331861
-0.0513215
0.027784
-0.0540819
0.0222969
-0.0562338
0.0169794
-0.0577679
0.0119158
-0.0586424
0.00713968
-0.0588164
0.00266002
-0.058264
-0.00152582
-0.0569692
-0.00542898
-0.054927
-0.00907409
-0.0521506
-0.0125017
-0.0486801
-0.0157638
-0.0445853
-0.0189086
-0.0399569
-0.0219579
-0.034889
-0.024891
-0.0294658
-0.0276447
-0.0237571
-0.0301282
-0.0178228
-0.0322427
-0.0117193
-0.0338968
-0.00550307
-0.0350166
0.000766584
-0.0355517
0.00702882
-0.0354775
0.013223
-0.0347975
0.0192907
-0.0335426
0.0251754
-0.0317693
0.0308207
-0.0295564
0.0361648
-0.0269982
0.0411345
-0.0241932
0.0456425
-0.0212274
0.0495938
-0.0181546
0.0529015
-0.0149847
0.0555024
-0.0116873
0.0573637
-0.00821124
0.0584773
-0.00450644
0.0588516
-0.000536079
0.0585046
0.00372072
0.0574655
0.0082727
0.0557781
0.0131205
0.053479
0.0182504
0.0505658
0.0236208
0.046906
0.0291204
0.0418783
0.034427
0.0345814
0.0387022
0.0250174
0.0407662
0.0140934
0.0407539
0.00259574
0.0401174
-0.00900712
0.0399831
-0.0203095
0.0405655
-0.0306894
0.0411471
-0.0391937
0.0402582
-0.04527
0.0369696
-0.0495027
0.0320292
-0.0527864
0.0265869
-0.0554296
0.0211577
-0.0574736
0.0159336
-0.0588983
0.0109779
-0.0596586
0.00631563
-0.0597166
0.00195098
-0.059048
-0.00212194
-0.0576376
-0.00591932
-0.0554821
-0.00947245
-0.0525985
-0.0128288
-0.0490318
-0.0160449
-0.0448568
-0.0191693
-0.0401657
-0.0222183
-0.0350503
-0.0251621
-0.0295901
-0.0279297
-0.0238502
-0.0304254
-0.0178873
-0.0325482
-0.0117555
-0.0342069
-0.00551092
-0.0353285
-0.0358634
0.0066732
-0.0417184
0.0125389
-0.0409707
0.0182827
-0.0395893
0.0238477
-0.0376298
0.0291753
-0.0351687
0.0342019
-0.0322955
0.0388554
-0.0291031
0.043055
-0.0256743
0.0467164
-0.022068
0.0497628
-0.0183096
0.0521365
-0.0143921
0.0538044
-0.0102875
0.054755
-0.00596202
0.0549927
-0.00138728
0.0545316
0.00345393
0.0533946
0.00856631
0.0516155
0.0139428
0.0492402
0.0195631
0.0463216
0.0253881
0.0428936
0.0313554
0.0388558
0.0373528
0.0337367
0.0431
0.0265846
0.0478488
0.0171259
0.050545
0.00615958
0.0513516
-0.00529532
0.0513966
-0.0162829
0.0512365
-0.0257964
0.0503813
-0.0330182
0.04771
-0.0381703
0.0429817
-0.042203
0.0372188
-0.0456089
0.0311899
-0.0484972
0.0251852
-0.050836
0.0193182
-0.0525726
0.0136524
-0.0536612
0.00822826
-0.0540684
0.00306724
-0.0537725
-0.00182175
-0.0527604
-0.00644104
-0.0510297
-0.0108049
-0.0485934
-0.014938
-0.0454865
-0.0188706
-0.0417685
-0.0226266
-0.0375172
-0.0262093
-0.0328177
-0.0295905
-0.0277521
-0.0327104
-0.0223936
-0.0354867
-0.0168075
-0.0378289
-0.0110539
-0.0396504
-0.00519094
-0.0408796
0.000723259
-0.0414659
0.00663037
-0.0413846
0.0124721
-0.0406392
0.0181905
-0.039261
0.0237271
-0.0373059
0.0290209
-0.0348502
0.034005
-0.0319822
0.0386036
-0.0287919
0.0427336
-0.0253573
0.0463101
-0.0217312
0.049259
-0.0179335
0.0515265
-0.0139548
0.0530834
-0.00976816
0.053921
-0.00534402
0.0540447
-0.000659822
0.0534696
0.00429579
0.05222
0.00952232
0.0503324
0.0150081
0.0478551
0.0207277
0.0448406
0.0266352
0.0413017
0.0326592
0.0370652
0.0386635
0.0314955
0.0442719
0.023691
0.0485707
0.0137257
0.0507192
0.00253666
0.0513064
-0.00888734
0.0514071
-0.019584
0.0512621
-0.0285268
0.0500899
-0.0351133
0.0468448
-0.0398917
0.0417481
-0.0437566
0.0358941
-0.0470584
0.0298887
-0.0498487
0.023948
-0.0520827
0.0181676
-0.0537083
0.0126034
-0.0546822
0.00728956
-0.0549737
0.00224252
-0.0545623
-0.00253342
-0.0534356
-0.00704595
-0.0515929
-0.0113152
-0.0490502
-0.0153715
-0.0458466
-0.0192485
-0.0420455
-0.0229705
-0.0377266
-0.0265372
-0.0329742
-0.0299145
-0.0278673
-0.0330366
-0.0224756
-0.0358171
-0.0168613
-0.0381625
-0.0110822
-0.0399859
-0.00519517
-0.0412155
-0.0418011
0.0062123
-0.0472388
0.0116678
-0.0464262
0.0170004
-0.0449219
0.0221514
-0.0427808
0.02706
-0.0400773
0.0316612
-0.0368968
0.0358851
-0.033327
0.0396573
-0.0294466
0.0429047
-0.0253153
0.0455624
-0.0209672
0.0475818
-0.0164115
0.0489338
-0.0116396
0.0496073
-0.0066355
0.0496048
-0.0013848
0.048939
0.0041197
0.0476312
0.00987414
0.0457118
0.0158622
0.0432212
0.0220536
0.0402078
0.0284015
0.0367211
0.034842
0.0327812
0.0412927
0.0282511
0.0476302
0.0225751
0.0535247
0.0149621
0.058158
0.00550599
0.0608078
-0.00468034
0.061583
-0.0141869
0.060743
-0.0218771
0.0580716
-0.0276056
0.0534385
-0.0321453
0.0475214
-0.0360741
0.0411475
-0.0395404
0.0346563
-0.0425273
0.028172
-0.0449854
0.0217764
-0.0468668
0.0155338
-0.0481311
0.00949256
-0.0487484
0.00368451
-0.0486982
-0.00187188
-0.0479692
-0.0071701
-0.0465599
-0.0122141
-0.0444832
-0.0170147
-0.0417697
-0.0215841
-0.0384694
-0.0259269
-0.0346482
-0.0300305
-0.0303805
-0.0338582
-0.0257415
-0.0373493
-0.0208026
-0.0404256
-0.0156303
-0.0430012
-0.0102869
-0.0449938
-0.00483255
-0.0463339
0.00067364
-0.046972
0.00617269
-0.0468836
0.0116056
-0.0460721
0.0169132
-0.0445685
0.0220348
-0.0424275
0.0269073
-0.0397227
0.0314631
-0.036538
0.0356296
-0.0329585
0.0393313
-0.029059
0.042495
-0.0248948
0.045058
-0.0204966
0.0469749
-0.0158717
0.0482197
-0.0110129
0.0487834
-0.00590776
0.0486702
-0.000546551
0.0478935
0.0050724
0.0464762
0.0109397
0.0444505
0.0170338
0.0418592
0.023319
0.0387515
0.0297429
0.0351737
0.0362371
0.0311219
0.0427153
0.0263692
0.0490245
0.0202172
0.0547227
0.012028
0.0589084
0.00223296
0.0611014
-0.00790366
0.0615438
-0.0169874
0.0603459
-0.0240928
0.0571953
-0.0294095
0.0521614
-0.0337655
0.0461041
-0.0375919
0.0397205
-0.0409665
0.0332633
-0.0438566
0.0268381
-0.0462114
0.0205224
-0.0479843
0.0143764
-0.0491372
0.00844245
-0.049642
0.00274731
-0.0494796
-0.00269585
-0.0486395
-0.00788604
-0.0471221
-0.0128326
-0.0449427
-0.0175509
-0.0421352
-0.022056
-0.0387525
-0.0263531
-0.0348625
-0.0304272
-0.0305392
-0.0342378
-0.0258561
-0.0377197
-0.020882
-0.0407911
-0.0156808
-0.0433638
-0.0103126
-0.0453542
-0.00483574
-0.0466924
-0.0473287
0.00569577
-0.0522995
0.0106903
-0.0514207
0.0155594
-0.049791
0.0202434
-0.0474649
0.0246812
-0.0445151
0.0288095
-0.041025
0.0325628
-0.0370803
0.0358754
-0.0327592
0.0386848
-0.0281248
0.0409375
-0.02322
0.0425935
-0.0180675
0.0436286
-0.0126746
0.0440332
-0.00704011
0.0438101
-0.00116167
0.0429714
0.00495838
0.0415376
0.011308
0.039537
0.0178627
0.0370063
0.0245843
0.0339888
0.031419
0.0305315
0.0382993
0.0266767
0.0451476
0.0224259
0.051881
0.0176014
0.0583492
0.0116783
0.0640811
0.00436065
0.0681254
-0.00364387
0.0695875
-0.0110134
0.0681126
-0.016993
0.0640512
-0.0218413
0.0582868
-0.0260922
0.0517723
-0.0299368
0.0449921
-0.0333772
0.0380967
-0.036372
0.0311668
-0.0388745
0.0242789
-0.0408416
0.0175009
-0.0422369
0.0108879
-0.0430326
0.00448015
-0.0432088
-0.00169566
-0.0427543
-0.00762457
-0.0416676
-0.0133008
-0.0399593
-0.0187231
-0.037655
-0.0238885
-0.0347959
-0.028786
-0.0314368
-0.0333895
-0.0276413
-0.0376537
-0.0234764
-0.0415142
-0.0190089
-0.0448931
-0.0143036
-0.0477065
-0.00942326
-0.0498741
-0.00442923
-0.051328
0.000617878
-0.0520192
0.00565768
-0.0519234
0.0106298
-0.0510442
0.0154734
-0.0494121
0.0201269
-0.0470811
0.0245272
-0.044123
0.0286088
-0.0406196
0.0323047
-0.0366543
0.0355482
-0.0323025
0.0382774
-0.0276241
0.0404405
-0.0226596
0.0419998
-0.017431
0.0429336
-0.0119468
0.0432345
-0.00620863
0.0429065
-0.00021861
0.0419631
0.00601579
0.040426
0.0124769
0.0383251
0.0191346
0.0356988
0.0259453
0.0325913
0.0328504
0.0290492
0.0397791
0.0251099
0.0466546
0.0207445
0.0533899
0.0156799
0.0597874
0.00935588
0.0652325
0.00172526
0.068732
-0.00622892
0.0694979
-0.013231
0.067348
-0.0188334
0.0627977
-0.023483
0.056811
-0.0276315
0.0502526
-0.0313923
0.0434813
-0.0347462
0.0366173
-0.0376488
0.0297406
-0.0400534
0.022927
-0.0419181
0.0162411
-0.0432084
0.00973274
-0.0438978
0.00343667
-0.0439678
-0.00262584
-0.0434084
-0.00844542
-0.0422197
-0.0140213
-0.0404144
-0.0193561
-0.0380208
-0.0244497
-0.0350825
-0.0292914
-0.0316557
-0.033854
-0.0278042
-0.0380893
-0.0235939
-0.04193
-0.0190898
-0.0452952
-0.0143547
-0.0480989
-0.00944919
-0.0502597
-0.00443292
-0.0517086
-0.0523967
0.00512782
-0.0568548
0.00961595
-0.0559089
0.0139774
-0.0541524
0.0181524
-0.05164
0.0220815
-0.0484441
0.0257047
-0.0446482
0.0289628
-0.0403383
0.0317986
-0.035595
0.0341602
-0.0304864
0.0360042
-0.025064
0.0372991
-0.0193623
0.0380262
-0.0134017
0.0381794
-0.00719334
0.0377633
-0.000745565
0.0367912
0.00593047
0.0352841
0.0128151
0.0332701
0.0198768
0.0307841
0.0270703
0.0278676
0.0343356
0.0245672
0.0415996
0.0209342
0.0487806
0.0170205
0.0557947
0.0128399
0.0625298
0.00825267
0.0686683
0.00305944
0.0733187
-0.00248133
0.0751282
-0.00770227
0.0733335
-0.0123131
0.068662
-0.0165001
0.0624738
-0.0204109
0.0556832
-0.0240352
0.0486163
-0.0273216
0.041383
-0.030219
0.0340642
-0.0326809
0.0267408
-0.034666
0.0194861
-0.0361397
0.0123616
-0.0370741
0.00541456
-0.0374489
-0.0013209
-0.0372513
-0.00782209
-0.0364778
-0.0140743
-0.0351355
-0.0200654
-0.033244
-0.02578
-0.0308361
-0.0311939
-0.0279563
-0.0362694
-0.0246578
-0.0409522
-0.0209992
-0.0451729
-0.0170411
-0.0488511
-0.0128451
-0.0519024
-0.00847266
-0.0542466
-0.00398502
-0.0558156
0.000556511
-0.0565607
0.00509062
-0.0564575
0.00955601
-0.0555096
0.0138914
-0.0537475
0.0180354
-0.0512251
0.0219266
-0.0480141
0.0255036
-0.0441966
0.0287058
-0.0398566
0.0314759
-0.0350726
0.0337624
-0.0299105
0.0355232
-0.0244205
0.0367289
-0.0186367
0.0373629
-0.0125807
0.0374208
-0.00626657
0.0369088
0.000293477
0.0358412
0.0070833
0.0342405
0.0140776
0.0321361
0.0212391
0.0295644
0.0285171
0.026568
0.0358468
0.0231946
0.0431524
0.0194966
0.0503526
0.0155215
0.057365
0.0112546
0.0640543
0.00650378
0.0699833
0.00115544
0.0740804
-0.00435773
0.0750111
-0.00940312
0.0723934
-0.0138677
0.0672623
-0.0179791
0.0609224
-0.0218283
0.0541019
-0.0253851
0.047038
-0.0285961
0.0398283
-0.0314113
0.0325559
-0.0337853
0.025301
-0.0356781
0.0181339
-0.0370564
0.011111
-0.0378939
0.00427411
-0.0381713
-0.00234842
-0.0378773
-0.00873935
-0.03701
-0.0148887
-0.0355781
-0.020788
-0.0336037
-0.0264241
-0.0311213
-0.0317738
-0.0281767
-0.0367986
-0.0248236
-0.0414425
-0.0211197
-0.0456339
-0.0171246
-0.0492902
-0.0128982
-0.0523253
-0.0085001
-0.0546578
-0.00398994
-0.0562188
-0.0569592
0.00451414
-0.0608638
0.00845649
-0.0598512
0.0122733
-0.0579692
0.0159065
-0.0552732
0.0192994
-0.051837
0.0223968
-0.0477456
0.0251462
-0.0430878
0.0274992
-0.037948
0.0294135
-0.0324006
0.0308551
-0.0265056
0.0318007
-0.0203079
0.032238
-0.013839
0.0321653
-0.00712068
0.0315907
-0.00017089
0.03053
0.0069911
0.0290066
0.0143385
0.0270503
0.0218332
0.0246972
0.0294233
0.0219906
0.0370422
0.0189811
0.044609
0.0157305
0.0520313
0.0123183
0.0592069
0.00884483
0.0660033
0.00539166
0.0721215
0.00194986
0.0767605
-0.00150244
0.0785805
-0.00494749
0.0767786
-0.00840104
0.0721156
-0.0118717
0.0659445
-0.0152791
0.0590905
-0.0185218
0.0518591
-0.0215193
0.0443806
-0.0242099
0.0367548
-0.0265426
0.0290734
-0.0284744
0.0214179
-0.0299691
0.0138563
-0.0309973
0.00644272
-0.031536
-0.000782176
-0.0315698
-0.00778834
-0.0310913
-0.0145528
-0.030103
-0.0210537
-0.0286181
-0.0272649
-0.0266611
-0.0331509
-0.0242669
-0.0386635
-0.0214792
-0.0437399
-0.0183479
-0.0483042
-0.0149272
-0.0522719
-0.0112738
-0.0555558
-0.00744647
-0.058074
-0.00350492
-0.0597572
0.00049022
-0.0605558
0.00447798
-0.0604453
0.00839743
-0.0594291
0.0121881
-0.0575382
0.0157905
-0.0548275
0.0191463
-0.0513699
0.0221992
-0.0472495
0.0248959
-0.0425534
0.0271879
-0.0373646
0.0290334
-0.0317559
0.0303997
-0.0257868
0.0312652
-0.0195022
0.0316192
-0.0129348
0.0314619
-0.00610927
0.0308027
0.000952733
0.0296589
0.0082271
0.028055
0.0156814
0.0260223
0.0232718
0.0235985
0.0309409
0.0208284
0.0386169
0.0177651
0.0462157
0.0144744
0.0536434
0.0110423
0.0607971
0.00757175
0.0675248
0.00412434
0.0734307
0.000677842
0.0775269
-0.00277231
0.0784613
-0.00621285
0.0758339
-0.00967356
0.070723
-0.0131416
0.0643904
-0.0165229
0.0574832
-0.0197211
0.0502362
-0.0226616
0.0427688
-0.025286
0.0351803
-0.0275456
0.0275606
-0.029399
0.0199873
-0.0308115
0.0125235
-0.0317548
0.00521747
-0.0322076
-0.00189569
-0.0321555
-0.0087914
-0.031593
-0.0154512
-0.0305241
-0.0218569
-0.0289638
-0.0279843
-0.0269384
-0.0337993
-0.0244839
-0.0392531
-0.0216443
-0.0442821
-0.0184693
-0.0488089
-0.0150122
-0.0527473
-0.0113285
-0.056009
-0.00747544
-0.0585108
-0.00351121
-0.060183
-0.0609756
0.00386051
-0.0642911
0.00722329
-0.063214
0.0104649
-0.0612109
0.0135305
-0.0583388
0.0163675
-0.0546739
0.0189264
-0.0503046
0.0211619
-0.0453233
0.0230339
-0.03982
0.024509
-0.0338757
0.0255622
-0.0275589
0.026178
-0.0209237
0.0263505
-0.0140115
0.0260834
-0.0068536
0.025389
0.000523508
0.0242872
0.00809291
0.0228046
0.015821
0.0209745
0.0236633
0.0188363
0.0315615
0.0164373
0.0394412
0.0138345
0.0472118
0.0110997
0.0547661
0.0083292
0.0619774
0.00565691
0.0686756
0.00323784
0.0745405
0.0011382
0.0788601
-0.000801585
0.0805203
-0.00289217
0.0788691
-0.0053007
0.0745241
-0.00796515
0.068609
-0.010729
0.0618544
-0.013456
0.054586
-0.0160483
0.0469729
-0.0184337
0.0391402
-0.0205549
0.0311946
-0.0223645
0.0232275
-0.0238229
0.0153148
-0.0248972
0.00751703
-0.0255609
-0.000118487
-0.0257944
-0.00755484
-0.0255859
-0.0147613
-0.0249324
-0.0217072
-0.0238403
-0.0283569
-0.0223263
-0.0346649
-0.0204165
-0.0405733
-0.0181455
-0.0460109
-0.0155548
-0.0508949
-0.0126916
-0.0551351
-0.00960697
-0.0586404
-0.00635548
-0.0613255
-0.00299383
-0.0631188
0.000419676
-0.0639693
0.00382603
-0.0638517
0.00716632
-0.0627694
0.0103826
-0.0607544
0.0134185
-0.0578634
0.0162203
-0.0541718
0.0187377
-0.0497669
0.0209248
-0.0447405
0.0227417
-0.0391814
0.0241555
-0.0331698
0.0251424
-0.0267737
0.0256882
-0.020048
0.0257889
-0.0130354
0.0254496
-0.00577
0.0246842
0.00171817
0.0235139
0.00939735
0.021967
0.0172284
0.0200778
0.025161
0.0178879
0.0331308
0.0154467
0.0410581
0.0128144
0.0488479
0.0100685
0.0563894
0.00731498
0.0635505
0.00469942
0.0701404
0.00236995
0.0757602
0.000341245
0.0795556
-0.00160954
0.080412
-0.00378143
0.0780058
-0.00627397
0.0732155
-0.00898423
0.0671006
-0.0117566
0.0602555
-0.0144667
0.0529463
-0.0170255
0.0453276
-0.0193654
0.0375202
-0.0214322
0.0296274
-0.0231805
0.0217357
-0.0245725
0.0139155
-0.0255766
0.00622156
-0.0261677
-0.00130457
-0.0263277
-0.00863137
-0.0260465
-0.0157325
-0.0253224
-0.0225809
-0.0241638
-0.029143
-0.0225886
-0.0353745
-0.020624
-0.0412177
-0.0183051
-0.046601
-0.0156735
-0.0514405
-0.0127756
-0.0556452
-0.00966176
-0.0591228
-0.00638516
-0.0617874
-0.00300122
-0.0635669
-0.06441
0.00317214
-0.0671059
0.00592642
-0.0659683
0.00856759
-0.063852
0.0110453
-0.0608165
0.0133124
-0.056941
0.0153259
-0.052318
0.0170477
-0.0470451
0.0184459
-0.0412182
0.0194955
-0.0349253
0.0201797
-0.028243
0.0204902
-0.0212342
0.0204276
-0.0139489
0.0200011
-0.00642706
0.0192276
0.00129693
0.0181316
0.00918896
0.0167436
0.017209
0.0151005
0.0253064
0.013246
0.0334161
0.0112314
0.0414558
0.00911873
0.0493244
0.00698537
0.0568994
0.00493223
0.0640305
0.00309298
0.0705149
0.00161578
0.0760177
0.000551517
0.0799244
-0.000310856
0.0813827
-0.00136322
0.0799215
-0.00282681
0.0759877
-0.00465598
0.0704381
-0.00670132
0.0638997
-0.00882684
0.0567116
-0.0109302
0.0490762
-0.0129333
0.0411433
-0.0147738
0.0330351
-0.0164
0.0248537
-0.0177683
0.0166831
-0.0188417
0.00859044
-0.0195896
0.000629397
-0.0199879
-0.00715656
-0.0200198
-0.0147293
-0.0196767
-0.0220503
-0.0189586
-0.0290751
-0.0178744
-0.0357491
-0.0164422
-0.0420055
-0.0146882
-0.047765
-0.0126457
-0.0529374
-0.0103544
-0.0574264
-0.00785922
-0.0611356
-0.00520905
-0.0639756
-0.00245606
-0.0658718
0.000345474
-0.0667709
0.00314031
-0.0666465
0.00587334
-0.0655024
0.00849068
-0.0633717
0.0109409
-0.0603136
0.0131759
-0.0564067
0.0151519
-0.051743
0.0168309
-0.0464195
0.0181809
-0.0405314
0.0191777
-0.0341665
0.0198054
-0.0274015
0.0200573
-0.0202999
0.0199354
-0.0129135
0.0194505
-0.00528509
0.0186211
0.00254752
0.0174731
0.0105454
0.0160386
0.0186629
0.0143561
0.0268434
0.0124711
0.0350157
0.0104376
0.0430916
0.00832121
0.0509643
0.00620485
0.0585057
0.00419849
0.0655569
0.00244559
0.0718933
0.00108582
0.07712
0.000111395
0.08053
-0.00076517
0.0812886
-0.00192163
0.0791623
-0.00349784
0.0747918
-0.00540279
0.0690056
-0.00748618
0.0623389
-0.00962249
0.0550827
-0.0117174
0.0474225
-0.013698
0.0395008
-0.0155051
0.0314344
-0.0170893
0.0233199
-0.0184088
0.015235
-0.0194283
0.00724102
-0.0201185
-0.000614335
-0.020457
-0.00829288
-0.0204285
-0.015761
-0.020026
-0.0229834
-0.019251
-0.029918
-0.0181138
-0.0365116
-0.0166335
-0.042698
-0.0148368
-0.0483977
-0.0127573
-0.05352
-0.0104343
-0.0579682
-0.00791189
-0.0616452
-0.00523813
-0.0644612
-0.00246404
-0.066341
-0.0672314
0.0024535
-0.0692812
0.00457442
-0.0680892
0.0065939
-0.0658715
0.00846762
-0.0626902
0.010155
-0.0586284
0.01162
-0.0537831
0.0128324
-0.0482574
0.0137678
-0.0421536
0.0144092
-0.0355668
0.0147471
-0.0285809
0.01478
-0.021267
0.0145144
-0.0136832
0.0139647
-0.00587736
0.0131525
0.00210908
0.0121063
0.0102352
0.0108604
0.0184549
0.00945504
0.0267117
0.00793687
0.0349343
0.00635979
0.0430329
0.00478729
0.0508969
0.0032958
0.0583909
0.00197936
0.065347
0.000951379
0.0715429
0.00032059
0.0766485
9.51842e-05
0.0801498
5.75705e-05
0.0814203
-0.000157204
0.0801363
-0.00077509
0.0766056
-0.00179275
0.0714558
-0.00310106
0.065208
-0.00458501
0.0581955
-0.00614935
0.0506406
-0.00771696
0.0427109
-0.00922394
0.0345421
-0.010616
0.0262458
-0.0118465
0.0179135
-0.0128749
0.00961883
-0.0136667
0.00142122
-0.0141936
-0.00662964
-0.0144341
-0.0144888
-0.0143742
-0.0221103
-0.0140077
-0.0294416
-0.0133368
-0.0364199
-0.012372
-0.0429704
-0.0111315
-0.0490055
-0.00964077
-0.054428
-0.00793193
-0.0591352
-0.00604256
-0.063025
-0.004015
-0.0660032
-0.00189527
-0.0679915
0.000268117
-0.0689343
0.00242548
-0.0688039
0.00452729
-0.0676042
0.00652551
-0.06537
0.00837492
-0.062163
0.0100342
-0.058066
0.0114671
-0.0531759
0.0126429
-0.0475953
0.013538
-0.0414264
0.0141358
-0.0347643
0.0144279
-0.0276936
0.0144142
-0.0202862
0.0141027
-0.012602
0.0135093
-0.00469171
0.0126572
0.00339955
0.0115765
0.0116262
0.0103029
0.0199365
0.00887845
0.0282679
0.00735158
0.0365426
0.00577864
0.0446646
0.00422635
0.0525166
0.00277575
0.0599563
0.00152708
0.0668056
0.000598255
0.0728221
8.52144e-05
0.077633
-5.64666e-05
0.0806717
-0.000107174
0.0813393
-0.000420504
0.0794756
-0.00115452
0.0755258
-0.00226347
0.0701145
-0.00363205
0.0637075
-0.00515096
0.0566016
-0.00673084
0.0490024
-0.00829876
0.0410687
-0.0097938
0.0329295
-0.011164
0.0246901
-0.0123643
0.0164353
-0.013356
0.0082327
-0.014106
0.000135727
-0.0145877
-0.00781123
-0.014781
-0.0155677
-0.0146735
-0.0230909
-0.0142606
-0.0303309
-0.0135458
-0.0372265
-0.0125404
-0.0437034
-0.0112635
-0.0496746
-0.00974075
-0.0550428
-0.00800405
-0.0597049
-0.00609057
-0.0635587
-0.00404191
-0.0665098
-0.00190318
-0.0684798
-0.0694127
0.00170846
-0.0707937
0.00317453
-0.0695552
0.00455443
-0.0672514
0.00581124
-0.063947
0.00691197
-0.0597291
0.00782841
-0.0546995
0.00853786
-0.0489669
0.00902373
-0.0426395
0.00927612
-0.0358192
0.00929219
-0.028597
0.00907638
-0.0210512
0.00864048
-0.0132473
0.00800336
-0.00524024
0.0071906
0.00292184
0.0062339
0.0111919
0.00517041
0.0195184
0.0040425
0.0278396
0.00289795
0.0360788
0.00179052
0.0441403
0.000781166
0.0519063
-6.0481e-05
0.0592326
-0.000655159
0.0659416
-0.000918421
0.0718061
-0.000787005
0.0765171
-0.000292156
0.0796549
0.000361569
0.0807666
0.000864693
0.0796332
0.00100686
0.0764634
0.000752933
0.0717097
0.000165841
0.0657951
-0.000669056
0.0590304
-0.00167166
0.0516432
-0.00277174
0.043811
-0.00390798
0.0356783
-0.00502626
0.0273641
-0.00607855
0.0189658
-0.00702224
0.0105625
-0.00781999
0.00221897
-0.00844
-0.00600963
-0.00885673
-0.0140721
-0.00905145
-0.0219156
-0.00901273
-0.0294803
-0.00873664
-0.036696
-0.00822675
-0.0434803
-0.00749396
-0.0497383
-0.00655603
-0.055366
-0.00543706
-0.0602542
-0.00416679
-0.0642952
-0.00277979