/*--------------------------------*- C++ -*----------------------------------*\
| =========                 |                                                 |
| \\      /  F ield         | OpenFOAM: The Open Source CFD Toolbox           |
|  \\    /   O peration     | Version:  2.3.0                                 |
|   \\  /    A nd           | Web:      www.OpenFOAM.org                      |
|    \\/     M anipulation  |                                                 |
\*---------------------------------------------------------------------------*/
FoamFile
{
    version     2.0;
    format      ascii;
    class       volScalarField;
    location    "15000";
    object      T;
}
// * * * * * * * * * * * * * * * * * * * * * * * * * * * * * * * * * * * * * //

dimensions      [0 0 0 1 0 0 0];

internalField   nonuniform List<scalar> 
3060
(
33.5808
33.6078
33.657
33.7263
33.8133
33.9147
34.0267
34.1449
34.265
34.3825
34.4946
34.6069
34.7211
34.8368
34.9542
35.0738
35.1959
35.3195
35.4426
35.5624
35.6754
35.7778
35.8653
35.9335
35.9776
35.9935
35.979
35.9361
35.8688
35.7818
35.6797
35.5668
35.4468
35.3233
35.1991
35.0762
34.9556
34.8372
34.7204
34.6056
34.493
34.3807
34.2628
34.144
34.028
33.9189
33.8212
33.7385
33.6739
33.6299
33.6085
33.6115
33.6385
33.6877
33.7568
33.8435
33.9443
34.0555
34.1726
34.2913
34.4079
34.52
34.6331
34.7486
34.8657
34.9845
35.1057
35.229
35.3533
35.4763
35.5949
35.7055
35.8044
35.887
35.9488
35.9852
35.9924
35.9694
35.919
35.8457
35.7541
35.6488
35.5338
35.4129
35.2895
35.1661
35.0445
34.9254
34.8085
34.693
34.5793
34.4673
34.3547
34.2358
34.1157
33.9985
33.8887
33.7905
33.7076
33.643
33.5991
33.5778
28.1899
28.2566
28.3781
28.5492
28.7637
29.0141
29.2919
29.5884
29.8963
30.2131
30.5405
30.8748
31.2172
31.5631
31.9124
32.269
32.633
33.0011
33.3674
33.723
34.0584
34.3628
34.6243
34.8291
34.9627
35.0114
34.9669
34.8368
34.6347
34.375
34.0714
33.7362
33.38
33.0124
32.6423
32.276
31.9165
31.564
31.2144
30.8698
30.5348
30.2086
29.8953
29.5915
29.3007
29.0302
28.7888
28.5846
28.4252
28.3166
28.2638
28.2712
28.3378
28.4592
28.6299
28.8438
29.093
29.3692
29.6637
29.9701
30.2864
30.6147
30.952
31.299
31.6487
32.0027
32.3639
32.7316
33.1017
33.4674
33.8195
34.1481
34.4422
34.6893
34.8754
34.9859
35.008
34.9377
34.7855
34.5656
34.2925
33.9795
33.6383
33.2792
32.9117
32.544
32.1815
31.8266
31.4786
31.1329
30.7926
30.4601
30.1344
29.8203
29.5147
29.222
28.9501
28.7077
28.5031
28.3436
28.235
28.1823
23.491
23.583
23.7507
23.9873
24.2846
24.6335
25.0241
25.4467
25.8936
26.361
26.8484
27.3568
27.8888
28.4487
29.0203
29.6067
30.2057
30.8102
31.4094
31.9893
32.5356
33.0322
33.4606
33.7985
34.0209
34.1027
34.028
33.8115
33.4779
33.0524
32.5571
32.011
31.43
30.8288
30.2213
29.6188
29.0282
28.4521
27.8897
27.3561
26.8475
26.3617
25.8981
25.4568
25.042
24.6615
24.3247
24.0415
23.8209
23.6709
23.598
23.6082
23.7002
23.8678
24.1042
24.4011
24.7493
25.139
25.5608
26.0077
26.4766
26.9677
27.482
28.0218
28.59
29.1697
29.7635
30.368
30.9751
31.5728
32.1467
32.6821
33.1624
33.5679
33.8755
34.0598
34.097
33.979
33.7262
33.3642
32.9174
32.4071
31.8513
31.2653
30.6635
30.0594
29.4628
28.8794
28.31
27.7572
27.2311
26.728
26.2453
25.7828
25.3412
24.9256
24.5442
24.207
23.9236
23.7032
23.5533
23.4807
19.601
19.7074
19.9014
20.1757
20.5218
20.9303
21.3917
21.8971
22.4395
23.015
23.6227
24.2639
24.9409
25.6561
26.4058
27.1823
27.9819
28.7953
29.6065
30.3949
31.1383
31.8138
32.3973
32.8598
33.1663
33.2801
33.1764
32.878
32.4214
31.8417
31.1681
30.425
29.6353
28.8214
28.0044
27.2004
26.4192
25.6649
24.9474
24.2689
23.6277
23.0218
22.4504
21.9142
21.4176
20.9673
20.5724
20.2422
19.986
19.8121
19.7277
19.7395
19.846
20.0403
20.3151
20.6616
21.0707
21.5328
22.0395
22.5844
23.1642
23.7785
24.4286
25.117
25.8462
26.606
27.3929
28.201
29.019
29.8291
30.6096
31.338
31.9913
32.5442
32.966
33.2205
33.2721
33.1084
32.7606
32.2658
31.6576
30.9636
30.2072
29.4113
28.5977
27.7864
26.9917
26.2217
25.4789
24.7732
24.1051
23.4721
22.8722
22.3045
21.7706
21.2751
20.8257
20.4314
20.102
19.8464
19.673
19.5891
16.5243
16.6383
16.8467
17.1418
17.515
17.9576
18.4607
19.0166
19.6193
20.2654
20.9541
21.6867
22.4655
23.2931
24.1701
25.0895
26.0447
27.0236
28.0078
28.973
29.8893
30.7244
31.4459
32.0188
32.4001
32.5424
32.413
32.042
31.4765
30.7597
29.9271
29.0112
28.0444
27.057
26.0739
25.114
24.1898
23.3086
22.478
21.6974
20.9646
20.2775
19.6351
19.0385
18.4912
17.9993
17.5705
17.2137
16.9375
16.7503
16.6596
16.6723
16.7867
16.9959
17.2921
17.667
18.1117
18.6175
19.1771
19.785
20.4381
21.1361
21.8804
22.6732
23.5164
24.4087
25.3425
26.3095
27.2956
28.2807
29.2381
30.137
30.9446
31.6284
32.1512
32.468
32.5324
32.3279
31.8959
31.2834
30.5313
29.6737
28.7426
27.7703
26.7853
25.8108
24.8635
23.9541
23.0883
22.2725
21.505
20.7832
20.1048
19.469
18.8772
18.3334
17.8442
17.4176
17.0625
16.7877
16.6016
16.5115
14.1839
14.3029
14.5205
14.8286
15.2187
15.682
16.2103
16.7963
17.4349
18.1233
18.861
19.6498
20.4927
21.3933
22.3547
23.3727
24.4389
25.5393
26.6537
27.7548
28.8083
29.7748
30.6119
31.2761
31.7181
31.8833
31.7334
31.3035
30.6481
29.8167
28.8533
27.8002
26.6973
25.5793
24.4743
23.4031
22.3801
21.4144
20.5103
19.6649
18.8752
18.1382
17.4528
16.8194
16.2411
15.7234
15.2735
14.8996
14.6106
14.4148
14.32
14.3332
14.4527
14.6716
14.9817
15.3745
15.8414
16.3741
16.966
17.6121
18.3099
19.0594
19.8623
20.7217
21.6405
22.6209
23.6568
24.738
25.8485
26.9658
28.0602
29.0956
30.0311
30.8242
31.4299
31.7971
31.8716
31.6345
31.1337
30.4234
29.5511
28.5598
27.4913
26.3842
25.271
24.1773
23.1218
22.1169
21.1702
20.2837
19.4542
18.6779
17.9521
17.2756
16.6493
16.0767
15.5634
15.117
14.7459
14.459
14.2646
14.1707
12.4581
12.5821
12.8087
13.1293
13.5346
14.0151
14.5623
15.1689
15.8299
16.5428
17.3076
18.1267
19.0045
19.9461
20.957
22.0356
23.1728
24.354
25.5576
26.7542
27.9063
28.9694
29.8939
30.6271
31.1132
31.2943
31.1303
30.6578
29.9347
29.0168
27.957
26.8054
25.6069
24.3995
23.2134
22.0708
20.9868
19.9712
19.0253
18.1441
17.3229
16.5576
15.8463
15.1892
14.5892
14.0516
13.5837
13.1944
12.893
12.6887
12.5898
12.6035
12.7283
12.9565
13.2798
13.6886
14.1739
14.727
15.341
16.0113
16.7355
17.5139
18.3492
19.2455
20.2078
21.2408
22.3403
23.4954
24.6892
25.8977
27.0889
28.2229
29.2532
30.1291
30.7969
31.2
31.2814
31.0214
30.4701
29.6857
28.723
27.6339
26.4673
25.266
24.0655
22.8933
21.7693
20.7064
19.7127
18.7869
17.9237
17.118
16.3658
15.6653
15.017
14.4241
13.8923
13.4291
13.0434
12.7447
12.5422
12.4443
11.2112
11.342
11.5809
11.918
12.3426
12.8438
13.4117
14.038
14.717
15.4462
16.2259
17.0592
17.9519
18.9111
19.9449
21.0534
22.228
23.4544
24.7105
25.9655
27.1794
28.3043
29.2851
30.0625
30.5755
30.7651
30.5937
30.0955
29.3291
28.3555
27.2344
26.0209
24.764
23.504
22.2723
21.0918
19.9773
18.9381
17.9736
17.0762
16.2392
15.4575
14.7282
14.0515
13.4304
12.8712
12.3821
11.9734
11.656
11.4403
11.3359
11.3503
11.482
11.7229
12.063
12.4918
12.9985
13.5731
14.2079
14.8974
15.6391
16.4337
17.2847
18.1975
19.1792
20.2375
21.3692
22.5641
23.8054
25.0682
26.319
27.5151
28.606
29.5352
30.2424
30.6667
30.7517
30.4789
29.8963
29.0642
28.0433
26.8921
25.6642
24.4058
23.1545
21.939
20.7794
19.6884
18.6733
17.7309
16.8531
16.033
15.2657
14.5484
13.8816
13.2687
12.7161
12.2324
11.8279
11.5135
11.3
11.1967
10.3163
10.4567
10.7127
11.0729
11.5244
12.0538
12.649
13.3
13.9995
14.7443
15.5346
16.3743
17.2702
18.2318
19.2695
20.3844
21.5697
22.8118
24.0889
25.3696
26.6124
27.7666
28.7738
29.5709
30.094
30.2857
30.1126
29.6049
28.8195
27.8199
26.6697
25.4276
24.1449
22.8637
21.616
20.4243
19.3026
18.2585
17.2904
16.3881
15.543
14.7488
14.002
13.3031
12.6561
12.0685
11.5509
11.1157
10.7761
10.5449
10.4328
10.4483
10.5896
10.8478
11.2113
11.6672
12.2025
12.8051
13.465
14.1755
14.9335
15.7395
16.5976
17.5147
18.4998
19.5636
20.7036
21.9108
23.1694
24.4547
25.7322
26.9574
28.077
29.0308
29.755
30.1865
30.2721
29.9958
29.4008
28.547
27.4987
26.3181
25.0619
23.7788
22.5078
21.2779
20.1088
19.0122
17.9938
17.0489
16.1672
15.3398
14.5606
13.8265
13.1381
12.4997
11.9193
11.4074
10.9767
10.6405
10.4116
10.3007
9.66635
9.81925
10.0979
10.4887
10.9759
11.5431
12.175
12.8589
13.5855
14.3502
15.1525
15.9968
16.8911
17.8463
18.8753
19.9799
21.1552
22.3895
23.6617
24.9403
26.1834
27.3386
28.3459
29.1406
29.6592
29.8476
29.6776
29.1746
28.3918
27.3925
26.2415
24.9992
23.7185
22.442
21.2018
20.0193
18.9072
17.8706
16.9073
16.005
15.1533
14.3449
13.5763
12.8485
12.1672
11.5422
10.9869
10.5168
10.1482
9.8965
9.77447
9.7913
9.94521
10.226
10.6202
11.112
11.6852
12.3246
13.0177
13.7555
14.5334
15.3517
16.2147
17.1306
18.1101
19.1657
20.296
21.4943
22.7461
24.0273
25.3034
26.5291
27.6495
28.6026
29.3236
29.7504
29.8343
29.5622
28.9714
28.1193
27.0706
25.889
24.6331
23.3527
22.0874
20.866
19.7071
18.6207
17.6104
16.6709
15.7894
14.9557
14.1625
13.4066
12.6895
12.017
11.3993
10.8499
10.3845
10.0194
9.77009
9.64936
9.1779
9.34618
9.65265
10.0813
10.613
11.2277
11.9063
12.6328
13.3951
14.1866
15.006
15.8573
16.7494
17.6947
18.7072
19.79
20.9406
22.149
23.3955
24.6495
25.869
27.0016
27.987
28.7615
29.2638
29.4449
29.2815
28.7945
28.0318
27.0544
25.9261
24.7075
23.4514
22.2003
20.9856
19.8273
18.7359
17.7144
16.7594
15.8574
14.9965
14.169
13.3715
12.6064
11.8813
11.2091
10.6066
10.0932
9.6889
9.41211
9.27792
9.29641
9.4657
9.77437
10.2064
10.7428
11.3634
12.0495
12.785
13.5583
14.3629
15.1979
16.0677
16.9814
17.9513
18.9899
20.0982
21.2718
22.498
23.754
25.0057
26.208
27.3059
28.2374
28.9389
29.3515
29.4321
29.1701
28.597
27.7657
26.7391
25.5804
24.3483
23.0928
21.8533
20.6577
19.523
18.4575
17.4619
16.5306
15.6492
14.806
13.9933
13.2083
12.4536
11.7372
11.0722
10.4757
9.96705
9.56633
9.29204
9.15922
8.78961
8.97568
9.31446
9.78721
10.3712
11.0422
11.777
12.5554
13.3623
14.1886
15.0315
15.8947
16.7872
17.7225
18.7144
19.7681
20.8837
22.0531
23.2582
24.4698
25.6469
26.738
27.6844
28.425
28.9025
29.0735
28.9191
28.4561
27.727
26.7884
25.7015
24.5253
23.3116
22.1017
20.9256
19.8016
18.7381
17.7356
16.7891
15.8847
15.0099
14.1566
13.3223
12.5109
11.7328
11.0042
10.346
9.78194
9.33599
9.03018
8.88196
8.90235
9.08941
9.43039
9.90656
10.4952
11.1721
11.9141
12.7013
13.5187
14.3575
15.2155
16.0964
17.0098
17.969
18.986
20.0646
21.2027
22.3894
23.6038
24.8131
25.9731
27.03
27.9238
28.5936
28.9853
29.0614
28.8137
28.268
27.4723
26.4854
25.3685
24.179
22.9659
21.7673
20.6098
19.5089
18.4704
17.4927
16.5692
15.6848
14.8269
13.9879
13.1655
12.3641
11.5944
10.8729
10.2206
9.66128
9.21901
8.91577
8.76897
8.45831
8.66402
9.03858
9.5604
10.2029
10.9373
11.7359
12.5744
13.4341
14.3029
15.1763
16.057
16.9539
17.8808
18.851
19.8722
20.9464
22.0678
23.2202
24.376
25.4963
26.532
27.4267
28.1235
28.5706
28.7297
28.5858
28.1522
27.4661
26.5789
25.5473
24.4277
23.2695
22.1122
20.9837
19.9003
18.8684
17.886
16.9461
16.0352
15.1407
14.2548
13.3759
12.5103
11.6711
10.8786
10.1578
9.53716
9.045
8.70707
8.54339
8.56589
8.77256
9.14931
9.67454
10.3216
11.0618
11.8675
12.7143
13.5839
14.4645
15.3521
16.2496
17.1661
18.1155
19.1095
20.1542
21.2497
22.3875
23.5483
24.7016
25.8052
26.8074
27.6514
28.281
28.6475
28.7185
28.4876
27.9761
27.2266
26.2927
25.2318
24.099
22.941
21.7942
20.6834
19.6218
18.6133
17.654
16.736
15.844
14.9654
14.0928
13.2251
12.3689
11.5379
10.7522
10.0373
9.42138
8.93298
8.59771
8.43552
8.15461
8.38118
8.79383
9.368
10.0731
10.8758
11.7439
12.6487
13.5675
14.4855
15.396
16.3
17.206
18.1274
19.077
20.0648
21.0947
22.1626
23.2544
24.3451
25.3986
26.3693
27.203
27.8494
28.2627
28.4095
28.2763
27.8751
27.2384
26.4116
25.4449
24.3917
23.2984
22.2014
21.126
20.0863
19.0867
18.1235
17.1872
16.2652
15.3452
14.4201
13.4902
12.5639
11.6577
10.7957
10.0076
9.32638
8.78494
8.41285
8.23274
8.25747
8.48498
8.89984
9.47744
10.1871
10.9956
11.8705
12.7832
13.7114
14.6404
15.5639
16.4834
17.4074
18.3494
19.3209
20.3304
21.3799
22.4626
23.5618
24.6494
25.6868
26.6248
27.4105
27.9942
28.3332
28.3992
28.186
27.7129
27.0169
26.1456
25.1503
24.0842
22.9905
21.9028
20.8434
19.8236
18.8457
17.9038
16.9873
16.0826
15.1772
14.2644
13.3449
12.4274
11.5289
10.6736
9.89136
9.21499
8.6774
8.30807
8.12954
7.85887
8.10693
8.55877
9.18677
9.9563
10.8297
11.7703
12.7451
13.7275
14.6997
15.6526
16.5854
17.5054
18.4249
19.3564
20.3123
21.2981
22.3097
23.3362
24.3553
25.3343
26.2318
27.0007
27.595
27.9742
28.1088
27.9861
27.6176
27.0318
26.269
25.3747
24.3957
23.3738
22.3419
21.3222
20.326
19.3571
18.4106
17.4744
16.5366
15.5857
14.6163
13.6304
12.6391
11.6623
10.728
9.87031
9.12672
8.53458
8.12729
7.93027
7.9573
8.20629
8.66037
9.29186
10.066
10.9451
11.8924
12.8747
13.8659
14.8483
15.813
16.7598
17.6959
18.6337
19.5849
20.5608
21.5635
22.5879
23.6203
24.6355
25.5985
26.4657
27.1901
27.7269
28.0383
28.0992
27.9039
27.4697
26.8294
26.0253
25.1041
24.1121
23.0888
22.0645
21.0588
20.0799
19.1308
18.2034
17.2847
16.3622
15.4245
14.4662
13.4899
12.507
11.5376
10.6098
9.75798
9.01936
8.4312
8.0268
7.83145
7.55804
7.8277
8.31863
9.00006
9.83343
10.777
11.7902
12.8357
13.8836
14.913
15.9122
16.8784
17.817
18.7386
19.6553
20.5802
21.5207
22.4757
23.4359
24.382
25.2852
26.109
26.8122
27.3544
27.6998
27.8222
27.71
27.3737
26.8388
26.1405
25.3191
24.4155
23.4662
22.5001
21.5365
20.5848
19.646
18.7129
17.773
16.8147
15.8287
14.8112
13.7667
12.7089
11.6608
10.654
9.72725
8.92188
8.27934
7.83687
7.62279
7.65216
7.92277
8.416
9.10099
9.93905
10.8883
11.9082
12.9609
14.0171
15.0558
16.0657
17.0443
17.997
18.9343
19.868
20.8099
21.7651
22.7309
23.6955
24.6371
25.5248
26.3205
26.9832
27.4734
27.7576
27.8135
27.6357
27.2402
26.6557
25.9198
25.0734
24.1569
23.2053
22.2451
21.2933
20.3568
19.4347
18.5182
17.5931
16.6482
15.6737
14.6662
13.6305
12.5805
11.5395
10.5394
9.61863
8.81835
8.17996
7.74052
7.52822
7.24326
7.53432
8.06312
8.7956
9.68953
10.6994
11.7807
12.8934
14.0048
15.091
16.1379
17.1404
18.1013
19.029
19.9355
20.8343
21.734
22.6357
23.5322
24.4073
25.2365
25.9884
26.6277
27.1192
27.4318
27.5424
27.4403
27.1352
26.6496
26.0141
25.2636
24.4333
23.5544
22.6514
21.7405
20.8288
19.9151
18.9911
18.0435
17.0614
16.0377
14.971
13.8685
12.7464
11.6307
10.5561
9.56409
8.69999
8.00914
7.53242
7.30131
7.33308
7.6251
8.15629
8.89244
9.79115
10.8067
11.8946
13.0144
14.1336
15.2284
16.2849
17.2982
18.2711
19.2119
20.1326
21.0456
21.9575
22.8678
23.7671
24.6372
25.4516
26.1779
26.7806
27.2254
27.4834
27.5345
27.3738
27.0157
26.4856
25.816
25.0426
24.1998
23.3177
22.419
21.5176
20.6185
19.7187
18.8083
17.873
16.9022
15.8884
14.8307
13.7363
12.6218
11.5131
10.445
9.45908
8.60027
7.91375
7.44022
7.211
6.90707
7.21775
7.78069
8.55868
9.50637
10.5752
11.7181
12.8924
14.0632
15.2042
16.2987
17.3391
18.3255
19.2636
20.1652
21.0441
21.9093
22.7633
23.6014
24.4105
25.1703
25.8546
26.4335
26.877
27.1586
27.258
27.1654
26.8897
26.4505
25.8742
25.1904
24.4286
23.615
22.7697
21.9057
21.0278
20.1331
19.2128
18.2535
17.2447
16.182
15.0667
13.9087
12.7267
11.5492
10.4134
9.36327
8.44698
7.71295
7.20524
6.95843
6.99245
7.30412
7.86952
8.65131
9.60394
10.6787
11.828
13.0094
14.1877
15.3366
16.4397
17.4894
18.4857
19.4343
20.3475
21.2377
22.1126
22.9731
23.8125
24.616
25.3619
26.0228
26.5689
26.9711
27.2043
27.2509
27.1063
26.7837
26.305
25.6981
24.9932
24.2194
23.4018
22.5591
21.7022
20.8342
19.9507
19.0413
18.0918
17.0923
16.0381
14.9308
13.7803
12.6056
11.4351
10.3059
9.262
8.35119
7.62168
7.11732
6.87251
6.5439
6.87099
7.4621
8.27737
9.26909
10.3867
11.5813
12.8086
14.0319
15.2231
16.363
17.4413
18.4554
19.4079
20.3105
21.1763
22.0144
22.8285
23.6157
24.3662
25.0635
25.6863
26.21
26.6097
26.8627
26.9518
26.8678
26.619
26.2223
25.6998
25.0763
24.3761
23.6203
22.8251
22.0003
21.1486
20.2662
19.344
18.3693
17.3319
16.2304
15.0693
13.8607
12.6261
11.3958
10.2087
9.11058
8.15153
7.38206
6.84869
6.5887
6.62464
6.95274
7.54639
8.36561
9.36243
10.4861
11.6872
12.9216
14.1522
15.3508
16.4983
17.5846
18.6068
19.5674
20.479
21.3535
22.1989
23.0173
23.8044
24.5488
25.2329
25.8346
26.3291
26.6923
26.9028
26.9454
26.8157
26.5256
26.094
25.5442
24.9014
24.1896
23.4292
22.6349
21.8149
20.9705
20.0966
19.1828
18.2155
17.1856
16.0914
14.9374
13.7361
12.5085
11.2852
10.105
9.01327
8.05991
7.29515
6.76529
6.50739
6.14987
6.4889
7.10008
7.94165
8.96452
10.1172
11.35
12.6181
13.8836
15.117
16.2972
17.4113
18.4536
19.4236
20.3325
21.1923
22.0116
22.7947
23.5402
24.241
24.8846
25.4538
25.929
26.2898
26.5175
26.5972
26.5208
26.2958
25.9364
25.4612
24.89
24.2425
23.5354
22.7812
21.9866
21.1529
20.2758
19.3466
18.3536
17.2876
16.1501
14.9486
13.698
12.4214
11.1508
9.92598
8.79353
7.80423
7.00969
6.45796
6.18831
6.22569
6.56575
7.17956
8.02522
9.05338
10.2123
11.4518
12.727
13.9997
15.2401
16.4272
17.548
18.5968
19.5729
20.4886
21.3547
22.179
22.9644
23.7084
24.4027
25.0337
25.5838
26.0332
26.3619
26.5524
26.5915
26.4751
26.2139
25.8239
25.3243
24.7355
24.0768
23.3643
22.6093
21.8175
20.9888
20.1177
19.1946
18.2071
17.1469
16.0157
14.8208
13.5771
12.3076
11.0441
9.82635
8.70052
7.71713
6.92747
6.37936
6.1119
5.72231
6.06759
6.68867
7.54282
8.58066
9.75098
11.0046
12.2969
13.5901
14.8538
16.0653
17.2096
18.2778
19.2665
20.1858
21.0458
21.8544
22.6156
23.3293
23.9907
24.5903
25.115
25.5493
25.8771
26.0831
26.1547
26.0848
25.8798
25.552
25.1162
24.5884
23.9838
23.3152
22.5918
21.8183
20.9948
20.1168
19.1769
18.1651
17.073
15.9057
14.6734
13.3932
12.0897
10.7955
9.55047
8.40088
7.39703
6.5904
6.02947
5.75469
5.79287
6.13921
6.76301
7.62137
8.66468
9.8414
11.102
12.4015
13.7019
14.9723
16.1902
17.3401
18.4132
19.4067
20.3309
21.1953
22.0067
22.7685
23.4795
24.1339
24.7215
25.2288
25.6402
25.9399
26.1135
26.1496
26.0447
25.8082
25.4534
24.9959
24.4519
23.8364
23.1617
22.4362
21.6635
20.8428
19.9688
19.0331
18.025
16.9376
15.7758
14.5498
13.2763
11.98
10.6931
9.45538
8.31262
7.31487
6.51327
5.95606
5.68351
5.2595
5.60418
6.22301
7.07333
8.10671
9.27349
10.5261
11.8216
13.1229
14.3998
15.6287
16.7926
17.8805
18.8855
19.8164
20.6808
21.485
22.2327
22.9241
23.556
24.1217
24.6113
25.0129
25.3139
25.5021
25.5671
25.5022
25.3134
25.0109
24.6065
24.1126
23.5408
22.9007
22.1989
21.4383
20.6187
19.7361
18.7846
17.7567
16.6457
15.4595
14.2109
12.9187
11.6082
10.3118
9.06834
7.92253
6.92302
6.11983
5.56068
5.2862
5.32443
5.6702
6.29181
7.14643
8.18541
9.35874
10.6185
11.9214
13.2299
14.5134
15.7482
16.9171
18.0085
19.0176
19.952
20.8191
21.6245
22.3712
23.0588
23.6833
24.2375
24.7111
25.0923
25.3686
25.5285
25.5624
25.467
25.2507
24.9244
24.5005
23.9916
23.4091
22.7623
22.0571
21.2958
20.4772
19.5968
18.648
17.6226
16.5155
15.3344
14.0918
12.8064
11.5033
10.2144
8.97843
7.83963
6.84633
6.04825
5.49287
5.22064
4.76053
5.09675
5.6994
6.52701
7.5334
8.67167
9.89723
11.1697
12.454
13.7208
14.9468
16.1139
17.209
18.2229
19.1619
20.0307
20.8335
21.5729
22.2492
22.8602
23.4008
23.8639
24.2404
24.5206
24.6949
24.7544
24.6934
24.517
24.2339
23.8534
23.3848
22.8371
22.2171
21.5297
20.777
19.9586
19.0718
18.1128
17.077
15.96
14.7722
13.5282
12.2476
10.9556
9.68323
8.46736
7.3499
6.37657
5.59469
5.04994
4.78203
4.81943
5.15675
5.76218
6.59413
7.60616
8.75107
9.98389
11.2638
12.5554
13.829
15.0607
16.2323
17.3302
18.3477
19.2892
20.1594
20.9621
21.6993
22.3709
22.9742
23.5037
23.952
24.3101
24.5685
24.7179
24.7502
24.6623
24.4617
24.1575
23.7593
23.2768
22.7186
22.0914
21.3996
20.6448
19.8261
18.9403
17.9829
16.9489
15.8354
14.6525
13.4146
12.1409
10.8564
9.59174
8.38345
7.27307
6.30598
5.5292
4.9882
4.72251
4.22532
4.54437
5.11543
5.89942
6.85359
7.93503
9.10322
10.3215
11.5577
12.7848
13.9803
15.1261
16.2081
17.2164
18.1529
19.0195
19.8179
20.5491
21.2131
21.8076
22.329
22.7717
23.1289
23.393
23.5564
23.6117
23.5535
23.3867
23.1184
22.756
22.3069
21.7776
21.1734
20.498
19.7533
18.9396
18.0558
17.1004
16.0724
14.97
13.8055
12.5941
11.3553
10.113
8.89594
7.73773
6.67645
5.75373
5.01295
4.49656
4.24219
4.27776
4.5979
5.17169
5.95995
6.91968
8.00771
9.18313
10.4089
11.6525
12.8864
14.0877
15.2381
16.3231
17.3343
18.2727
19.1397
19.937
20.6652
21.3238
21.9105
22.4212
22.8502
23.1907
23.4353
23.5767
23.6078
23.5258
23.3375
23.0503
22.6718
22.2096
21.67
21.0583
20.3779
19.6303
18.8153
17.9317
16.9775
15.9511
14.8522
13.6926
12.4874
11.2556
10.0209
8.81152
7.66085
6.60656
5.68995
4.95415
4.44139
4.18916
3.65466
3.94727
4.47036
5.18841
6.0632
7.05687
8.13392
9.2623
10.414
11.5648
12.6946
13.7864
14.8263
15.8045
16.7186
17.5671
18.3492
19.0644
19.7113
20.2876
20.79
21.2139
21.554
21.8042
21.9584
22.01
21.9542
21.7956
21.5402
21.194
20.763
20.2521
19.6659
19.0076
18.2794
17.4826
16.6182
15.6872
14.6919
13.6341
12.5261
11.383
10.2227
9.06672
7.94043
6.87327
5.89851
5.05265
4.37411
3.90092
3.6675
3.7002
3.99385
4.51954
5.24165
6.12176
7.12175
8.20581
9.34153
10.5005
11.6582
12.794
13.8907
14.934
15.9149
16.8304
17.6788
18.4593
19.171
19.8123
20.3808
20.8729
21.2841
21.609
21.8417
21.9762
22.0064
21.9294
21.7516
21.4791
21.1183
20.6749
20.1543
19.5605
18.8968
18.1652
17.3668
16.5022
15.5723
14.5789
13.5248
12.422
11.2851
10.1318
8.98328
7.86452
6.80462
5.83653
4.99648
4.32262
3.85284
3.62142
3.05022
3.30695
3.76543
4.39473
5.16217
6.03576
6.98576
7.98552
9.01171
10.0443
11.0661
12.0628
13.0221
13.9351
14.7954
15.5985
16.3415
17.0218
17.637
18.1841
18.6597
19.0596
19.3794
19.6139
19.7579
19.8058
19.7529
19.6037
19.3634
19.0371
18.6298
18.1457
17.589
16.9629
16.2705
15.5143
14.697
13.8222
12.895
11.921
10.9114
9.87914
8.83949
7.81057
6.81353
5.87281
5.01616
4.27419
3.67945
3.26458
3.05966
3.08842
3.34611
3.80694
4.43994
5.21223
6.09163
7.04812
8.05476
9.08788
10.1271
11.155
12.1568
13.12
14.0358
14.8975
15.7005
16.4417
17.1185
17.7282
18.2678
18.7339
19.1222
19.4282
19.6471
19.7736
19.8024
19.7308
19.5645
19.3089
18.9693
18.5507
18.0574
17.4935
16.8622
16.1664
15.4084
14.5911
13.7176
12.7931
11.8232
10.8188
9.79263
8.75971
7.7378
6.74776
5.81373
4.96317
4.22646
3.63594
3.22413
3.021
2.41469
2.62643
3.00419
3.52266
4.15545
4.87706
5.66403
6.49553
7.35345
8.22231
9.08907
9.94279
10.7743
11.5768
12.3407
13.0592
13.7276
14.342
14.8989
15.3946
15.8255
16.1876
16.4767
16.6884
16.8182
16.8611
16.813
16.6777
16.4602
16.1647
15.7955
15.3568
14.8523
14.2858
13.6609
12.9813
12.251
11.4755
10.6619
9.81956
8.9564
8.08213
7.2084
6.34906
5.52045
4.74158
4.03417
3.42243
2.93237
2.59043
2.42134
2.4451
2.65766
3.03744
3.55905
4.19599
4.92259
5.71519
6.55271
7.4168
8.29175
9.16425
10.0231
10.8591
11.6646
12.4299
13.1485
13.8154
14.4266
14.9785
15.4676
15.89
16.2418
16.5189
16.7171
16.8318
16.8581
16.7937
16.6437
16.4129
16.1057
15.7266
15.2796
14.7687
14.1975
13.5696
12.8886
12.1586
11.3849
10.5748
9.73671
8.87861
8.01
7.1423
6.28913
5.4666
4.69348
3.99126
3.38399
2.8975
2.55813
2.39054
1.75172
1.91023
2.19276
2.58042
3.05376
3.59418
4.18478
4.8107
5.45922
6.11968
6.7834
7.44355
8.09512
8.73435
9.34979
9.93379
10.4808
10.9863
11.4464
11.8572
12.215
12.516
12.7565
12.9326
13.0405
13.0761
13.0357
12.9229
12.7417
12.4957
12.1886
11.8243
11.4064
10.9386
10.4249
9.86925
9.27649
8.6525
8.0054
7.34715
6.681
6.01252
5.3491
4.70003
4.07665
3.49234
2.96263
2.50504
2.13857
1.88275
1.75611
1.77393
1.93307
2.21716
2.60723
3.08377
3.62805
4.22303
4.85369
5.50714
6.17259
6.84122
7.50613
8.16223
8.80444
9.42149
10.0058
10.5517
11.0548
11.5109
11.9163
12.2672
12.5599
12.7906
12.9557
13.0514
13.0736
13.0201
12.8953
12.7033
12.4478
12.1327
11.7617
11.3386
10.8671
10.3511
9.79466
9.20251
8.58067
7.93768
7.28343
6.62168
5.95789
5.29931
4.65512
4.03647
3.4566
2.93089
2.47672
2.11298
1.85912
1.73362
1.06594
1.16444
1.33983
1.58034
1.87394
2.20924
2.57597
2.96525
3.36958
3.78293
4.20074
4.62015
5.04037
5.46157
5.87235
6.26587
6.63732
6.98283
7.29897
7.58249
7.83027
8.03926
8.2065
8.32911
8.40427
8.42901
8.40082
8.32214
8.19584
8.02471
7.81156
7.55933
7.27104
6.94985
6.59905
6.22218
5.82328
5.40739
4.98177
4.55843
4.13599
3.71569
3.30082
2.89635
2.50877
2.14598
1.81733
1.53346
1.30604
1.14718
1.06846
1.07954
1.17845
1.35483
1.59686
1.89248
2.23023
2.59975
2.99205
3.39959
3.81625
4.23749
4.66053
5.08475
5.50845
5.92065
6.31462
6.68555
7.02954
7.34311
7.623
7.8661
8.06938
8.22995
8.34501
8.41177
8.42728
8.39005
8.30315
8.16947
7.99185
7.77319
7.51645
7.2247
6.90111
6.54896
6.17178
5.77363
5.35974
4.93788
4.51787
4.09861
3.68148
3.26976
2.86842
2.48384
2.12386
1.79773
1.51601
1.29031
1.13268
1.05468
0.36276
0.396549
0.45662
0.538834
0.638984
0.753102
0.877643
1.00957
1.14638
1.28615
1.42766
1.57073
1.71731
1.87143
2.02454
2.17305
2.31468
2.44764
2.57026
2.68098
2.77828
2.86072
2.92689
2.97551
3.00535
3.01517
3.00398
2.97276
2.92271
2.85503
2.77101
2.67204
2.55958
2.43514
2.30032
2.15682
2.00653
1.85179
1.69641
1.54949
1.40565
1.26338
1.1231
0.986217
0.854823
0.731575
0.619669
0.522795
0.445023
0.390595
0.363581
0.367388
0.401314
0.461719
0.54445
0.645282
0.760221
0.885692
1.01863
1.15652
1.29743
1.4402
1.58484
1.73387
1.88925
2.04309
2.19191
2.33347
2.46594
2.58764
2.69699
2.79249
2.87268
2.93622
2.98184
3.00833
3.01448
2.9997
2.9652
2.91222
2.84198
2.75581
2.65511
2.54136
2.41608
2.28085
2.13738
1.98755
1.83388
1.68081
1.5356
1.393
1.25183
1.11262
0.976775
0.846381
0.724069
0.613009
0.51686
0.43967
0.385661
0.358892
)
;

boundaryField
{
    top
    {
        type            fixedValue;
        value           uniform 0;
    }
    bottom
    {
        type            fixedValue;
        value           uniform 36.5;
    }
    frontAndBack
    {
        type            empty;
    }
    left_cyc
    {
        type            cyclic;
    }
    right_cyc
    {
        type            cyclic;
    }
}


// ************************************************************************* //
