/*--------------------------------*- C++ -*----------------------------------*\
| =========                 |                                                 |
| \\      /  F ield         | OpenFOAM: The Open Source CFD Toolbox           |
|  \\    /   O peration     | Version:  2.3.0                                 |
|   \\  /    A nd           | Web:      www.OpenFOAM.org                      |
|    \\/     M anipulation  |                                                 |
\*---------------------------------------------------------------------------*/
FoamFile
{
    version     2.0;
    format      ascii;
    class       volVectorField;
    location    "15000";
    object      U;
}
// * * * * * * * * * * * * * * * * * * * * * * * * * * * * * * * * * * * * * //

dimensions      [0 1 -1 0 0 0 0];

internalField   nonuniform List<vector> 
3060
(
(0.615722 0 -0.447755)
(1.5786 0 -0.431679)
(2.51747 0 -0.401857)
(3.41846 0 -0.358835)
(4.26855 0 -0.303625)
(5.0559 0 -0.238279)
(5.77033 0 -0.166406)
(6.40372 0 -0.0931901)
(6.95013 0 -0.0244877)
(7.40494 0 0.0347646)
(7.76303 0 0.0819059)
(8.01646 0 0.116797)
(8.15244 0 0.141014)
(8.15255 0 0.156928)
(7.99558 0 0.169701)
(7.66161 0 0.189716)
(7.14268 0 0.224917)
(6.44795 0 0.26858)
(5.6068 0 0.300832)
(4.67755 0 0.3062)
(3.72928 0 0.286319)
(2.82153 0 0.249388)
(1.99453 0 0.207436)
(1.25807 0 0.171417)
(0.594558 0 0.148195)
(-0.0300922 0 0.140747)
(-0.656628 0 0.149759)
(-1.32549 0 0.174385)
(-2.06965 0 0.211335)
(-2.90445 0 0.253307)
(-3.81706 0 0.28906)
(-4.7646 0 0.306652)
(-5.68588 0 0.29841)
(-6.51168 0 0.26405)
(-7.18598 0 0.220496)
(-7.68182 0 0.186797)
(-7.99143 0 0.167806)
(-8.12458 0 0.154537)
(-8.10162 0 0.137118)
(-7.94394 0 0.110901)
(-7.66943 0 0.0736069)
(-7.2904 0 0.0239047)
(-6.81453 0 -0.0376338)
(-6.24705 0 -0.107854)
(-5.59301 0 -0.181484)
(-4.85901 0 -0.252619)
(-4.05384 0 -0.316272)
(-3.18827 0 -0.369105)
(-2.27463 0 -0.409281)
(-1.32635 0 -0.435902)
(-0.35766 0 -0.448438)
(0.61657 0 -0.446495)
(1.58125 0 -0.430166)
(2.52168 0 -0.39988)
(3.4238 0 -0.356221)
(4.27444 0 -0.300276)
(5.06165 0 -0.234233)
(5.77514 0 -0.161887)
(6.40671 0 -0.0885839)
(6.95027 0 -0.020229)
(7.40094 0 0.0383528)
(7.75305 0 0.0847058)
(7.99787 0 0.11887)
(8.12166 0 0.142524)
(8.10509 0 0.158185)
(7.92686 0 0.171763)
(7.56785 0 0.194205)
(7.02305 0 0.23175)
(6.30461 0 0.275022)
(5.44685 0 0.303448)
(4.51177 0 0.304269)
(3.56819 0 0.280814)
(2.6733 0 0.242221)
(1.86267 0 0.200623)
(1.141 0 0.166434)
(0.487057 0 0.14578)
(-0.13493 0 0.14113)
(-0.766091 0 0.152907)
(-1.44618 0 0.179965)
(-2.20601 0 0.218422)
(-3.05675 0 0.260225)
(-3.98036 0 0.293771)
(-4.93005 0 0.307481)
(-5.84253 0 0.29453)
(-6.64927 0 0.257126)
(-7.29892 0 0.2141)
(-7.76878 0 0.183039)
(-8.05403 0 0.166138)
(-8.16711 0 0.153301)
(-8.12865 0 0.13547)
(-7.95978 0 0.108626)
(-7.6774 0 0.0705665)
(-7.29288 0 0.0200772)
(-6.81318 0 -0.0420726)
(-6.24308 0 -0.112535)
(-5.58739 0 -0.185966)
(-4.85261 0 -0.256547)
(-4.04743 0 -0.319471)
(-3.18254 0 -0.371574)
(-2.27012 0 -0.411143)
(-1.32345 0 -0.437342)
(-0.3566 0 -0.449672)
(0.919007 0 -1.67791)
(2.36341 0 -1.65684)
(3.79071 0 -1.61806)
(5.19125 0 -1.56302)
(6.55646 0 -1.49339)
(7.87853 0 -1.41068)
(9.14931 0 -1.31553)
(10.3585 0 -1.2073)
(11.4921 0 -1.0836)
(12.5307 0 -0.940187)
(13.4498 0 -0.770759)
(14.2202 0 -0.566638)
(14.8076 0 -0.317013)
(15.172 0 -0.0115689)
(15.2651 0 0.348285)
(15.0333 0 0.73068)
(14.4354 0 1.08017)
(13.4554 0 1.36163)
(12.1058 0 1.56042)
(10.4597 0 1.66385)
(8.63343 0 1.66758)
(6.74953 0 1.58058)
(4.91045 0 1.44384)
(3.1679 0 1.30907)
(1.51963 0 1.21561)
(-0.0741345 0 1.18448)
(-1.67031 0 1.22158)
(-3.32498 0 1.31971)
(-5.0752 0 1.45612)
(-6.91845 0 1.58973)
(-8.79748 0 1.66862)
(-10.606 0 1.65399)
(-12.2205 0 1.53964)
(-13.5271 0 1.33039)
(-14.4588 0 1.0393)
(-15.0078 0 0.681771)
(-15.1923 0 0.296769)
(-15.0563 0 -0.0601877)
(-14.6538 0 -0.360911)
(-14.0322 0 -0.606299)
(-13.2312 0 -0.807068)
(-12.2848 0 -0.97387)
(-11.2221 0 -1.11511)
(-10.0672 0 -1.23687)
(-8.83893 0 -1.34315)
(-7.55095 0 -1.4361)
(-6.21333 0 -1.5162)
(-4.83429 0 -1.58263)
(-3.42195 0 -1.63386)
(-1.98523 0 -1.66828)
(-0.53409 0 -1.68457)
(0.920953 0 -1.68206)
(2.36928 0 -1.66085)
(3.80045 0 -1.62181)
(5.20476 0 -1.56637)
(6.57356 0 -1.49618)
(7.89883 0 -1.41262)
(9.17204 0 -1.31623)
(10.3823 0 -1.20611)
(11.5148 0 -1.07964)
(12.5491 0 -0.932261)
(13.4598 0 -0.757324)
(14.2165 0 -0.545775)
(14.7838 0 -0.286606)
(15.1205 0 0.0298188)
(15.1764 0 0.398591)
(14.898 0 0.781984)
(14.248 0 1.12422)
(13.2138 0 1.39476)
(11.816 0 1.57978)
(10.1376 0 1.66789)
(8.29848 0 1.65549)
(6.42032 0 1.55734)
(4.59859 0 1.41806)
(2.87556 0 1.2886)
(1.24119 0 1.20525)
(-0.348575 0 1.18614)
(-1.95167 0 1.23498)
(-3.62235 0 1.34223)
(-5.39245 0 1.48211)
(-7.25083 0 1.61071)
(-9.13099 0 1.67664)
(-10.9215 0 1.64586)
(-12.4988 0 1.51635)
(-13.7544 0 1.29411)
(-14.6319 0 0.992794)
(-15.1298 0 0.629659)
(-15.2699 0 0.248146)
(-15.0993 0 -0.098802)
(-14.6711 0 -0.388703)
(-14.0312 0 -0.625087)
(-13.2179 0 -0.818969)
(-12.2642 0 -0.980708)
(-11.1981 0 -1.11833)
(-10.0427 0 -1.23757)
(-8.81584 0 -1.34215)
(-7.5305 0 -1.43398)
(-6.19616 0 -1.51331)
(-4.82073 0 -1.57921)
(-3.41217 0 -1.63007)
(-1.97933 0 -1.66424)
(-0.532105 0 -1.68041)
(1.03034 0 -3.18219)
(2.64883 0 -3.14757)
(4.2456 0 -3.08349)
(5.80752 0 -2.99171)
(7.32156 0 -2.8741)
(8.77448 0 -2.73197)
(10.1524 0 -2.56524)
(11.4406 0 -2.37193)
(12.6232 0 -2.14804)
(13.6836 0 -1.88789)
(14.6049 0 -1.58445)
(15.3713 0 -1.22961)
(15.9696 0 -0.814595)
(16.39 0 -0.3307)
(16.6254 0 0.230994)
(16.6594 0 0.882531)
(16.4378 0 1.63345)
(15.8599 0 2.44489)
(14.8334 0 3.17138)
(13.3186 0 3.64416)
(11.366 0 3.84784)
(9.12571 0 3.8283)
(6.77565 0 3.65743)
(4.43589 0 3.4422)
(2.1482 0 3.27817)
(-0.101554 0 3.22128)
(-2.35259 0 3.28803)
(-4.64293 0 3.45833)
(-6.98274 0 3.67208)
(-9.32318 0 3.83067)
(-11.5368 0 3.82875)
(-13.4437 0 3.59746)
(-14.9016 0 3.09321)
(-15.8706 0 2.34604)
(-16.3975 0 1.53334)
(-16.5786 0 0.789716)
(-16.5118 0 0.145542)
(-16.2455 0 -0.4101)
(-15.7943 0 -0.888593)
(-15.165 0 -1.29866)
(-14.3681 0 -1.64898)
(-13.4175 0 -1.94823)
(-12.3294 0 -2.20441)
(-11.1209 0 -2.42442)
(-9.80901 0 -2.61379)
(-8.40962 0 -2.77628)
(-6.93769 0 -2.9136)
(-5.40723 0 -3.02563)
(-3.83169 0 -3.11099)
(-2.22437 0 -3.16784)
(-0.598604 0 -3.1946)
(1.03212 0 -3.19048)
(2.65429 0 -3.1556)
(4.25445 0 -3.09099)
(5.8193 0 -2.99837)
(7.33552 0 -2.87951)
(8.78955 0 -2.73555)
(10.1672 0 -2.56615)
(11.4532 0 -2.36906)
(12.6312 0 -2.14001)
(13.6844 0 -1.87307)
(14.5956 0 -1.56102)
(15.3491 0 -1.19562)
(15.9317 0 -0.76813)
(16.3343 0 -0.269966)
(16.5495 0 0.307885)
(16.5572 0 0.977991)
(16.2948 0 1.74647)
(15.6581 0 2.55964)
(14.5606 0 3.2558)
(12.9747 0 3.68432)
(10.9689 0 3.84915)
(8.70513 0 3.8002)
(6.35555 0 3.61598)
(4.02715 0 3.40554)
(1.74992 0 3.25875)
(-0.496621 0 3.22445)
(-2.75318 0 3.31296)
(-5.05511 0 3.49788)
(-7.40478 0 3.71189)
(-9.74039 0 3.85202)
(-11.9224 0 3.81788)
(-13.7696 0 3.54604)
(-15.1547 0 2.99761)
(-16.0549 0 2.22887)
(-16.5273 0 1.42408)
(-16.6723 0 0.699195)
(-16.5815 0 0.0729929)
(-16.2957 0 -0.467039)
(-15.8271 0 -0.931728)
(-15.1829 0 -1.32982)
(-14.3737 0 -1.67011)
(-13.4137 0 -1.96124)
(-12.3191 0 -2.21108)
(-11.1067 0 -2.42631)
(-9.79301 0 -2.61222)
(-8.39365 0 -2.77228)
(-6.92309 0 -2.90793)
(-5.395 0 -3.0188)
(-3.8225 0 -3.10339)
(-2.21865 0 -3.15975)
(-0.596601 0 -3.18629)
(1.07819 0 -4.86522)
(2.76994 0 -4.81233)
(4.43389 0 -4.71402)
(6.05321 0 -4.57218)
(7.61123 0 -4.38876)
(9.09142 0 -4.16508)
(10.4775 0 -3.90112)
(11.7538 0 -3.59523)
(12.905 0 -3.2441)
(13.9173 0 -2.84314)
(14.7778 0 -2.38683)
(15.4756 0 -1.86892)
(16.0015 0 -1.28234)
(16.3479 0 -0.618494)
(16.5072 0 0.134807)
(16.471 0 0.994727)
(16.2309 0 1.97159)
(15.7781 0 3.04291)
(15.0777 0 4.14925)
(14.0099 0 5.18724)
(12.4106 0 5.93743)
(10.2923 0 6.22786)
(7.81818 0 6.17582)
(5.19356 0 5.97391)
(2.53736 0 5.78832)
(-0.116411 0 5.71976)
(-2.76947 0 5.79836)
(-5.42199 0 5.98751)
(-8.03411 0 6.17934)
(-10.4769 0 6.20292)
(-12.543 0 5.86606)
(-14.0793 0 5.07158)
(-15.0946 0 4.01588)
(-15.7586 0 2.90593)
(-16.1805 0 1.83847)
(-16.3899 0 0.869867)
(-16.3951 0 0.0183479)
(-16.2046 0 -0.728298)
(-15.827 0 -1.3867)
(-15.2696 0 -1.96836)
(-14.5404 0 -2.48146)
(-13.649 0 -2.93284)
(-12.6067 0 -3.32863)
(-11.4268 0 -3.67423)
(-10.1238 0 -3.9741)
(-8.71321 0 -4.23133)
(-7.21127 0 -4.44739)
(-5.63464 0 -4.62208)
(-4.00019 0 -4.75402)
(-2.32493 0 -4.84132)
(-0.626022 0 -4.88229)
(1.07925 0 -4.87598)
(2.77355 0 -4.82256)
(4.43962 0 -4.7232)
(6.06034 0 -4.57971)
(7.61874 0 -4.39391)
(9.09798 0 -4.16694)
(10.4815 0 -3.89856)
(11.7532 0 -3.58688)
(12.8978 0 -3.22837)
(13.9012 0 -2.81831)
(14.7505 0 -2.35109)
(15.4347 0 -1.8204)
(15.9449 0 -1.21915)
(16.2734 0 -0.538548)
(16.4126 0 0.234211)
(16.3538 0 1.11646)
(16.0886 0 2.11493)
(15.6073 0 3.20047)
(14.8649 0 4.30824)
(13.725 0 5.32086)
(12.0393 0 6.00036)
(9.85373 0 6.22401)
(7.34689 0 6.13691)
(4.71588 0 5.93115)
(2.06185 0 5.76406)
(-0.59078 0 5.72378)
(-3.24571 0 5.82916)
(-5.89948 0 6.03206)
(-8.50019 0 6.21214)
(-10.9005 0 6.19161)
(-12.8922 0 5.78172)
(-14.3415 0 4.92691)
(-15.2936 0 3.85538)
(-15.9207 0 2.75089)
(-16.3155 0 1.70018)
(-16.5004 0 0.754014)
(-16.4836 0 -0.075793)
(-16.2736 0 -0.803773)
(-15.8786 0 -1.44603)
(-15.3061 0 -2.01355)
(-14.5639 0 -2.51437)
(-13.6617 0 -2.95532)
(-12.611 0 -3.34248)
(-11.425 0 -3.68113)
(-10.1179 0 -3.97557)
(-8.70513 0 -4.22869)
(-7.20256 0 -4.44169)
(-5.62656 0 -4.61418)
(-3.9937 0 -4.74461)
(-2.32067 0 -4.83096)
(-0.624371 0 -4.87148)
(1.08814 0 -6.59688)
(2.7939 0 -6.52335)
(4.46735 0 -6.38632)
(6.0891 0 -6.18787)
(7.64018 0 -5.9302)
(9.1023 0 -5.61498)
(10.4581 0 -5.24278)
(11.6913 0 -4.81274)
(12.7872 0 -4.32265)
(13.7328 0 -3.76923)
(14.5168 0 -3.14851)
(15.1291 0 -2.45601)
(15.5614 0 -1.68662)
(15.8064 0 -0.83385)
(15.8586 0 0.111541)
(15.7165 0 1.16171)
(15.3861 0 2.32481)
(14.8759 0 3.59341)
(14.1827 0 4.94222)
(13.282 0 6.30923)
(12.0853 0 7.55002)
(10.4079 0 8.42945)
(8.15547 0 8.76167)
(5.52512 0 8.71995)
(2.72859 0 8.58292)
(-0.121944 0 8.52252)
(-2.96895 0 8.58847)
(-5.75267 0 8.72038)
(-8.35242 0 8.73376)
(-10.5497 0 8.34634)
(-12.1653 0 7.41516)
(-13.3201 0 6.14878)
(-14.191 0 4.77435)
(-14.8578 0 3.42738)
(-15.3416 0 2.16398)
(-15.6437 0 1.0077)
(-15.7555 0 -0.0358311)
(-15.6716 0 -0.975645)
(-15.3943 0 -1.82352)
(-14.9295 0 -2.58814)
(-14.2847 0 -3.27557)
(-13.4686 0 -3.89068)
(-12.4916 0 -4.43779)
(-11.3654 0 -4.92072)
(-10.1038 0 -5.34259)
(-8.72198 0 -5.70545)
(-7.23672 0 -6.00996)
(-5.66595 0 -6.25541)
(-4.02846 0 -6.44008)
(-2.34366 0 -6.56185)
(-0.631369 0 -6.61887)
(1.08833 0 -6.6101)
(2.79526 0 -6.53571)
(4.46939 0 -6.39701)
(6.09099 0 -6.19596)
(7.64081 0 -5.93466)
(9.10025 0 -5.6146)
(10.4517 0 -5.23615)
(11.6786 0 -4.79825)
(12.7663 0 -4.29855)
(13.7016 0 -3.7337)
(14.473 0 -3.09972)
(15.0707 0 -2.39219)
(15.4863 0 -1.60602)
(15.7125 0 -0.734616)
(15.7442 0 0.231571)
(15.5809 0 1.30462)
(15.2296 0 2.49076)
(14.6979 0 3.77943)
(13.98 0 5.14179)
(13.0452 0 6.50439)
(11.7888 0 7.70748)
(10.017 0 8.5035)
(7.68822 0 8.75721)
(5.02156 0 8.68685)
(2.21312 0 8.5601)
(-0.639743 0 8.52644)
(-3.48251 0 8.61667)
(-6.2498 0 8.7507)
(-8.80336 0 8.72176)
(-10.9142 0 8.24651)
(-12.4422 0 7.24335)
(-13.5457 0 5.94963)
(-14.3863 0 4.57707)
(-15.0295 0 3.24599)
(-15.4922 0 2.00371)
(-15.7733 0 0.870741)
(-15.8638 0 -0.150354)
(-15.7598 0 -1.06999)
(-15.4642 0 -1.89978)
(-14.9831 0 -2.6481)
(-14.3241 0 -3.32098)
(-13.496 0 -3.92333)
(-12.5091 0 -4.45949)
(-11.3752 0 -4.93327)
(-10.1078 0 -5.3477)
(-8.72201 0 -5.70467)
(-7.23441 0 -6.00464)
(-5.66265 0 -6.24671)
(-4.02523 0 -6.429)
(-2.34124 0 -6.54926)
(-0.630191 0 -6.60558)
(1.06834 0 -8.29981)
(2.74164 0 -8.20241)
(4.37954 0 -8.02077)
(5.96093 0 -7.75747)
(7.46549 0 -7.41552)
(8.87396 0 -6.99766)
(10.1685 0 -6.50585)
(11.3329 0 -5.94095)
(12.353 0 -5.30259)
(13.2165 0 -4.58936)
(13.913 0 -3.79896)
(14.4338 0 -2.9283)
(14.7716 0 -1.97344)
(14.9209 0 -0.929289)
(14.8783 0 0.21047)
(14.6448 0 1.452)
(14.2277 0 2.79595)
(13.6382 0 4.23143)
(12.8865 0 5.73806)
(11.9775 0 7.28665)
(10.8957 0 8.81265)
(9.55203 0 10.1556)
(7.75664 0 11.0591)
(5.40882 0 11.4077)
(2.71402 0 11.4416)
(-0.118643 0 11.4226)
(-2.94376 0 11.4355)
(-5.61336 0 11.3777)
(-7.9102 0 10.9761)
(-9.64913 0 10.0141)
(-10.9552 0 8.6376)
(-12.0124 0 7.09926)
(-12.8992 0 5.54743)
(-13.6278 0 4.04119)
(-14.192 0 2.60833)
(-14.5815 0 1.26867)
(-14.7852 0 0.0319684)
(-14.7965 0 -1.10317)
(-14.615 0 -2.14288)
(-14.2445 0 -3.09312)
(-13.6909 0 -3.95859)
(-12.9619 0 -4.74293)
(-12.0665 0 -5.44894)
(-11.0156 0 -6.0787)
(-9.8221 0 -6.6334)
(-8.5009 0 -7.1132)
(-7.0688 0 -7.51706)
(-5.54428 0 -7.84291)
(-3.94719 0 -8.08802)
(-2.29838 0 -8.24953)
(-0.619439 0 -8.32511)
(1.06763 0 -8.31349)
(2.74069 0 -8.21487)
(4.37782 0 -8.03086)
(5.9576 0 -7.76398)
(7.45941 0 -7.41712)
(8.86374 0 -6.99288)
(10.1525 0 -6.49308)
(11.3094 0 -5.91843)
(12.3201 0 -5.2685)
(13.1722 0 -4.54182)
(13.8553 0 -3.73614)
(14.3608 0 -2.84843)
(14.6815 0 -1.87481)
(14.8119 0 -0.810276)
(14.7491 0 0.351377)
(14.4949 0 1.61571)
(14.0578 0 2.98164)
(13.4488 0 4.43624)
(12.6779 0 5.95794)
(11.7482 0 7.51421)
(10.6373 0 9.02947)
(9.23627 0 10.322)
(7.34945 0 11.1343)
(4.92695 0 11.4133)
(2.19905 0 11.4314)
(-0.641403 0 11.4248)
(-3.45273 0 11.4458)
(-6.07994 0 11.3591)
(-8.29103 0 10.875)
(-9.94595 0 9.8296)
(-11.2038 0 8.41467)
(-12.2355 0 6.87236)
(-13.1023 0 5.33082)
(-13.8117 0 3.84081)
(-14.3563 0 2.42797)
(-14.7255 0 1.11074)
(-14.9085 0 -0.103283)
(-14.8998 0 -1.21693)
(-14.6998 0 -2.23672)
(-14.3125 0 -3.16868)
(-13.7441 0 -4.01758)
(-13.0022 0 -4.78712)
(-12.0958 0 -5.48018)
(-11.0359 0 -6.09884)
(-9.83531 0 -6.64426)
(-8.50873 0 -7.11647)
(-7.07281 0 -7.51431)
(-5.54582 0 -7.83556)
(-3.94733 0 -8.07735)
(-2.29789 0 -8.23674)
(-0.618773 0 -8.31133)
(1.02419 0 -9.95441)
(2.62709 0 -9.83158)
(4.19277 0 -9.60247)
(5.6992 0 -9.27046)
(7.12541 0 -8.83961)
(8.45186 0 -8.31411)
(9.66073 0 -7.69765)
(10.7363 0 -6.99305)
(11.6648 0 -6.20204)
(12.4351 0 -5.32525)
(13.0377 0 -4.36224)
(13.4652 0 -3.31165)
(13.712 0 -2.17128)
(13.7742 0 -0.938248)
(13.6509 0 0.390426)
(13.3448 0 1.81619)
(12.8632 0 3.33537)
(12.217 0 4.9359)
(11.4176 0 6.59734)
(10.4766 0 8.29069)
(9.4011 0 9.97296)
(8.17655 0 11.5675)
(6.70522 0 12.9045)
(4.8113 0 13.7566)
(2.46549 0 14.1145)
(-0.105304 0 14.1892)
(-2.66466 0 14.0862)
(-4.97343 0 13.6809)
(-6.81809 0 12.7693)
(-8.25476 0 11.3903)
(-9.45816 0 9.77553)
(-10.5153 0 8.08334)
(-11.4366 0 6.38497)
(-12.2141 0 4.72174)
(-12.8361 0 3.12167)
(-13.2911 0 1.60457)
(-13.5687 0 0.181767)
(-13.6618 0 -1.14358)
(-13.5682 0 -2.37295)
(-13.2895 0 -3.5091)
(-12.8297 0 -4.55453)
(-12.1949 0 -5.5111)
(-11.393 0 -6.37983)
(-10.4338 0 -7.16082)
(-9.32943 0 -7.85316)
(-8.09405 0 -8.45487)
(-6.74419 0 -8.96296)
(-5.29835 0 -9.37364)
(-3.77673 0 -9.6828)
(-2.2009 0 -9.88657)
(-0.593411 0 -9.98192)
(1.02263 0 -9.96725)
(2.62394 0 -9.84284)
(4.18751 0 -9.61069)
(5.69102 0 -9.27411)
(7.11323 0 -8.83711)
(8.43435 0 -8.30375)
(9.63638 0 -7.67765)
(10.7034 0 -6.96154)
(11.6218 0 -6.15711)
(12.3801 0 -5.265)
(12.969 0 -4.28485)
(13.3811 0 -3.21541)
(13.6108 0 -2.05464)
(13.6547 0 -0.799906)
(13.5121 0 0.55138)
(13.1864 0 1.99988)
(12.6858 0 3.54054)
(12.0212 0 5.15965)
(11.2043 0 6.83541)
(10.2462 0 8.53681)
(9.15287 0 10.2177)
(7.9008 0 11.7904)
(6.37312 0 13.0654)
(4.39727 0 13.8318)
(1.99612 0 14.1343)
(-0.588136 0 14.187)
(-3.1237 0 14.0559)
(-5.36549 0 13.5839)
(-7.13164 0 12.5876)
(-8.52093 0 11.1582)
(-9.70106 0 9.52886)
(-10.7408 0 7.83833)
(-11.6451 0 6.14991)
(-12.4048 0 4.50225)
(-13.0082 0 2.92167)
(-13.444 0 1.42653)
(-13.7019 0 0.0265261)
(-13.7758 0 -1.27644)
(-13.6641 0 -2.48447)
(-13.3687 0 -3.60064)
(-12.8939 0 -4.62769)
(-12.2457 0 -5.5676)
(-11.4323 0 -6.42151)
(-10.4633 0 -7.18956)
(-9.35075 0 -7.87086)
(-8.10888 0 -8.46337)
(-6.754 0 -8.96401)
(-5.3044 0 -9.3689)
(-3.78007 0 -9.67384)
(-2.20227 0 -9.87487)
(-0.59325 0 -9.96893)
(0.96029 0 -11.521)
(2.46204 0 -11.3718)
(3.92586 0 -11.0937)
(5.32948 0 -10.691)
(6.65188 0 -10.1691)
(7.87373 0 -9.53392)
(8.97768 0 -8.79121)
(9.94868 0 -7.94601)
(10.774 0 -7.00235)
(11.4434 0 -5.96308)
(11.9488 0 -4.82986)
(12.2843 0 -3.60327)
(12.4458 0 -2.28312)
(12.4316 0 -0.868857)
(12.2424 0 0.639397)
(11.8824 0 2.23925)
(11.3591 0 3.92341)
(10.683 0 5.67778)
(9.86582 0 7.48122)
(8.92025 0 9.30556)
(7.85811 0 11.1136)
(6.68772 0 12.8516)
(5.39003 0 14.421)
(3.86625 0 15.6418)
(2.0111 0 16.3501)
(-0.0829613 0 16.5531)
(-2.16396 0 16.2948)
(-3.9861 0 15.526)
(-5.48019 0 14.2543)
(-6.75964 0 12.6546)
(-7.91564 0 10.8992)
(-8.96196 0 9.08016)
(-9.8896 0 7.24879)
(-10.6865 0 5.44127)
(-11.3401 0 3.68507)
(-11.8385 0 2.00079)
(-12.1717 0 0.402033)
(-12.3324 0 -1.10429)
(-12.3168 0 -2.51585)
(-12.1248 0 -3.83234)
(-11.7583 0 -5.05395)
(-11.2218 0 -6.18049)
(-10.5217 0 -7.21093)
(-9.66669 0 -8.14322)
(-8.66763 0 -8.97415)
(-7.53796 0 -9.69938)
(-6.29346 0 -10.3137)
(-4.95222 0 -10.8113)
(-3.53426 0 -11.1863)
(-2.06124 0 -11.4337)
(-0.55598 0 -11.5495)
(0.957987 0 -11.5317)
(2.45694 0 -11.3806)
(3.9175 0 -11.0988)
(5.3171 0 -10.6906)
(6.63448 0 -10.1614)
(7.85009 0 -9.51699)
(8.94645 0 -8.76313)
(9.90838 0 -7.90482)
(10.7231 0 -6.9461)
(11.3804 0 -5.88987)
(11.8722 0 -4.7379)
(12.1926 0 -3.49096)
(12.3378 0 -2.1491)
(12.3062 0 -0.712163)
(12.0991 0 0.819174)
(11.7211 0 2.44162)
(11.1802 0 4.14666)
(10.4873 0 5.9188)
(9.65428 0 7.73567)
(8.6939 0 9.56767)
(7.61767 0 11.3758)
(6.43245 0 13.1014)
(5.10832 0 14.6342)
(3.53429 0 15.7835)
(1.62541 0 16.4104)
(-0.485029 0 16.5442)
(-2.53774 0 16.2138)
(-4.30249 0 15.3626)
(-5.75256 0 14.0279)
(-7.01033 0 12.3995)
(-8.15218 0 10.6358)
(-9.18427 0 8.81915)
(-10.0968 0 6.9971)
(-10.8776 0 5.20425)
(-11.5141 0 3.46675)
(-11.9948 0 1.80392)
(-12.3098 0 0.227965)
(-12.4526 0 -1.25536)
(-12.4199 0 -2.6445)
(-12.2117 0 -3.93966)
(-11.8305 0 -5.14134)
(-11.2807 0 -6.2496)
(-10.5688 0 -7.26358)
(-9.70349 0 -8.1813)
(-8.69569 0 -8.9996)
(-7.55871 0 -9.71415)
(-6.30826 0 -10.3197)
(-4.96222 0 -10.8104)
(-3.54043 0 -11.1803)
(-2.06426 0 -11.4244)
(-0.556282 0 -11.5386)
(0.880411 0 -12.9727)
(2.25615 0 -12.7971)
(3.59427 0 -12.4699)
(4.8728 0 -11.9965)
(6.07118 0 -11.3838)
(7.17073 0 -10.6399)
(8.15497 0 -9.77255)
(9.00985 0 -8.78935)
(9.72383 0 -7.69676)
(10.2879 0 -6.50001)
(10.6955 0 -5.20304)
(10.9423 0 -3.80859)
(11.026 0 -2.3186)
(10.9468 0 -0.734914)
(10.7072 0 0.939617)
(10.3125 0 2.6995)
(9.77087 0 4.5346)
(9.09294 0 6.42878)
(8.29088 0 8.35949)
(7.37838 0 10.2978)
(6.36992 0 12.2074)
(5.2806 0 14.0416)
(4.123 0 15.7262)
(2.87566 0 17.1262)
(1.47842 0 18.0483)
(-0.0569992 0 18.3452)
(-1.5838 0 17.9744)
(-2.96403 0 16.9886)
(-4.19843 0 15.544)
(-5.34673 0 13.8317)
(-6.42536 0 11.9793)
(-7.42063 0 10.0566)
(-8.31753 0 8.10897)
(-9.10156 0 6.17182)
(-9.75916 0 4.27355)
(-10.2782 0 2.43623)
(-10.6484 0 0.675594)
(-10.8618 0 -0.998485)
(-10.9135 0 -2.58058)
(-10.8012 0 -4.06763)
(-10.5253 0 -5.45745)
(-10.0883 0 -6.74762)
(-9.49516 0 -7.93489)
(-8.75297 0 -9.01486)
(-7.87141 0 -9.98184)
(-6.86272 0 -10.829)
(-5.7417 0 -11.5487)
(-4.5256 0 -12.1328)
(-3.23383 0 -12.5738)
(-1.88757 0 -12.8648)
(-0.509352 0 -13.0011)
(0.877503 0 -12.9802)
(2.24947 0 -12.8023)
(3.58338 0 -12.4708)
(4.85703 0 -11.9911)
(6.04964 0 -11.3701)
(7.14235 0 -10.6157)
(8.11855 0 -9.73589)
(8.9641 0 -8.73818)
(9.66747 0 -7.62911)
(10.2197 0 -6.41401)
(10.6141 0 -5.09698)
(10.8466 0 -3.68099)
(10.9152 0 -2.16832)
(10.8202 0 -0.561305)
(10.5645 0 1.13654)
(10.1537 0 2.91879)
(9.59666 0 4.77413)
(8.90413 0 6.68516)
(8.08864 0 8.62815)
(7.1641 0 10.5729)
(6.14508 0 12.4819)
(5.04696 0 14.3056)
(3.87969 0 15.9621)
(2.61253 0 17.3041)
(1.18741 0 18.1371)
(-0.359104 0 18.3312)
(-1.86773 0 17.8596)
(-3.22045 0 16.7916)
(-4.43845 0 15.2981)
(-5.57803 0 13.5635)
(-6.64739 0 11.7036)
(-7.63171 0 9.78228)
(-8.51616 0 7.84273)
(-9.2864 0 5.91915)
(-9.92912 0 4.03871)
(-10.4325 0 2.22228)
(-10.7865 0 0.484321)
(-10.9838 0 -1.16641)
(-11.0197 0 -2.72533)
(-10.8924 0 -4.19002)
(-10.6024 0 -5.55869)
(-10.1526 0 -6.82924)
(-9.54777 0 -7.99865)
(-8.79523 0 -9.06263)
(-7.90462 0 -10.0156)
(-6.88814 0 -10.8508)
(-5.76051 0 -11.5605)
(-4.53884 0 -12.1367)
(-3.24234 0 -12.5718)
(-1.89198 0 -12.859)
(-0.510053 0 -12.9935)
(0.787625 0 -14.2872)
(2.01732 0 -14.0857)
(3.2106 0 -13.7104)
(4.3463 0 -13.168)
(5.40479 0 -12.4671)
(6.36845 0 -11.6178)
(7.22195 0 -10.6304)
(7.95254 0 -9.5149)
(8.55008 0 -8.28045)
(9.00704 0 -6.93479)
(9.31842 0 -5.48423)
(9.48157 0 -3.9338)
(9.49613 0 -2.2877)
(9.36398 0 -0.550092)
(9.08934 0 1.27369)
(8.6789 0 3.17554)
(8.14182 0 5.14289)
(7.48936 0 7.15763)
(6.73468 0 9.1955)
(5.89285 0 11.2258)
(4.98101 0 13.2106)
(4.019 0 15.1022)
(3.03053 0 16.8323)
(2.03219 0 18.2837)
(1.01349 0 19.271)
(-0.0347328 0 19.6)
(-1.08067 0 19.1907)
(-2.09569 0 18.139)
(-3.0915 0 16.6438)
(-4.07613 0 14.8845)
(-5.03113 0 12.9721)
(-5.93298 0 10.9716)
(-6.76215 0 8.92947)
(-7.50166 0 6.88277)
(-8.1366 0 4.86169)
(-8.654 0 2.89004)
(-9.04276 0 0.985597)
(-9.29398 0 -0.839295)
(-9.40126 0 -2.57654)
(-9.36072 0 -4.22058)
(-9.17081 0 -5.76685)
(-8.83234 0 -7.21064)
(-8.34842 0 -8.54632)
(-7.72466 0 -9.76701)
(-6.96922 0 -10.8644)
(-6.09295 0 -11.8291)
(-5.10938 0 -12.6509)
(-4.03456 0 -13.3192)
(-2.88686 0 -13.8244)
(-1.68655 0 -14.1582)
(-0.455321 0 -14.3146)
(0.784274 0 -14.2906)
(2.00945 0 -14.0865)
(3.19784 0 -13.7064)
(4.32805 0 -13.1569)
(5.3803 0 -12.4468)
(6.33678 0 -11.5859)
(7.1821 0 -10.5849)
(7.90345 0 -9.45378)
(8.49068 0 -8.20168)
(8.93633 0 -6.83655)
(9.23546 0 -5.36492)
(9.3856 0 -3.79211)
(9.38655 0 -2.12271)
(9.24049 0 -0.361445)
(8.95194 0 1.48562)
(8.52797 0 3.40939)
(7.9781 0 5.39619)
(7.31396 0 7.42667)
(6.54903 0 9.47537)
(5.69875 0 11.5104)
(4.78069 0 13.4924)
(3.81537 0 15.3717)
(2.82678 0 17.0741)
(1.82777 0 18.4712)
(0.804356 0 19.3692)
(-0.246494 0 19.5843)
(-1.2883 0 19.0653)
(-2.29948 0 17.9336)
(-3.29533 0 16.3924)
(-4.27912 0 14.6104)
(-5.22994 0 12.6885)
(-6.12492 0 10.6873)
(-6.94511 0 8.65158)
(-7.67393 0 6.61709)
(-8.29683 0 4.6128)
(-8.80117 0 2.66132)
(-9.1762 0 0.779207)
(-9.41341 0 -1.02228)
(-9.50675 0 -2.73595)
(-9.45266 0 -4.35693)
(-9.24985 0 -5.88116)
(-8.89929 0 -7.30429)
(-8.40424 0 -8.62097)
(-7.77037 0 -9.8245)
(-7.0059 0 -10.9067)
(-6.12166 0 -11.8583)
(-5.1311 0 -12.669)
(-4.0502 0 -13.3286)
(-2.89715 0 -13.8272)
(-1.69204 0 -14.1567)
(-0.456343 0 -14.3111)
(0.68441 0 -15.4465)
(1.75191 0 -15.2202)
(2.78502 0 -14.7989)
(3.76384 0 -14.1907)
(4.67011 0 -13.406)
(5.48759 0 -12.4571)
(6.20244 0 -11.3567)
(6.80342 0 -10.1175)
(7.28197 0 -8.75129)
(7.63218 0 -7.26838)
(7.85069 0 -5.6776)
(7.93658 0 -3.98632)
(7.89124 0 -2.20104)
(7.71831 0 -0.328162)
(7.42364 0 1.62466)
(7.01535 0 3.64699)
(6.50376 0 5.72408)
(5.90119 0 7.8358)
(5.22193 0 9.95586)
(4.4825 0 12.0512)
(3.70214 0 14.0809)
(2.90358 0 15.9936)
(2.11431 0 17.719)
(1.36199 0 19.148)
(0.656634 0 20.1139)
(-0.0187434 0 20.4354)
(-0.695494 0 20.0346)
(-1.40427 0 19.0046)
(-2.15973 0 17.5301)
(-2.94926 0 15.7725)
(-3.7445 0 13.8357)
(-4.51837 0 11.7874)
(-5.24848 0 9.6775)
(-5.91586 0 7.54616)
(-6.50421 0 5.42583)
(-6.99938 0 3.34235)
(-7.38925 0 1.31554)
(-7.6637 0 -0.640023)
(-7.81489 0 -2.51387)
(-7.83725 0 -4.29811)
(-7.72748 0 -5.98585)
(-7.48462 0 -7.57003)
(-7.11005 0 -9.0426)
(-6.6077 0 -10.3941)
(-5.98412 0 -11.6136)
(-5.24856 0 -12.6889)
(-4.413 0 -13.6071)
(-3.49203 0 -14.3554)
(-2.50257 0 -14.9219)
(-1.46354 0 -15.2965)
(-0.395328 0 -15.472)
(0.680785 0 -15.445)
(1.74328 0 -15.216)
(2.77106 0 -14.7895)
(3.74407 0 -14.1736)
(4.64388 0 -13.3788)
(5.45415 0 -12.4175)
(6.16097 0 -11.3026)
(6.75309 0 -10.0468)
(7.22196 0 -8.66201)
(7.56175 0 -7.15882)
(7.76923 0 -5.54627)
(7.84364 0 -3.8321)
(7.78658 0 -2.02325)
(7.60196 0 -0.126724)
(7.29594 0 1.84903)
(6.87698 0 3.89259)
(6.35574 0 5.98806)
(5.74489 0 8.11411)
(5.05911 0 10.2432)
(4.31536 0 12.341)
(3.53345 0 14.365)
(2.73689 0 16.2617)
(1.95394 0 17.9562)
(1.21081 0 19.3303)
(0.51297 0 20.2093)
(-0.160166 0 20.4201)
(-0.840723 0 19.9127)
(-1.55792 0 18.8046)
(-2.32216 0 17.2826)
(-3.11683 0 15.4987)
(-3.91302 0 13.549)
(-4.68453 0 11.4972)
(-5.40968 0 9.39161)
(-6.07001 0 7.27076)
(-6.64964 0 5.1659)
(-7.13482 0 3.10162)
(-7.51374 0 1.09652)
(-7.77666 0 -0.835896)
(-7.91605 0 -2.68611)
(-7.92666 0 -4.44695)
(-7.80545 0 -6.11209)
(-7.55163 0 -7.67488)
(-7.16676 0 -9.12759)
(-6.65487 0 -10.461)
(-6.02256 0 -11.6643)
(-5.27913 0 -12.7256)
(-4.43651 0 -13.632)
(-3.50921 0 -14.3707)
(-2.51404 0 -14.93)
(-1.46976 0 -15.2999)
(-0.396587 0 -15.4732)
(0.572744 0 -16.4358)
(1.46501 0 -16.1864)
(2.32565 0 -15.7224)
(3.13652 0 -15.0531)
(3.88106 0 -14.1909)
(4.54477 0 -13.1501)
(5.11556 0 -11.9462)
(5.5839 0 -10.5945)
(5.94293 0 -9.10923)
(6.18842 0 -7.50352)
(6.31869 0 -5.78864)
(6.33448 0 -3.97437)
(6.23883 0 -2.06945)
(6.037 0 -0.0825119)
(5.73637 0 1.97663)
(5.34639 0 4.09539)
(4.87851 0 6.25702)
(4.34604 0 8.43941)
(3.76422 0 10.6141)
(3.15046 0 12.7455)
(2.52479 0 14.7896)
(1.91033 0 16.6911)
(1.33347 0 18.3775)
(0.820108 0 19.7458)
(0.380803 0 20.6532)
(-0.00756782 0 20.9515)
(-0.398617 0 20.578)
(-0.844088 0 19.6078)
(-1.36341 0 18.192)
(-1.94355 0 16.4702)
(-2.55802 0 14.5413)
(-3.18064 0 12.4756)
(-3.78858 0 10.3269)
(-4.36205 0 8.13845)
(-4.88385 0 5.94518)
(-5.33888 0 3.77506)
(-5.71401 0 1.6499)
(-5.99796 0 -0.413676)
(-6.18152 0 -2.40301)
(-6.25757 0 -4.308)
(-6.22118 0 -6.1195)
(-6.06971 0 -7.82808)
(-5.80287 0 -9.42325)
(-5.42286 0 -10.893)
(-4.93453 0 -12.2236)
(-4.34542 0 -13.4003)
(-3.66573 0 -14.4074)
(-2.9083 0 -15.2297)
(-2.08827 0 -15.853)
(-1.22279 0 -16.2655)
(-0.330521 0 -16.459)
(0.569016 0 -16.4292)
(1.45604 0 -16.1769)
(2.31119 0 -15.7073)
(3.11617 0 -15.0298)
(3.85431 0 -14.1569)
(4.51104 0 -13.1031)
(5.07423 0 -11.8839)
(5.53436 0 -10.5148)
(5.88461 0 -9.01036)
(6.12087 0 -7.38383)
(6.24159 0 -5.64682)
(6.24769 0 -3.80948)
(6.14247 0 -1.88105)
(5.93142 0 0.129179)
(5.62223 0 2.21058)
(5.22468 0 4.34957)
(4.75053 0 6.52824)
(4.21343 0 8.72324)
(3.62901 0 10.9048)
(3.01512 0 13.036)
(2.39231 0 15.0711)
(1.78432 0 16.9526)
(1.21801 0 18.6041)
(0.718143 0 19.9163)
(0.290665 0 20.741)
(-0.0938232 0 20.9375)
(-0.491374 0 20.4655)
(-0.949738 0 19.4196)
(-1.48206 0 17.9541)
(-2.07166 0 16.2019)
(-2.69156 0 14.2562)
(-3.31618 0 12.1839)
(-3.92327 0 10.037)
(-4.49354 0 7.85701)
(-5.01021 0 5.67759)
(-5.45856 0 3.5254)
(-5.82576 0 1.42103)
(-6.1009 0 -0.619985)
(-6.27505 0 -2.58596)
(-6.34141 0 -4.46755)
(-6.2953 0 -6.25621)
(-6.13427 0 -7.943)
(-5.85823 0 -9.51775)
(-5.46953 0 -10.9687)
(-4.97308 0 -12.2825)
(-4.37646 0 -13.4444)
(-3.6899 0 -14.439)
(-2.92616 0 -15.2511)
(-2.10032 0 -15.8667)
(-1.22941 0 -16.2742)
(-0.331933 0 -16.4653)
(0.454212 0 -17.2434)
(1.16067 0 -16.9731)
(1.83901 0 -16.4705)
(2.47319 0 -15.7462)
(3.04876 0 -14.8143)
(3.55326 0 -13.6916)
(3.97655 0 -12.3958)
(4.31099 0 -10.9449)
(4.5515 0 -9.35582)
(4.69555 0 -7.64415)
(4.74307 0 -5.82366)
(4.69636 0 -3.90648)
(4.55996 0 -1.90358)
(4.34051 0 0.174288)
(4.04669 0 2.31527)
(3.68905 0 4.50484)
(3.27991 0 6.72443)
(2.83323 0 8.95009)
(2.36464 0 11.1515)
(1.89154 0 13.2907)
(1.43325 0 15.3213)
(1.01095 0 17.1857)
(0.646772 0 18.8112)
(0.359682 0 20.1028)
(0.153444 0 20.9417)
(0.00071149 0 21.2134)
(-0.154883 0 20.8714)
(-0.367899 0 19.9717)
(-0.662226 0 18.6315)
(-1.03179 0 16.9678)
(-1.45687 0 15.0731)
(-1.91529 0 13.018)
(-2.38598 0 10.8589)
(-2.84979 0 8.64142)
(-3.28945 0 6.40265)
(-3.68948 0 4.17251)
(-4.03603 0 1.97462)
(-4.31695 0 -0.172524)
(-4.52188 0 -2.25428)
(-4.64238 0 -4.25846)
(-4.67212 0 -6.17372)
(-4.6069 0 -7.98836)
(-4.44486 0 -9.68947)
(-4.18656 0 -11.2624)
(-3.8351 0 -12.691)
(-3.39617 0 -13.9577)
(-2.87807 0 -15.0443)
(-2.29158 0 -15.9329)
(-1.64979 0 -16.6074)
(-0.967711 0 -17.0542)
(-0.261815 0 -17.2639)
(0.450544 0 -17.2316)
(1.15177 0 -16.9582)
(1.8247 0 -16.4497)
(2.45317 0 -15.7167)
(3.02265 0 -14.7738)
(3.52064 0 -13.6375)
(3.93701 0 -12.3259)
(4.26413 0 -10.8572)
(4.49701 0 -9.24854)
(4.63324 0 -7.5158)
(4.67292 0 -5.67311)
(4.61853 0 -3.733)
(4.47487 0 -1.70699)
(4.24882 0 0.393504)
(3.94936 0 2.55577)
(3.58734 0 4.76429)
(3.17537 0 6.9993)
(2.72772 0 9.23563)
(2.26033 0 11.4415)
(1.79097 0 13.5778)
(1.33932 0 15.5961)
(0.926873 0 17.437)
(0.575717 0 19.0245)
(0.303432 0 20.2596)
(0.109544 0 21.0209)
(-0.0391904 0 21.2008)
(-0.201501 0 20.7694)
(-0.428101 0 19.7976)
(-0.737037 0 18.4062)
(-1.11883 0 16.7088)
(-1.55288 0 14.7937)
(-2.01711 0 12.729)
(-2.49082 0 10.569)
(-2.95521 0 8.3577)
(-3.39335 0 6.13091)
(-3.79006 0 3.91716)
(-4.13183 0 1.73886)
(-4.40679 0 -0.38662)
(-4.60487 0 -2.44561)
(-4.71792 0 -4.42672)
(-4.73985 0 -6.31923)
(-4.66671 0 -8.11196)
(-4.49683 0 -9.79235)
(-4.23091 0 -11.3462)
(-3.87217 0 -12.7574)
(-3.42637 0 -14.0088)
(-2.90182 0 -15.0823)
(-2.30931 0 -15.9603)
(-1.66186 0 -16.6268)
(-0.974397 0 -17.0683)
(-0.263298 0 -17.2754)
(0.330101 0 -17.8598)
(0.842202 0 -17.5712)
(1.33036 0 -17.035)
(1.78105 0 -16.2629)
(2.18222 0 -15.271)
(2.52375 0 -14.0779)
(2.79764 0 -12.704)
(2.99827 0 -11.1694)
(3.12237 0 -9.4938)
(3.16909 0 -7.6951)
(3.13988 0 -5.78946)
(3.0384 0 -3.79126)
(2.87044 0 -1.7136)
(2.64379 0 0.43076)
(2.36806 0 2.62809)
(2.05456 0 4.86218)
(1.71607 0 7.11286)
(1.36666 0 9.35471)
(1.02166 0 11.5559)
(0.697527 0 13.6771)
(0.411606 0 15.6705)
(0.18156 0 17.4782)
(0.0237408 0 19.0298)
(-0.051011 0 20.2401)
(-0.0466047 0 21.0117)
(0.00739956 0 21.2584)
(0.0587394 0 20.9463)
(0.0565618 0 20.1162)
(-0.0259223 0 18.857)
(-0.190584 0 17.2654)
(-0.42567 0 15.425)
(-0.714535 0 13.4048)
(-1.03946 0 11.2615)
(-1.38314 0 9.04195)
(-1.72918 0 6.78488)
(-2.06235 0 4.52164)
(-2.36864 0 2.27738)
(-2.6354 0 0.0721737)
(-2.8515 0 -2.07759)
(-3.0075 0 -4.15777)
(-3.09591 0 -6.15499)
(-3.11126 0 -8.05535)
(-3.05025 0 -9.8436)
(-2.91188 0 -11.5027)
(-2.69751 0 -13.014)
(-2.41096 0 -14.3573)
(-2.05844 0 -15.512)
(-1.64851 0 -16.458)
(-1.19186 0 -17.1769)
(-0.701037 0 -17.6535)
(-0.189949 0 -17.8773)
(0.326645 0 -17.8429)
(0.833761 0 -17.5511)
(1.31681 0 -17.0087)
(1.76218 0 -16.2278)
(2.1578 0 -15.2244)