/*--------------------------------*- C++ -*----------------------------------*\
| =========                 |                                                 |
| \\      /  F ield         | OpenFOAM: The Open Source CFD Toolbox           |
|  \\    /   O peration     | Version:  2.3.0                                 |
|   \\  /    A nd           | Web:      www.OpenFOAM.org                      |
|    \\/     M anipulation  |                                                 |
\*---------------------------------------------------------------------------*/
FoamFile
{
    version     2.0;
    format      ascii;
    class       volVectorField;
    location    "15000";
    object      U;
}
// * * * * * * * * * * * * * * * * * * * * * * * * * * * * * * * * * * * * * //

dimensions      [0 1 -1 0 0 0 0];

internalField   nonuniform List<vector> 
765
(
(46.1669 0 0.560559)
(46.2888 0 -0.0219201)
(47.6847 0 -0.797443)
(50.534 0 -1.6594)
(54.6084 0 -2.31998)
(58.9091 0 -2.2821)
(61.3784 0 -0.940653)
(58.9383 0 2.0311)
(48.054 0 6.48488)
(26.0082 0 11.2849)
(-5.39863 0 13.3102)
(-34.7491 0 9.8169)
(-52.9249 0 4.89316)
(-60.6574 0 0.858033)
(-61.0753 0 -1.54962)
(-57.6889 0 -2.42185)
(-53.257 0 -2.16264)
(-49.5057 0 -1.38428)
(-47.13 0 -0.523911)
(-46.1844 0 0.195323)
(-46.4158 0 0.715777)
(-47.4881 0 1.07099)
(-49.1218 0 1.35293)
(-51.1699 0 1.64714)
(-53.5903 0 2.03395)
(-56.4308 0 2.60436)
(-59.8309 0 3.47057)
(-64.0148 0 4.72129)
(-69.1414 0 6.24589)
(-75.0272 0 7.29012)
(-79.7336 0 5.64418)
(-78.1573 0 -0.595403)
(-67.9232 0 -9.45707)
(-51.0063 0 -18.3556)
(-29.2735 0 -24.5876)
(-7.0982 0 -25.7098)
(15.1327 0 -25.5436)
(37.2782 0 -22.9928)
(57.9096 0 -15.1778)
(72.5593 0 -6.15586)
(79.7862 0 2.29502)
(78.2678 0 6.74218)
(72.7435 0 7.02756)
(67.097 0 5.6465)
(62.3514 0 4.1948)
(58.499 0 3.09916)
(55.333 0 2.36121)
(52.6587 0 1.87332)
(50.3731 0 1.53237)
(48.4596 0 1.25504)
(46.9927 0 0.960792)
(81.2287 0 0.096381)
(82.9193 0 -1.62052)
(85.7091 0 -3.67108)
(89.5236 0 -5.59599)
(93.8052 0 -6.47947)
(97.2117 0 -4.9033)
(97.3427 0 0.766116)
(90.5176 0 11.7889)
(72.2657 0 27.8962)
(38.8224 0 45.1011)
(-8.07094 0 52.1519)
(-51.8849 0 39.8859)
(-79.9957 0 22.1707)
(-93.9998 0 7.51582)
(-98.0233 0 -1.68347)
(-96.4206 0 -5.85166)
(-92.494 0 -6.41713)
(-88.248 0 -5.04008)
(-84.7292 0 -2.98669)
(-82.3015 0 -1.00713)
(-80.9351 0 0.561314)
(-80.4082 0 1.64821)
(-80.4181 0 2.36359)
(-80.6407 0 2.85099)
(-80.7676 0 3.2284)
(-80.4815 0 3.58114)
(-79.4256 0 3.95895)
(-77.1751 0 4.28806)
(-73.1855 0 4.14411)
(-67.0061 0 2.24678)
(-57.8609 0 -4.11596)
(-45.6643 0 -15.0053)
(-32.3729 0 -22.219)
(-21.1209 0 -24.2818)
(-12.048 0 -25.9846)
(-3.044 0 -26.8614)
(6.15145 0 -26.6777)
(15.1413 0 -25.4492)
(24.6679 0 -23.7494)
(37.0828 0 -20.7561)
(50.4127 0 -10.6086)
(61.5886 0 -1.08091)
(69.5972 0 3.25092)
(74.9185 0 4.26837)
(78.2006 0 4.16452)
(79.9498 0 3.80698)
(80.6689 0 3.44896)
(80.7534 0 3.10139)
(80.542 0 2.70136)
(80.3422 0 2.15608)
(80.4644 0 1.33598)
(85.5345 0 -1.92753)
(87.9504 0 -4.41631)
(90.805 0 -7.17412)
(93.8575 0 -9.39147)
(96.5099 0 -9.57935)
(97.6196 0 -5.4901)
(95.2819 0 5.59314)
(86.6747 0 26.0418)
(68.1639 0 55.7482)
(36.3882 0 87.6775)
(-7.54545 0 100.564)
(-48.6342 0 78.0031)
(-75.7149 0 45.1533)
(-90.5436 0 18.1461)
(-96.6672 0 0.922889)
(-97.5808 0 -7.54755)
(-95.7903 0 -9.91336)
(-92.9038 0 -8.825)
(-89.8634 0 -6.29077)
(-87.1307 0 -3.55488)
(-84.8603 0 -1.24351)
(-83.0245 0 0.410634)
(-81.4623 0 1.39097)
(-79.9018 0 1.77717)
(-77.9852 0 1.64181)
(-75.2739 0 1.01751)
(-71.2514 0 -0.0906814)
(-65.3711 0 -1.71397)
(-57.2677 0 -4.01204)
(-47.2925 0 -7.52251)
(-36.0791 0 -13.5109)
(-28.5482 0 -22.3741)
(-22.5696 0 -29.4438)
(-16.2104 0 -33.2028)
(-9.33113 0 -35.0989)
(-2.33401 0 -35.8884)
(4.71753 0 -35.7333)
(11.6974 0 -34.6031)
(18.4253 0 -32.2002)
(24.6088 0 -27.4399)
(30.5434 0 -18.9632)
(40.2137 0 -11.0273)
(51.2023 0 -6.0959)
(60.5651 0 -3.10061)
(67.8247 0 -1.06097)
(72.9421 0 0.38029)
(76.4006 0 1.31914)
(78.7457 0 1.77266)
(80.4657 0 1.73156)
(81.9683 0 1.15246)
(83.5803 0 -0.0467607)
(76.5898 0 -4.17885)
(78.5703 0 -6.82268)
(80.424 0 -9.53906)
(81.8494 0 -11.2894)
(82.3317 0 -10.2456)
(81.0456 0 -3.66808)
(76.7491 0 11.8236)
(67.747 0 39.2953)
(51.8887 0 78.9286)
(27.1743 0 121.623)
(-5.54431 0 138.675)
(-36.3924 0 108.705)
(-58.0245 0 64.7835)
(-71.3907 0 28.738)
(-78.6181 0 5.42005)
(-81.7656 0 -6.72529)
(-82.3604 0 -11.0983)
(-81.493 0 -10.9462)
(-79.8774 0 -8.71013)
(-77.9502 0 -5.9316)
(-75.9582 0 -3.44101)
(-74.0072 0 -1.61562)
(-72.0879 0 -0.599415)
(-70.0678 0 -0.436139)
(-67.6868 0 -1.16761)
(-64.562 0 -2.85473)
(-60.2072 0 -5.5348)
(-54.1129 0 -9.12242)
(-45.9984 0 -13.3322)
(-36.4873 0 -17.7526)
(-26.274 0 -22.4067)
(-20.4002 0 -28.3035)
(-16.2216 0 -34.3597)
(-11.872 0 -38.322)
(-6.98324 0 -40.8081)
(-1.76876 0 -41.9588)
(3.546 0 -41.7161)
(8.66026 0 -40.0949)
(13.3501 0 -37.1453)
(17.5413 0 -32.515)
(21.8569 0 -26.183)
(29.9555 0 -20.737)
(40.101 0 -16.1943)
(49.2234 0 -11.7577)
(56.5861 0 -7.70125)
(61.9721 0 -4.41016)
(65.7997 0 -2.08593)
(68.5848 0 -0.749899)
(70.7799 0 -0.343607)
(72.7238 0 -0.808291)
(74.6313 0 -2.10713)
(60.9546 0 -5.78932)
(61.8088 0 -8.16899)
(62.1492 0 -10.3761)
(61.7066 0 -11.2434)
(60.1237 0 -8.77013)
(56.924 0 0.0219348)
(51.5034 0 18.7898)
(43.218 0 50.8256)
(31.3801 0 96.3073)
(15.6613 0 144.831)
(-3.0394 0 163.941)
(-21.1005 0 130.252)
(-35.6137 0 80.1663)
(-46.2642 0 38.6326)
(-53.5655 0 11.1936)
(-58.213 0 -3.852)
(-60.8354 0 -10.1608)
(-62.0018 0 -11.2423)
(-62.1514 0 -9.75369)
(-61.6127 0 -7.3929)
(-60.6309 0 -5.11201)
(-59.3751 0 -3.39604)
(-57.9346 0 -2.49625)
(-56.3023 0 -2.5812)
(-54.3513 0 -3.82432)
(-51.8194 0 -6.41494)
(-48.3224 0 -10.4721)
(-43.4192 0 -15.831)
(-36.7891 0 -21.7757)
(-28.9147 0 -26.9079)
(-20.2792 0 -29.8759)
(-14.3098 0 -32.9639)
(-11.0576 0 -38.2085)
(-8.02204 0 -42.317)
(-4.71679 0 -45.0901)
(-1.20452 0 -46.3972)
(2.38515 0 -46.1159)
(5.8304 0 -44.278)
(9.01602 0 -41.0155)
(12.0837 0 -36.4087)
(15.6668 0 -31.8552)
(23.4099 0 -29.2016)
(31.7794 0 -25.3125)
(39.3521 0 -19.6167)
(45.3409 0 -13.7238)
(49.6796 0 -8.7773)
(52.7709 0 -5.25189)
(55.0474 0 -3.16919)
(56.8542 0 -2.36294)
(58.4043 0 -2.64395)
(59.7805 0 -3.84591)
(40.2529 0 -6.24003)
(39.8059 0 -8.05903)
(38.6567 0 -9.49314)
(36.6368 0 -9.34164)
(33.5818 0 -5.57052)
(29.3515 0 4.81998)
(23.9016 0 25.4448)
(17.4129 0 59.4545)
(10.4242 0 106.683)
(4.15384 0 156.093)
(-0.561305 0 175.224)
(-5.7589 0 141.439)
(-12.5495 0 90.1071)
(-19.5523 0 46.673)
(-25.7934 0 17.259)
(-30.8911 0 0.41659)
(-34.7452 0 -7.40757)
(-37.4507 0 -9.70082)
(-39.1683 0 -9.15098)
(-40.0688 0 -7.49099)
(-40.3212 0 -5.71044)
(-40.0838 0 -4.34257)
(-39.4893 0 -3.7043)
(-38.6203 0 -4.05772)
(-37.4755 0 -5.69724)
(-35.9375 0 -8.94601)
(-33.7614 0 -14.0293)
(-30.6103 0 -20.7772)
(-26.1577 0 -28.2142)
(-20.5791 0 -34.3506)
(-14.198 0 -36.8548)
(-8.73039 0 -37.4396)
(-6.5227 0 -40.9569)
(-4.66027 0 -44.7722)
(-2.753 0 -47.6906)
(-0.712582 0 -49.1357)
(1.38113 0 -48.8189)
(3.38154 0 -46.8102)
(5.21434 0 -43.517)
(7.26146 0 -39.5297)
(10.2609 0 -37.2487)
(16.621 0 -36.6313)
(22.5826 0 -32.5092)
(27.8276 0 -25.539)
(31.7786 0 -18.1371)
(34.5416 0 -11.9189)
(36.46 0 -7.50754)
(37.8422 0 -4.87589)
(38.8879 0 -3.73534)
(39.6708 0 -3.76495)
(40.16 0 -4.68749)
(15.907 0 -5.46634)
(14.3719 0 -6.61023)
(12.1348 0 -7.25214)
(9.14437 0 -6.2217)
(5.41003 0 -1.54039)
(1.07851 0 9.65239)
(-3.4352 0 30.71)
(-7.30405 0 64.3487)
(-8.96459 0 109.765)
(-6.12409 0 155.903)
(1.59593 0 173.468)
(8.03597 0 142.484)
(9.00396 0 94.091)
(6.29038 0 51.8963)
(2.00839 0 22.4993)
(-2.55602 0 5.04592)
(-6.74279 0 -3.65684)
(-10.2498 0 -6.86919)
(-12.9968 0 -7.17779)
(-15.0007 0 -6.27504)
(-16.3287 0 -5.12655)
(-17.0815 0 -4.25431)
(-17.3849 0 -3.98436)
(-17.3658 0 -4.62058)
(-17.1119 0 -6.5378)
(-16.6291 0 -10.1714)
(-15.8183 0 -15.8614)
(-14.4887 0 -23.4952)
(-12.4173 0 -31.9886)
(-9.63984 0 -39.0169)
(-6.20235 0 -41.6915)
(-3.16392 0 -40.4764)
(-2.31515 0 -42.5423)
(-1.67678 0 -46.0245)
(-1.04023 0 -48.9945)
(-0.281642 0 -50.5293)
(0.517046 0 -50.1881)
(1.2377 0 -48.0735)
(1.81535 0 -44.8668)
(2.60574 0 -41.7152)
(4.21765 0 -41.0447)
(7.61073 0 -41.4337)
(10.6069 0 -36.8208)
(13.1157 0 -28.8984)
(14.8878 0 -20.5037)
(16.0184 0 -13.5123)
(16.7142 0 -8.58886)
(17.1294 0 -5.62481)
(17.3237 0 -4.21613)
(17.2589 0 -3.94066)
(16.8297 0 -4.45498)
(-9.70231 0 -3.79147)
(-11.8909 0 -4.29882)
(-14.6963 0 -4.27709)
(-18.0776 0 -2.62255)
(-21.8728 0 2.50083)
(-25.6641 0 13.6716)
(-28.6278 0 33.8303)
(-29.3243 0 65.0119)
(-25.4851 0 105.696)
(-14.497 0 145.612)
(3.26837 0 160.625)
(19.3493 0 134.289)
(27.6129 0 91.9618)
(29.574 0 53.6802)
(27.8504 0 26.1093)
(24.4526 0 9.17656)
(20.5739 0 0.287213)
(16.8722 0 -3.45439)
(13.6597 0 -4.41213)
(11.0467 0 -4.17011)
(9.04732 0 -3.63774)
(7.61345 0 -3.29166)
(6.64255 0 -3.42395)
(5.9929 0 -4.33451)
(5.52432 0 -6.43713)
(5.13996 0 -10.2399)
(4.79437 0 -16.1626)
(4.47963 0 -24.1437)
(4.18669 0 -33.0668)
(3.78779 0 -40.4875)
(3.6542 0 -43.3096)
(2.74175 0 -41.1572)
(1.8737 0 -42.5826)
(1.13718 0 -46.019)
(0.556588 0 -49.0894)
(0.118133 0 -50.7039)
(-0.279543 0 -50.3406)
(-0.76999 0 -48.1182)
(-1.42424 0 -44.8564)
(-2.15081 0 -42.0507)
(-3.32326 0 -42.1253)
(-3.8255 0 -42.8938)
(-4.1835 0 -38.0628)
(-4.53329 0 -29.7874)
(-4.80412 0 -21.0222)
(-5.09451 0 -13.7429)
(-5.41535 0 -8.62066)
(-5.79116 0 -5.48927)
(-6.28394 0 -3.8686)
(-7.00628 0 -3.27519)
(-8.10221 0 -3.34177)
(-33.7999 0 -1.6847)
(-36.1966 0 -1.61737)
(-39.1537 0 -1.0589)
(-42.5471 0 0.966096)
(-46.0387 0 6.06037)
(-48.9268 0 16.4092)
(-49.9836 0 34.3685)
(-47.2819 0 61.2401)
(-38.2766 0 95.0964)
(-20.6683 0 127.192)
(4.3995 0 139.189)
(27.709 0 118.353)
(42.2306 0 83.9536)
(48.8089 0 51.6768)
(49.9637 0 27.6195)
(48.0973 0 12.3282)
(44.8863 0 3.93799)
(41.3569 0 0.0549721)
(38.0708 0 -1.34858)
(35.2792 0 -1.6662)
(33.0595 0 -1.70159)
(31.3893 0 -1.85973)
(30.1661 0 -2.37281)
(29.2197 0 -3.50734)
(28.3578 0 -5.68546)
(27.4047 0 -9.44053)
(26.1735 0 -15.1987)
(24.4396 0 -22.8802)
(21.9085 0 -31.3504)
(18.2662 0 -38.275)
(14.2877 0 -40.8067)
(8.72283 0 -38.8302)
(6.14685 0 -40.7396)
(4.01465 0 -44.6945)
(2.20165 0 -47.9974)
(0.526122 0 -49.6934)
(-1.11458 0 -49.3117)
(-2.84964 0 -46.9649)
(-4.74041 0 -43.376)
(-7.02669 0 -39.7785)
(-11.3988 0 -39.6335)
(-16.28 0 -40.5043)
(-20.0976 0 -36.0724)
(-23.2579 0 -28.3073)
(-25.39 0 -19.9382)
(-26.8594 0 -12.9007)
(-27.9221 0 -7.89158)
(-28.789 0 -4.75822)
(-29.6331 0 -3.00751)
(-30.6307 0 -2.13218)
(-31.9699 0 -1.76883)
(-53.6651 0 0.437947)
(-55.9353 0 1.06091)
(-58.7338 0 2.0776)
(-61.8487 0 4.26244)
(-64.7765 0 8.87811)
(-66.5651 0 17.6189)
(-65.6556 0 32.198)
(-59.8586 0 53.3446)
(-46.6954 0 79.1767)
(-24.4988 0 102.952)
(4.98719 0 111.839)
(32.858 0 96.6201)
(51.9951 0 70.903)
(62.4786 0 45.9827)
(66.377 0 26.8288)
(66.1707 0 14.25)
(63.8539 0 7.02687)
(60.7708 0 3.36242)
(57.7079 0 1.67134)
(55.0564 0 0.846606)
(52.961 0 0.253082)
(51.4194 0 -0.404218)
(50.3139 0 -1.26507)
(49.4156 0 -2.53434)
(48.451 0 -4.62278)
(47.1559 0 -8.04973)
(45.211 0 -13.1748)
(42.2227 0 -19.8384)
(37.6996 0 -26.8993)
(31.2626 0 -32.3598)
(23.7546 0 -34.158)
(14.243 0 -33.6659)
(10.5495 0 -37.3752)
(7.21787 0 -42.1078)
(4.06578 0 -45.6444)
(0.981013 0 -47.3808)
(-2.11015 0 -46.9882)
(-5.24411 0 -44.5506)
(-8.41974 0 -40.4577)
(-12.0091 0 -35.0779)
(-17.6675 0 -33.6235)
(-26.9683 0 -34.089)
(-34.0314 0 -30.767)
(-39.7773 0 -24.4919)
(-43.6394 0 -17.3767)
(-46.1706 0 -11.1955)
(-47.8095 0 -6.68666)
(-48.9325 0 -3.78155)
(-49.8255 0 -2.03654)
(-50.7474 0 -0.948271)
(-51.9622 0 -0.176094)
(-66.4808 0 2.30918)
(-68.3791 0 3.47225)
(-70.7124 0 4.88045)
(-73.2245 0 7.04682)
(-75.3299 0 10.8301)
(-75.9494 0 17.37)
(-73.3938 0 27.7767)
(-65.4569 0 42.4313)
(-49.9209 0 59.9025)
(-25.7422 0 75.651)
(5.0254 0 81.5881)
(34.4324 0 71.6023)
(55.8518 0 54.4597)
(68.7513 0 37.4447)
(74.6818 0 24.0304)
(75.9753 0 14.9227)
(74.706 0 9.3865)
(72.364 0 6.23419)
(69.8525 0 4.38994)
(67.6328 0 3.10156)
(65.8857 0 1.95728)
(64.6322 0 0.809209)
(63.7595 0 -0.347208)
(62.9912 0 -1.61239)
(61.9823 0 -3.38682)
(60.3916 0 -6.17076)
(57.7936 0 -10.2513)
(53.7058 0 -15.4565)
(47.5968 0 -20.7116)
(39.2554 0 -24.3397)
(29.0511 0 -24.9878)
(19.9958 0 -25.9573)
(15.4799 0 -32.9173)
(11.034 0 -38.2637)
(6.31479 0 -41.8158)
(1.52632 0 -43.4944)
(-3.32368 0 -43.1085)
(-8.09743 0 -40.7151)
(-12.7666 0 -36.4203)
(-17.1602 0 -30.2067)
(-21.8842 0 -25.3458)
(-32.9533 0 -24.9825)
(-42.4722 0 -23.264)
(-50.1303 0 -18.9623)
(-55.4547 0 -13.5639)
(-58.962 0 -8.70853)
(-61.1386 0 -5.09365)
(-62.4772 0 -2.70423)
(-63.359 0 -1.16411)
(-64.1169 0 0.025158)
(-65.0819 0 1.17106)
(-69.3524 0 3.59889)
(-70.6313 0 5.12826)
(-72.0897 0 6.70835)
(-73.5238 0 8.60086)
(-74.4307 0 11.2602)
(-73.8511 0 15.2903)
(-70.276 0 21.2798)
(-61.7692 0 29.4312)
(-46.4844 0 38.9771)
(-23.7663 0 47.5143)
(4.45003 0 50.8064)
(31.6105 0 45.3916)
(52.0815 0 36.0804)
(65.099 0 26.7229)
(71.818 0 19.1838)
(74.2326 0 13.8443)
(74.1875 0 10.3122)
(73.021 0 7.95594)
(71.533 0 6.20409)
(70.1133 0 4.65914)
(68.9009 0 3.11975)
(67.9174 0 1.57661)
(67.0906 0 0.200753)
(66.2161 0 -0.916993)
(65.0072 0 -2.15793)
(63.0864 0 -4.03475)
(59.9435 0 -6.72082)
(55.0885 0 -9.97547)
(48.2827 0 -12.516)
(40.4548 0 -12.9775)
(31.4786 0 -14.6356)
(26.2746 0 -20.4972)
(21.3733 0 -27.7853)
(15.4042 0 -32.9364)
(8.91236 0 -36.1806)
(2.15628 0 -37.6938)
(-4.69325 0 -37.3431)
(-11.3601 0 -35.1751)
(-17.7292 0 -31.2425)
(-23.167 0 -25.3168)
(-27.917 0 -18.1168)
(-34.9582 0 -13.23)
(-43.3775 0 -12.9504)
(-51.0129 0 -11.8497)
(-57.0778 0 -8.84678)
(-61.2951 0 -5.73666)
(-63.9394 0 -3.32725)
(-65.5648 0 -1.69823)
(-66.6204 0 -0.564503)
(-67.4473 0 0.607432)
(-68.3025 0 2.05126)
(-61.4501 0 5.45665)
(-61.6969 0 7.20095)
(-61.6479 0 8.99621)
(-61.2422 0 10.8879)
(-60.2365 0 12.9569)
(-58.0903 0 15.3059)
(-53.8902 0 18.0275)
(-46.4105 0 21.1343)
(-34.4379 0 24.4243)
(-17.5134 0 27.2774)
(3.13154 0 28.4269)
(23.1061 0 26.6012)
(38.5902 0 23.4785)
(49.0969 0 20.1771)
(55.4139 0 17.1682)
(58.8436 0 14.5638)
(60.5441 0 12.3104)
(61.3136 0 10.3047)
(61.5887 0 8.44796)
(61.5419 0 6.66847)
(61.2001 0 4.9343)
(60.5716 0 3.28085)
(59.6924 0 1.87191)
(58.7152 0 0.819472)
(57.7302 0 -0.0846201)
(56.4334 0 -1.03103)
(54.4146 0 -2.08174)
(51.2791 0 -3.37104)
(46.5752 0 -5.13412)
(41.6149 0 -7.44454)
(37.5691 0 -10.7573)
(33.2702 0 -15.986)
(27.2735 0 -21.7509)
(19.7428 0 -26.0145)
(11.4749 0 -28.7644)
(2.77618 0 -30.0513)
(-6.03953 0 -29.7535)
(-14.6096 0 -27.9134)
(-22.657 0 -24.6295)
(-29.6989 0 -19.777)
(-35.0899 0 -13.8344)
(-39.1725 0 -9.38186)
(-43.1899 0 -6.58761)
(-48.5034 0 -4.49329)
(-52.5952 0 -2.91743)
(-55.3232 0 -1.73442)
(-57.0458 0 -0.725716)
(-58.1953 0 0.197737)
(-59.1451 0 1.11865)
(-60.1101 0 2.26928)
(-60.9111 0 3.77173)
(-54.3766 0 3.10819)
(-52.2849 0 3.9187)
(-49.5489 0 4.71233)
(-46.163 0 5.5104)
(-42.0929 0 6.31845)
(-37.2711 0 7.1197)
(-31.5952 0 7.87069)
(-24.9385 0 8.50258)
(-17.1834 0 8.9384)
(-8.32442 0 9.13997)
(1.38538 0 9.16327)
(10.954 0 9.10132)
(19.5037 0 8.83558)
(26.9258 0 8.33548)
(33.2724 0 7.65825)
(38.6775 0 6.88409)
(43.2631 0 6.07602)
(47.1215 0 5.26929)
(50.3092 0 4.47322)
(52.8509 0 3.67629)
(54.7447 0 2.85495)
(55.9727 0 2.00911)
(56.5143 0 1.23648)
(56.4877 0 0.614573)
(56.0485 0 0.0435715)
(55.2054 0 -0.546004)
(53.9026 0 -1.15798)
(52.0987 0 -1.82241)
(49.7019 0 -2.69354)
(46.7253 0 -4.09925)
(43.138 0 -6.51689)
(38.3757 0 -9.90209)
(31.5887 0 -13.546)
(23.0632 0 -16.3939)
(13.4785 0 -18.2867)
(3.26933 0 -19.1757)
(-7.09679 0 -18.9689)
(-17.1248 0 -17.697)
(-26.3739 0 -15.4503)
(-34.3457 0 -12.2612)
(-40.3664 0 -8.55467)
(-44.5641 0 -5.52376)
(-47.8884 0 -3.53067)
(-50.7003 0 -2.36579)
(-52.8805 0 -1.60054)
(-54.5193 0 -0.964622)
(-55.6668 0 -0.360263)
(-56.3755 0 0.2218)
(-56.6911 0 0.797045)
(-56.5617 0 1.45797)
(-55.8113 0 2.26681)
(-52.6356 0 2.93033)
(-50.3606 0 3.11572)
(-47.4371 0 3.28636)
(-43.8417 0 3.4466)
(-39.54 0 3.59846)
(-34.4939 0 3.7405)
(-28.6753 0 3.86765)
(-22.0887 0 3.97172)
(-14.8008 0 4.04435)
(-6.9723 0 4.08225)
(1.14819 0 4.09348)
(9.21932 0 4.07603)
(16.9137 0 4.02992)
(24.0095 0 3.94776)
(30.3729 0 3.83576)
(35.96 0 3.70299)
(40.7794 0 3.55717)
(44.8648 0 3.40236)
(48.2544 0 3.23889)
(50.9798 0 3.06382)
(53.0606 0 2.8726)
(54.5097 0 2.66434)
(55.3706 0 2.44633)
(55.7492 0 2.21234)
(55.722 0 1.93433)
(55.3092 0 1.60784)
(54.5327 0 1.21884)
(53.4284 0 0.701205)
(51.959 0 -0.111327)
(49.9325 0 -1.43175)
(46.8666 0 -3.4397)
(42.031 0 -6.04361)
(34.8932 0 -8.7172)
(25.7099 0 -10.8778)
(15.1148 0 -12.3695)
(3.67788 0 -13.0797)
(-7.96772 0 -12.9153)
(-19.161 0 -11.9041)
(-29.299 0 -10.1549)
(-37.7984 0 -7.77701)
(-44.0686 0 -5.03946)
(-48.16 0 -2.64749)
(-50.7945 0 -0.909793)
(-52.6042 0 0.208549)
(-53.945 0 0.88908)
(-54.9541 0 1.34964)
(-55.6229 0 1.71343)
(-55.9188 0 2.02431)
(-55.824 0 2.28698)
(-55.3077 0 2.51224)
(-54.2754 0 2.72748)
)
;

boundaryField
{
    top
    {
        type            directionMixed;
        refValue        uniform (0 0 0);
        refGradient     uniform (0 0 0);
        valueFraction   uniform (0 0 0 0 0 1);
        value           nonuniform List<vector> 
51
(
(-52.6356 0 0)
(-50.3606 0 0)
(-47.4371 0 0)
(-43.8417 0 0)
(-39.54 0 0)
(-34.4939 0 0)
(-28.6753 0 0)
(-22.0887 0 0)
(-14.8008 0 0)
(-6.9723 0 0)
(1.14819 0 0)
(9.21932 0 0)
(16.9137 0 0)
(24.0095 0 0)
(30.3729 0 0)
(35.96 0 0)
(40.7794 0 0)
(44.8648 0 0)
(48.2544 0 0)
(50.9798 0 0)
(53.0606 0 0)
(54.5097 0 0)
(55.3706 0 0)
(55.7492 0 0)
(55.722 0 0)
(55.3092 0 0)
(54.5327 0 0)
(53.4284 0 0)
(51.959 0 0)
(49.9325 0 0)
(46.8666 0 0)
(42.031 0 0)
(34.8932 0 0)
(25.7099 0 0)
(15.1148 0 0)
(3.67788 0 0)
(-7.96772 0 0)
(-19.161 0 0)
(-29.299 0 0)
(-37.7984 0 0)
(-44.0686 0 0)
(-48.16 0 0)
(-50.7945 0 0)
(-52.6042 0 0)
(-53.945 0 0)
(-54.9541 0 0)
(-55.6229 0 0)
(-55.9188 0 0)
(-55.824 0 0)
(-55.3077 0 0)
(-54.2754 0 0)
)
;
    }
    bottom
    {
        type            fixedValue;
        value           uniform (0 0 0);
    }
    frontAndBack
    {
        type            empty;
    }
    left_cyc
    {
        type            cyclic;
    }
    right_cyc
    {
        type            cyclic;
    }
}


// ************************************************************************* //
