/*--------------------------------*- C++ -*----------------------------------*\
| =========                 |                                                 |
| \\      /  F ield         | OpenFOAM: The Open Source CFD Toolbox           |
|  \\    /   O peration     | Version:  2.3.0                                 |
|   \\  /    A nd           | Web:      www.OpenFOAM.org                      |
|    \\/     M anipulation  |                                                 |
\*---------------------------------------------------------------------------*/
FoamFile
{
    version     2.0;
    format      ascii;
    class       volVectorField;
    location    "15000";
    object      U;
}
// * * * * * * * * * * * * * * * * * * * * * * * * * * * * * * * * * * * * * //

dimensions      [0 1 -1 0 0 0 0];

internalField   nonuniform List<vector> 
765
(
(2.04446 0 -2.29239)
(5.23166 0 -2.20048)
(8.19037 0 -2.01426)
(10.7792 0 -1.71987)
(12.8558 0 -1.29832)
(14.2639 0 -0.707956)
(14.8113 0 0.114117)
(14.2535 0 1.10543)
(12.397 0 1.73093)
(9.52496 0 1.66014)
(6.16255 0 1.34555)
(2.98666 0 1.02061)
(0.28493 0 0.845476)
(-2.34845 0 0.95913)
(-5.40958 0 1.27159)
(-8.79951 0 1.59857)
(-11.8326 0 1.75675)
(-13.9621 0 1.31131)
(-14.8102 0 0.334802)
(-14.4936 0 -0.54015)
(-13.2666 0 -1.17789)
(-11.3322 0 -1.63265)
(-8.85253 0 -1.9537)
(-5.97079 0 -2.16372)
(-2.82724 0 -2.27657)
(0.43696 0 -2.30569)
(3.68276 0 -2.25526)
(6.77054 0 -2.11787)
(9.55904 0 -1.87978)
(11.9083 0 -1.52651)
(13.6728 0 -1.03018)
(14.6818 0 -0.33442)
(14.7211 0 0.593819)
(13.5318 0 1.50918)
(11.1191 0 1.74965)
(7.9346 0 1.51749)
(4.56344 0 1.1856)
(1.63661 0 0.9006)
(-0.948017 0 0.861778)
(-3.75045 0 1.09959)
(-7.04313 0 1.43071)
(-10.3368 0 1.71426)
(-12.9962 0 1.6502)
(-14.5247 0 0.853018)
(-14.7745 0 -0.117758)
(-13.9889 0 -0.87625)
(-12.3957 0 -1.4181)
(-10.1765 0 -1.80478)
(-7.48167 0 -2.07062)
(-4.45221 0 -2.23188)
(-1.22992 0 -2.30241)
(2.27306 0 -4.93649)
(5.80068 0 -4.68527)
(9.03943 0 -4.21793)
(11.8367 0 -3.5429)
(14.0652 0 -2.66345)
(15.6291 0 -1.57105)
(16.478 0 -0.254727)
(16.6012 0 1.26789)
(15.976 0 2.9904)
(14.0551 0 4.80045)
(10.3464 0 5.54399)
(5.58627 0 5.06101)
(0.552696 0 4.66316)
(-4.46213 0 4.92716)
(-9.35751 0 5.48467)
(-13.3731 0 5.13755)
(-15.7229 0 3.40889)
(-16.5544 0 1.64131)
(-16.5977 0 0.0777375)
(-15.9158 0 -1.28669)
(-14.5157 0 -2.42773)
(-12.4361 0 -3.35331)
(-9.76303 0 -4.07455)
(-6.61682 0 -4.59071)
(-3.14372 0 -4.89376)
(0.48742 0 -4.97609)
(4.09412 0 -4.83453)
(7.49618 0 -4.47403)
(10.5303 0 -3.90296)
(13.0569 0 -3.12847)
(14.9637 0 -2.14833)
(16.1761 0 -0.949922)
(16.667 0 0.468048)
(16.4323 0 2.0806)
(15.3116 0 3.89079)
(12.4657 0 5.41584)
(8.15015 0 5.36936)
(3.1544 0 4.79195)
(-1.83898 0 4.70029)
(-6.87476 0 5.21931)
(-11.4367 0 5.54259)
(-14.7432 0 4.36126)
(-16.2269 0 2.52941)
(-16.6509 0 0.862243)
(-16.3438 0 -0.609735)
(-15.312 0 -1.86804)
(-13.5735 0 -2.90455)
(-11.1912 0 -3.73181)
(-8.26985 0 -4.35514)
(-4.94315 0 -4.76899)
(-1.36959 0 -4.96479)
(2.15709 0 -8.52493)
(5.49487 0 -8.06194)
(8.53162 0 -7.21531)
(11.115 0 -6.02266)
(13.1266 0 -4.52059)
(14.4842 0 -2.73494)
(15.1418 0 -0.680193)
(15.0643 0 1.64251)
(14.2285 0 4.27698)
(12.6551 0 7.09102)
(10.1832 0 9.50706)
(6.09159 0 10.5702)
(0.619709 0 10.5604)
(-4.93224 0 10.599)
(-9.47636 0 9.91436)
(-12.2084 0 7.70068)
(-13.9604 0 4.91579)
(-14.9668 0 2.21318)
(-15.2185 0 -0.171192)
(-14.7272 0 -2.28283)
(-13.5298 0 -4.12799)
(-11.6655 0 -5.69478)
(-9.20757 0 -6.96072)
(-6.26562 0 -7.89137)
(-2.98381 0 -8.44829)
(0.463926 0 -8.60111)
(3.88598 0 -8.33897)
(7.09369 0 -7.67944)
(9.92028 0 -6.65636)
(12.2306 0 -5.30846)
(13.9244 0 -3.66761)
(14.9386 0 -1.75315)
(15.2379 0 0.42553)
(14.786 0 2.8865)
(13.5871 0 5.65234)
(11.6138 0 8.36146)
(8.51397 0 10.2658)
(3.52791 0 10.5905)
(-2.06524 0 10.5692)
(-7.36192 0 10.4735)
(-10.9275 0 8.96688)
(-13.1399 0 6.37966)
(-14.5243 0 3.57272)
(-15.1692 0 1.02509)
(-15.0567 0 -1.22583)
(-14.2192 0 -3.21192)
(-12.6908 0 -4.92672)
(-10.5258 0 -6.35322)
(-7.81564 0 -7.46228)
(-4.68753 0 -8.21576)
(-1.30152 0 -8.57751)
(1.89984 0 -11.8593)
(4.83048 0 -11.1806)
(7.46867 0 -9.94837)
(9.66807 0 -8.23234)
(11.3176 0 -6.10559)
(12.3416 0 -3.63081)
(12.6959 0 -0.855906)
(12.3572 0 2.18298)
(11.3447 0 5.46352)
(9.73767 0 8.90923)
(7.62981 0 12.2454)
(4.75309 0 14.7699)
(0.530183 0 15.7395)
(-3.96617 0 15.1336)
(-7.08974 0 12.9229)
(-9.3246 0 9.68708)
(-11.0521 0 6.23881)
(-12.2086 0 2.91176)
(-12.7068 0 -0.179646)
(-12.5111 0 -3.01318)
(-11.64 0 -5.55654)
(-10.1312 0 -7.76555)
(-8.0523 0 -9.58154)
(-5.50539 0 -10.9333)
(-2.62834 0 -11.7489)
(0.410065 0 -11.9734)
(3.42351 0 -11.5885)
(6.22854 0 -10.6245)
(8.66372 0 -9.14291)
(10.6006 0 -7.21717)
(11.9464 0 -4.91609)
(12.6423 0 -2.29431)
(12.6561 0 0.607102)
(11.9781 0 3.7596)
(10.6621 0 7.13495)
(8.80375 0 10.5683)
(6.39145 0 13.6331)
(2.93366 0 15.4452)
(-1.75493 0 15.6457)
(-5.59992 0 14.2546)
(-8.22852 0 11.4268)
(-10.21 0 8.02518)
(-11.6752 0 4.60596)
(-12.5229 0 1.38736)
(-12.685 0 -1.58505)
(-12.1585 0 -4.28615)
(-10.9712 0 -6.67691)
(-9.17453 0 -8.70586)
(-6.8527 0 -10.3068)
(-4.1258 0 -11.4058)
(-1.14827 0 -11.9366)
(1.54105 0 -14.5698)
(3.90851 0 -13.6936)
(6.01 0 -12.1098)
(7.71498 0 -9.92039)
(8.92855 0 -7.23369)
(9.59148 0 -4.1446)
(9.67648 0 -0.727483)
(9.1823 0 2.9552)
(8.14593 0 6.82839)
(6.64882 0 10.7526)
(4.83267 0 14.4827)
(2.78784 0 17.5699)
(0.296174 0 19.0206)
(-2.29199 0 18.0814)
(-4.41249 0 15.2581)
(-6.27828 0 11.6246)
(-7.86394 0 7.72404)
(-9.01351 0 3.82702)
(-9.63755 0 0.0980608)
(-9.68712 0 -3.37978)
(-9.15706 0 -6.54532)
(-8.0679 0 -9.32913)
(-6.47072 0 -11.6417)
(-4.45147 0 -13.3769)
(-2.13222 0 -14.4293)
(0.334117 0 -14.7196)
(2.77768 0 -14.2222)
(5.03135 0 -12.9797)
(6.94944 0 -11.0814)
(8.41932 0 -8.63534)
(9.36464 0 -5.74441)
(9.74291 0 -2.49252)
(9.54052 0 1.05472)
(8.7714 0 4.83396)
(7.49753 0 8.74968)
(5.82082 0 12.6094)
(3.90067 0 16.1041)
(1.66988 0 18.551)
(-0.988251 0 18.8704)
(-3.34994 0 16.8855)
(-5.32674 0 13.5654)
(-7.07955 0 9.75781)
(-8.4688 0 5.82911)
(-9.37416 0 1.99817)
(-9.72302 0 -1.62055)
(-9.4909 0 -4.95877)
(-8.68523 0 -7.95262)
(-7.34087 0 -10.5227)
(-5.52567 0 -12.5696)
(-3.34365 0 -13.9841)
(-0.933489 0 -14.6697)
(1.11605 0 -16.6813)
(2.82009 0 -15.6303)
(4.3013 0 -13.7372)
(5.45394 0 -11.1358)
(6.20649 0 -7.97027)
(6.52242 0 -4.36988)
(6.39761 0 -0.440285)
(5.85745 0 3.72487)
(4.96082 0 8.01128)
(3.8003 0 12.2427)
(2.50994 0 16.1508)
(1.27351 0 19.2733)
(0.122523 0 20.727)
(-1.02059 0 19.7847)
(-2.23312 0 16.9468)
(-3.5276 0 13.1673)
(-4.73227 0 8.98692)
(-5.69835 0 4.69908)
(-6.32736 0 0.500356)
(-6.55154 0 -3.48537)
(-6.33869 0 -7.16469)
(-5.68578 0 -10.4375)
(-4.62134 0 -13.1809)
(-3.20828 0 -15.2529)
(-1.54432 0 -16.5146)
(0.243461 0 -16.8633)
(2.01202 0 -16.2661)
(3.62089 0 -14.7777)
(4.94982 0 -12.5144)
(5.91013 0 -9.61887)
(6.44827 0 -6.22944)
(6.54437 0 -2.4626)
(6.20929 0 1.58573)
(5.48339 0 5.81812)
(4.44383 0 10.0975)
(3.19744 0 14.2042)
(1.9107 0 17.8064)
(0.722555 0 20.2562)
(-0.417155 0 20.5767)
(-1.58384 0 18.5903)
(-2.84856 0 15.2017)
(-4.12337 0 11.181)
(-5.22724 0 6.91616)
(-6.04147 0 2.65041)
(-6.48066 0 -1.46137)
(-6.49556 0 -5.31442)
(-6.06799 0 -8.81426)
(-5.20995 0 -11.8496)
(-3.96655 0 -14.2859)
(-2.41812 0 -15.9785)
(-0.678171 0 -16.8012)
(0.646865 0 -18.0738)
(1.62227 0 -16.8841)
(2.43423 0 -14.7482)
(3.00999 0 -11.8294)
(3.30683 0 -8.30543)
(3.31317 0 -4.33847)
(3.04744 0 -0.0654405)
(2.5567 0 4.38961)
(1.91503 0 8.88159)
(1.2195 0 13.2043)
(0.588813 0 17.0601)
(0.171016 0 19.998)
(0.00803847 0 21.3054)
(-0.120333 0 20.4632)
(-0.47664 0 17.8245)
(-1.07365 0 14.1317)
(-1.76678 0 9.88957)
(-2.43056 0 5.42003)
(-2.96411 0 0.948195)
(-3.28728 0 -3.37115)
(-3.34688 0 -7.41421)
(-3.11769 0 -11.0502)
(-2.60411 0 -14.1236)
(-1.84134 0 -16.459)
(-0.895175 0 -17.8866)
(0.142727 0 -18.2817)
(1.16632 0 -17.6051)
(2.07187 0 -15.9224)
(2.77378 0 -13.3749)
(3.21417 0 -10.1373)
(3.36611 0 -6.38165)
(3.23316 0 -2.25622)
(2.84821 0 2.11262)
(2.27126 0 6.59736)
(1.58866 0 11.0298)
(0.906016 0 15.1624)
(0.357828 0 18.6404)
(0.0720237 0 20.8883)
(-0.0346555 0 21.1734)
(-0.252967 0 19.371)
(-0.739405 0 16.1405)
(-1.4007 0 12.1324)
(-2.09331 0 7.74454)
(-2.70568 0 3.24875)
(-3.14576 0 -1.16922)
(-3.34652 0 -5.37432)
(-3.26781 0 -9.2416)
(-2.89864 0 -12.6282)
(-2.25834 0 -15.3662)
(-1.39742 0 -17.2778)
(-0.395444 0 -18.2096)
(0.149024 0 -18.6993)
(0.355103 0 -17.4177)
(0.472222 0 -15.1248)
(0.467456 0 -12.0083)
(0.330067 0 -8.27339)
(0.0725759 0 -4.11046)
(-0.269008 0 0.316416)
(-0.635849 0 4.85795)
(-0.951225 0 9.3495)
(-1.12835 0 13.5705)
(-1.07888 0 17.2163)
(-0.721958 0 19.8724)
(-0.0801064 0 21.0081)
(0.598284 0 20.2808)
(1.02792 0 17.9211)
(1.13964 0 14.461)
(1.00529 0 10.3445)
(0.712762 0 5.8974)
(0.349652 0 1.35731)
(-0.00417787 0 -3.10253)
(-0.285445 0 -7.33424)
(-0.452708 0 -11.1802)
(-0.487992 0 -14.4571)
(-0.396591 0 -16.9618)
(-0.206338 0 -18.4989)
(0.0352428 0 -18.9251)
(0.268717 0 -18.1954)
(0.436606 0 -16.3851)
(0.496127 0 -13.6566)
(0.425271 0 -10.2111)
(0.224871 0 -6.24841)
(-0.0809236 0 -1.94453)
(-0.444486 0 2.54786)
(-0.79784 0 7.07896)
(-1.05831 0 11.4631)
(-1.13784 0 15.4422)
(-0.949183 0 18.6643)
(-0.439268 0 20.6509)
(0.262255 0 20.8958)
(0.845537 0 19.3184)
(1.11765 0 16.3614)
(1.10013 0 12.5355)
(0.87866 0 8.22244)
(0.54157 0 3.70324)
(0.173898 0 -0.820292)
(-0.151766 0 -5.19238)
(-0.381904 0 -9.26204)
(-0.486467 0 -12.8589)
(-0.458846 0 -15.787)
(-0.315543 0 -17.8415)
(-0.0946331 0 -18.8458)
(-0.364673 0 -18.524)
(-0.948636 0 -17.2075)
(-1.53407 0 -14.8607)
(-2.10922 0 -11.6875)
(-2.65163 0 -7.9108)
(-3.12747 0 -3.73957)
(-3.49009 0 0.643257)
(-3.6801 0 5.07239)
(-3.63085 0 9.37543)
(-3.27811 0 13.3339)
(-2.57372 0 16.6611)
(-1.5046 0 19.0015)
(-0.156344 0 19.972)
(1.22532 0 19.3534)
(2.36989 0 17.2916)
(3.15671 0 14.157)
(3.5851 0 10.3178)
(3.69742 0 6.07646)
(3.55555 0 1.66543)
(3.22659 0 -2.73613)
(2.77212 0 -6.96594)
(2.24183 0 -10.8478)
(1.67228 0 -14.1798)
(1.08841 0 -16.7408)
(0.504377 0 -18.3189)
(-0.0761708 0 -18.7574)
(-0.657444 0 -18.0068)
(-1.24232 0 -16.15)
(-1.82439 0 -13.3637)
(-2.3867 0 -9.8663)
(-2.9014 0 -5.87572)
(-3.32865 0 -1.58679)
(-3.61523 0 2.82982)
(-3.69746 0 7.21224)
(-3.50858 0 11.3712)
(-2.99033 0 15.0572)
(-2.10806 0 17.9501)
(-0.883441 0 19.6701)
(0.519404 0 19.8776)
(1.81369 0 18.5218)
(2.79141 0 15.8915)
(3.40235 0 12.3729)
(3.67171 0 8.30435)
(3.6532 0 3.95387)
(3.41268 0 -0.475665)
(3.01562 0 -4.81877)
(2.51865 0 -8.90715)
(1.96496 0 -12.5515)
(1.38534 0 -15.5373)
(0.799479 0 -17.6423)
(0.216465 0 -18.6747)
(-0.880063 0 -17.5343)
(-2.25317 0 -16.2482)
(-3.53106 0 -13.9641)
(-4.65499 0 -10.8908)
(-5.56976 0 -7.25531)
(-6.22373 0 -3.27201)
(-6.56639 0 0.869455)
(-6.54725 0 4.99936)
(-6.11949 0 8.94868)
(-5.24939 0 12.5147)
(-3.93223 0 15.4458)
(-2.21339 0 17.455)
(-0.225558 0 18.2707)
(1.79267 0 17.7525)
(3.58754 0 15.993)
(5.00143 0 13.2472)
(5.97351 0 9.80497)
(6.49936 0 5.92776)
(6.60776 0 1.82857)
(6.34367 0 -2.31901)
(5.75723 0 -6.34964)
(4.89883 0 -10.0804)
(3.8194 0 -13.3036)
(2.57294 0 -15.7937)
(1.21729 0 -17.3343)
(-0.188337 0 -17.7635)
(-1.5864 0 -17.0291)
(-2.919 0 -15.2181)
(-4.12689 0 -12.5122)
(-5.15317 0 -9.1342)
(-5.94493 0 -5.3066)
(-6.45172 0 -1.23047)
(-6.62307 0 2.91711)
(-6.40955 0 6.97329)
(-5.76921 0 10.7572)
(-4.68004 0 14.0435)
(-3.15827 0 16.5604)
(-1.28521 0 18.0189)
(0.752286 0 18.1923)
(2.69071 0 17.0483)
(4.31503 0 14.7751)
(5.51967 0 11.6564)
(6.27476 0 7.97271)
(6.59432 0 3.96278)
(6.51662 0 -0.182354)
(6.09004 0 -4.29846)
(5.3652 0 -8.21154)
(4.39254 0 -11.7257)
(3.22435 0 -14.6214)
(1.9168 0 -16.6724)
(0.529129 0 -17.6818)
(-1.37848 0 -15.7413)
(-3.51196 0 -14.556)
(-5.45032 0 -12.4586)
(-7.08843 0 -9.64866)
(-8.34036 0 -6.34208)
(-9.13985 0 -2.74287)
(-9.43735 0 0.967069)
(-9.19729 0 4.62602)
(-8.39836 0 8.07829)
(-7.04107 0 11.147)
(-5.16312 0 13.6254)
(-2.8573 0 15.2935)
(-0.288927 0 15.9615)
(2.30796 0 15.538)
(4.69031 0 14.0831)
(6.67545 0 11.7713)
(8.15584 0 8.82054)
(9.08302 0 5.4428)
(9.44969 0 1.82144)
(9.27327 0 -1.88547)
(8.58636 0 -5.52112)
(7.43488 0 -8.90994)
(5.88058 0 -11.8537)
(4.0043 0 -14.1382)
(1.90654 0 -15.5571)
(-0.297057 0 -15.9535)
(-2.48439 0 -15.2756)
(-4.53432 0 -13.6091)
(-6.33447 0 -11.1293)
(-7.78938 0 -8.04822)
(-8.82361 0 -4.57719)
(-9.38002 0 -0.90845)
(-9.41648 0 2.788)
(-8.90398 0 6.35906)
(-7.83025 0 9.64225)
(-6.21152 0 12.4465)
(-4.10968 0 14.5553)
(-1.65035 0 15.7563)
(0.964573 0 15.8977)
(3.48645 0 14.9585)
(5.69563 0 13.0629)
(7.44696 0 10.4137)
(8.66363 0 7.23041)
(9.3193 0 3.71243)
(9.42037 0 0.0288692)
(8.99205 0 -3.66733)
(8.07308 0 -7.20965)
(6.71679 0 -10.4104)
(4.99414 0 -13.0611)
(2.99609 0 -14.9465)
(0.831834 0 -15.8776)
(-1.83529 0 -13.1899)
(-4.6638 0 -12.1757)
(-7.20179 0 -10.3873)
(-9.3017 0 -8.00056)
(-10.8504 0 -5.20383)
(-11.7698 0 -2.17495)
(-12.0135 0 0.92702)
(-11.5627 0 3.96076)
(-10.4227 0 6.79277)
(-8.62792 0 9.27918)
(-6.25413 0 11.2611)
(-3.43081 0 12.5789)
(-0.345883 0 13.1025)
(2.76678 0 12.771)
(5.66782 0 11.6245)
(8.15703 0 9.7813)
(10.092 0 7.39762)
(11.3859 0 4.6343)
(11.9963 0 1.63852)
(11.9121 0 -1.45561)
(11.1467 0 -4.5112)
(9.73935 0 -7.37454)
(7.76013 0 -9.87272)
(5.31327 0 -11.8191)
(2.53808 0 -13.0323)
(-0.396824 0 -13.3721)
(-3.30703 0 -12.7912)
(-6.01065 0 -11.3675)
(-8.34588 0 -9.25688)
(-10.1825 0 -6.64497)
(-11.4257 0 -3.71592)
(-12.0141 0 -0.637534)
(-11.9159 0 2.44134)
(-11.1242 0 5.38746)
(-9.65695 0 8.06482)
(-7.56674 0 10.3223)
(-4.95383 0 11.998)
(-1.97573 0 12.9421)
(1.15445 0 13.0526)
(4.19405 0 12.3157)
(6.91841 0 10.8139)
(9.15459 0 8.68831)
(10.788 0 6.10072)
(11.7548 0 3.2064)
(12.0294 0 0.144949)
(11.6124 0 -2.95109)
(10.5289 0 -5.93621)
(8.83273 0 -8.64652)
(6.61053 0 -10.9003)
(3.98432 0 -12.5095)
(1.10941 0 -13.3067)
(-2.22045 0 -9.96672)
(-5.63383 0 -9.18835)
(-8.67442 0 -7.8199)
(-11.1595 0 -5.99958)
(-12.9543 0 -3.87367)
(-13.9716 0 -1.5796)
(-14.1681 0 0.759916)
(-13.5393 0 3.03535)
(-12.1137 0 5.14331)
(-9.955 0 6.9776)
(-7.17 0 8.42672)
(-3.91506 0 9.383)
(-0.394393 0 9.7613)
(3.15412 0 9.52192)
(6.4888 0 8.69115)
(9.3962 0 7.34613)
(11.7089 0 5.59136)
(13.3094 0 3.53864)
(14.1252 0 1.29529)
(14.1204 0 -1.03582)
(13.2918 0 -3.34812)
(11.6729 0 -5.52299)
(9.3397 0 -7.42691)
(6.41515 0 -8.91516)
(3.07042 0 -9.84567)
(-0.480974 0 -10.107)
(-4.00029 0 -9.66048)
(-7.25291 0 -8.56931)
(-10.0355 0 -6.95685)
(-12.1896 0 -4.968)
(-13.6052 0 -2.74533)
(-14.2179 0 -0.418315)
(-14.0049 0 1.89819)
(-12.9782 0 4.10009)
(-11.1826 0 6.08432)
(-8.70105 0 7.7422)
(-5.66373 0 8.96241)
(-2.25061 0 9.64553)
(1.31542 0 9.72531)
(4.79058 0 9.19255)
(7.94357 0 8.10094)
(10.5819 0 6.54347)
(12.5625 0 4.63012)
(13.7904 0 2.47118)
(14.212 0 0.171074)
(13.8067 0 -2.1666)
(12.588 0 -4.42959)
(10.6095 0 -6.49153)
(7.97007 0 -8.21188)
(4.81683 0 -9.44422)
(1.34346 0 -10.0566)
(-2.50193 0 -6.21315)
(-6.34196 0 -5.72272)
(-9.74821 0 -4.86263)
(-12.5133 0 -3.72153)
(-14.4877 0 -2.39224)
(-15.5785 0 -0.961159)
(-15.7444 0 0.495099)
(-14.9894 0 1.90756)
(-13.3582 0 3.21003)
(-10.9357 0 4.33709)
(-7.85041 0 5.22272)
(-4.27686 0 5.80474)
(-0.430894 0 6.03451)
(3.44347 0 5.88915)
(7.09913 0 5.38391)
(10.3125 0 4.56283)
(12.8994 0 3.48604)
(14.7211 0 2.21931)
(15.6834 0 0.828088)
(15.7327 0 -0.62226)
(14.8555 0 -2.06402)
(13.0817 0 -3.42319)
(10.4912 0 -4.616)
(7.21926 0 -5.55083)
(3.45933 0 -6.13684)
(-0.542458 0 -6.30169)
(-4.5066 0 -6.02006)
(-8.15911 0 -5.33331)
(-11.2668 0 -4.32115)
(-13.6519 0 -3.07599)
(-15.1942 0 -1.68785)
(-15.8278 0 -0.237805)
(-15.5349 0 1.20261)
(-14.3401 0 2.56656)
(-12.307 0 3.78923)
(-9.54091 0 4.80507)
(-6.19222 0 5.54906)
(-2.45608 0 5.96422)
(1.43612 0 6.01266)
(5.23566 0 5.68901)
(8.70407 0 5.02408)
(11.6355 0 4.07104)
(13.8674 0 2.89371)
(15.2829 0 1.55795)
(15.8078 0 0.128736)
(15.4074 0 -1.32708)
(14.0882 0 -2.73951)
(11.9041 0 -4.02957)
(8.96155 0 -5.1087)
(5.42466 0 -5.88379)
(1.51446 0 -6.26985)
(-2.65107 0 -2.11192)
(-6.71671 0 -1.94412)
(-10.3158 0 -1.65036)
(-13.2284 0 -1.26139)
(-15.2982 0 -0.809094)
(-16.4298 0 -0.322926)
(-16.5827 0 0.171243)
(-15.764 0 0.649961)
(-14.0257 0 1.09031)
(-11.4638 0 1.4702)
(-8.21845 0 1.76787)
(-4.47335 0 1.96309)
(-0.450809 0 2.04009)
(3.60061 0 1.99139)
(7.42946 0 1.82198)
(10.8064 0 1.54616)
(13.5384 0 1.18347)
(15.4758 0 0.7555)
(16.5128 0 0.284221)
(16.5875 0 -0.207859)
(15.6822 0 -0.697514)
(13.8258 0 -1.1598)
(11.0996 0 -1.56622)
(7.64465 0 -1.88536)
(3.66533 0 -2.08579)
(-0.575028 0 -2.14225)
(-4.77469 0 -2.04581)
(-8.63831 0 -1.81103)
(-11.9173 0 -1.46567)
(-14.4242 0 -1.04162)
(-16.0347 0 -0.5697)
(-16.6822 0 -0.0774042)
(-16.3504 0 0.411205)
(-15.0689 0 0.872968)
(-12.9112 0 1.28572)
(-9.99403 0 1.62761)
(-6.47855 0 1.87738)
(-2.56772 0 2.01654)
(1.50182 0 2.03277)
(5.47716 0 1.9243)
(9.11499 0 1.70118)
(12.2023 0 1.38065)
(14.5666 0 0.983512)
(16.0794 0 0.531573)
(16.6556 0 0.0469164)
(16.2545 0 -0.447194)
(14.8808 0 -0.927171)
(12.5879 0 -1.3663)
(9.48567 0 -1.73433)
(5.74639 0 -1.99919)
(1.60503 0 -2.13133)
)
;

boundaryField
{
    top
    {
        type            directionMixed;
        refValue        uniform (0 0 0);
        refGradient     uniform (0 0 0);
        valueFraction   uniform (0 0 0 0 0 1);
        value           nonuniform List<vector> 
51
(
(-2.65107 0 0)
(-6.71671 0 0)
(-10.3158 0 0)
(-13.2284 0 0)
(-15.2982 0 0)
(-16.4298 0 0)
(-16.5827 0 0)
(-15.764 0 0)
(-14.0257 0 0)
(-11.4638 0 0)
(-8.21845 0 0)
(-4.47335 0 0)
(-0.450809 0 0)
(3.60061 0 0)
(7.42946 0 0)
(10.8064 0 0)
(13.5384 0 0)
(15.4758 0 0)
(16.5128 0 0)
(16.5875 0 0)
(15.6822 0 0)
(13.8258 0 0)
(11.0996 0 0)
(7.64465 0 0)
(3.66533 0 0)
(-0.575028 0 0)
(-4.77469 0 0)
(-8.63831 0 0)
(-11.9173 0 0)
(-14.4242 0 0)
(-16.0347 0 0)
(-16.6822 0 0)
(-16.3504 0 0)
(-15.0689 0 0)
(-12.9112 0 0)
(-9.99403 0 0)
(-6.47855 0 0)
(-2.56772 0 0)
(1.50182 0 0)
(5.47716 0 0)
(9.11499 0 0)
(12.2023 0 0)
(14.5666 0 0)
(16.0794 0 0)
(16.6556 0 0)
(16.2545 0 0)
(14.8808 0 0)
(12.5879 0 0)
(9.48567 0 0)
(5.74639 0 0)
(1.60503 0 0)
)
;
    }
    bottom
    {
        type            fixedValue;
        value           uniform (0 0 0);
    }
    frontAndBack
    {
        type            empty;
    }
    left_cyc
    {
        type            cyclic;
    }
    right_cyc
    {
        type            cyclic;
    }
}


// ************************************************************************* //
