/*--------------------------------*- C++ -*----------------------------------*\
| =========                 |                                                 |
| \\      /  F ield         | OpenFOAM: The Open Source CFD Toolbox           |
|  \\    /   O peration     | Version:  2.3.0                                 |
|   \\  /    A nd           | Web:      www.OpenFOAM.org                      |
|    \\/     M anipulation  |                                                 |
\*---------------------------------------------------------------------------*/
FoamFile
{
    version     2.0;
    format      ascii;
    class       surfaceScalarField;
    location    "15000";
    object      phi;
}
// * * * * * * * * * * * * * * * * * * * * * * * * * * * * * * * * * * * * * //

dimensions      [0 3 -1 0 0 0 0];

internalField   nonuniform List<scalar> 
356
(
0.308004
0.00243172
0.312962
-0.00495785
0.327024
-0.014062
0.350085
-0.0230612
0.378181
-0.0280953
0.401202
-0.0230217
0.401927
-0.000724614
0.358288
0.0436389
0.249435
0.108853
0.0707494
0.178685
-0.136918
0.207668
-0.294372
0.157454
0.0856543
0.547054
-0.00573721
0.561976
-0.0198796
0.58399
-0.0360761
0.611017
-0.0500888
0.636759
-0.053837
0.648703
-0.0349659
0.626809
0.0211698
0.543551
0.126896
0.371499
0.280906
0.103943
0.446241
-0.201874
0.513485
-0.440514
0.396094
0.226032
0.578257
-0.0203129
0.595832
-0.0374545
0.615535
-0.0557785
0.634571
-0.0691252
0.647159
-0.066425
0.643216
-0.031023
0.606924
0.0574619
0.516536
0.217284
0.348687
0.448755
0.0967833
0.698145
-0.188076
0.798344
-0.414581
0.622599
0.366137
0.517207
-0.0334497
0.529996
-0.0502439
0.540929
-0.066711
0.547288
-0.0754842
0.544649
-0.0637857
0.526184
-0.0125581
0.481916
0.10173
0.398895
0.300305
0.263191
0.584458
0.072105
0.889232
-0.139704
1.01015
-0.31443
0.797325
0.483322
0.409228
-0.0402173
0.413211
-0.0542269
0.412862
-0.0663629
0.406108
-0.0687293
0.39021
-0.0478885
0.361579
0.0160734
0.315923
0.147386
0.248656
0.367572
0.156245
0.676869
0.0416316
1.00385
-0.0797825
1.13157
-0.188672
0.906215
0.567685
0.266874
-0.0390385
0.261549
-0.0489015
0.250979
-0.0557925
0.234069
-0.0518195
0.209822
-0.0236414
0.17761
0.0482847
0.137835
0.187161
0.0927508
0.412657
0.047953
0.721667
0.0113035
1.04049
-0.0200678
1.16294
-0.0606603
0.946808
0.614077
0.10093
-0.030842
0.0883512
-0.0363231
0.0709311
-0.0383723
0.0485383
-0.0294268
0.0216609
0.00323605
-0.00779294
0.0777386
-0.035741
0.215109
-0.0543121
0.431228
-0.0509823
0.718337
-0.0158027
1.00532
0.0331787
1.11396
0.057185
0.922801
0.62027
-0.0719818
-0.0182108
-0.0886248
-0.01968
-0.109233
-0.0177638
-0.133136
-0.00552404
-0.158423
0.0285233
-0.180941
0.100256
-0.193188
0.227356
-0.182871
0.420911
-0.13394
0.669406
-0.038074
0.909449
0.0763864
0.999497
0.156939
0.842248
0.586478
-0.233316
-0.00412388
-0.251154
-0.00184166
-0.27231
0.00339255
-0.295255
0.0174203
-0.316518
0.0497863
-0.329708
0.113447
-0.324311
0.221958
-0.285461
0.38206
-0.197069
0.581015
-0.054802
0.767182
0.107908
0.836787
0.23351
0.716646
0.516307
-0.36531
0.0091172
-0.3822
0.0150482
-0.401906
0.0230985
-0.422049
0.0375631
-0.437789
0.0655266
-0.440785
0.116443
-0.418544
0.199717
-0.355518
0.319034
-0.237815
0.463311
-0.0655579
0.594926
0.126927
0.644303
0.283197
0.560375
0.417623
-0.449491
0.0201096
-0.463593
0.0291507
-0.479745
0.03925
-0.495148
0.0529665
-0.50427
0.0746481
-0.497902
0.110075
-0.46306
0.164875
-0.384988
0.240962
-0.252661
0.330984
-0.0695461
0.411811
0.132228
0.442528
0.301307
0.391296
0.30322
-0.466558
0.0278747
-0.475679
0.0382722
-0.485324
0.0488951
-0.493147
0.0607892
-0.49429
0.0757908
-0.480542
0.0963277
-0.44042
0.124752
-0.361292
0.161835
-0.234638
0.20433
-0.064889
0.242062
0.120889
0.256751
0.279393
0.232792
-0.410455
0.0305107
-0.411113
0.0389304
-0.4096
0.0473814
-0.404911
0.0561006
-0.394451
0.065331
-0.37339
0.0752662
-0.334598
0.0859605
-0.26993
0.0971668
-0.173662
0.108062
-0.0484499
0.11685
0.0881338
0.120167
0.114811
-0.355538
0.0187502
-0.339437
0.0228293
-0.319027
0.0269712
-0.294174
0.0312476
-0.264543
0.0357001
-0.229575
0.0402976
-0.188507
0.0448932
-0.140524
0.0491834
-0.0851689
0.052707
-0.0232737
0.0549544
0.04132
0.0555735
0.0544719
-0.34332
-0.325992
-0.304264
-0.27794
-0.24678
-0.210562
-0.169206
-0.122949
-0.0725487
-0.0193985
0.0345357
)
;

boundaryField
{
    top
    {
        type            calculated;
        value           nonuniform List<scalar> 
12
(
0.00569645
0.00550128
0.00524263
0.00492428
0.00454006
0.00407945
0.00353682
0.00292639
0.00230687
0.00180419
0.00163925
0.00192528
)
;
    }
    bottom
    {
        type            calculated;
        value           uniform 0;
    }
    frontAndBack
    {
        type            empty;
        value           nonuniform 0();
    }
    left_cyc
    {
        type            cyclic;
        value           nonuniform 0();
    }
    right_cyc
    {
        type            cyclic;
        value           nonuniform 0();
    }
    procBoundary0to1
    {
        type            processor;
        value           nonuniform List<scalar> 
16
(
-0.380026
-0.580892
-0.554686
-0.431615
-0.273035
-0.107053
0.050992
0.190732
0.303681
0.381882
0.41571
0.391018
0.191594
0.206114
0.10166
0.0870824
)
;
    }
    procBoundary0to3throughleft_cyc
    {
        type            processorCyclic;
        value           nonuniform List<scalar> 
15
(
-0.310436
-0.538885
-0.563682
-0.50407
-0.40246
-0.268053
-0.109126
0.0593506
0.219229
0.352069
0.438498
0.458793
0.407819
0.367299
0.356374
)
;
    }
}


// ************************************************************************* //
