/*--------------------------------*- C++ -*----------------------------------*\
| =========                 |                                                 |
| \\      /  F ield         | OpenFOAM: The Open Source CFD Toolbox           |
|  \\    /   O peration     | Version:  2.3.0                                 |
|   \\  /    A nd           | Web:      www.OpenFOAM.org                      |
|    \\/     M anipulation  |                                                 |
\*---------------------------------------------------------------------------*/
FoamFile
{
    version     2.0;
    format      ascii;
    class       volVectorField;
    location    "15000";
    object      U;
}
// * * * * * * * * * * * * * * * * * * * * * * * * * * * * * * * * * * * * * //

dimensions      [0 1 -1 0 0 0 0];

internalField   nonuniform List<vector> 
192
(
(46.1669 0 0.560559)
(46.2888 0 -0.0219201)
(47.6847 0 -0.797443)
(50.534 0 -1.6594)
(54.6084 0 -2.31998)
(58.9091 0 -2.2821)
(61.3784 0 -0.940653)
(58.9383 0 2.0311)
(48.054 0 6.48488)
(26.0082 0 11.2849)
(-5.39863 0 13.3102)
(-34.7491 0 9.8169)
(-52.9249 0 4.89316)
(81.2287 0 0.096381)
(82.9193 0 -1.62052)
(85.7091 0 -3.67108)
(89.5236 0 -5.59599)
(93.8052 0 -6.47947)
(97.2117 0 -4.9033)
(97.3427 0 0.766116)
(90.5176 0 11.7889)
(72.2657 0 27.8962)
(38.8224 0 45.1011)
(-8.07094 0 52.1519)
(-51.8849 0 39.8859)
(-79.9957 0 22.1707)
(85.5345 0 -1.92753)
(87.9504 0 -4.41631)
(90.805 0 -7.17412)
(93.8575 0 -9.39147)
(96.5099 0 -9.57935)
(97.6196 0 -5.4901)
(95.2819 0 5.59314)
(86.6747 0 26.0418)
(68.1639 0 55.7482)
(36.3882 0 87.6775)
(-7.54545 0 100.564)
(-48.6342 0 78.0031)
(-75.7149 0 45.1533)
(76.5898 0 -4.17885)
(78.5703 0 -6.82268)
(80.424 0 -9.53906)
(81.8494 0 -11.2894)
(82.3317 0 -10.2456)
(81.0456 0 -3.66808)
(76.7491 0 11.8236)
(67.747 0 39.2953)
(51.8887 0 78.9286)
(27.1743 0 121.623)
(-5.54431 0 138.675)
(-36.3924 0 108.705)
(-58.0245 0 64.7835)
(60.9546 0 -5.78932)
(61.8088 0 -8.16899)
(62.1492 0 -10.3761)
(61.7066 0 -11.2434)
(60.1237 0 -8.77013)
(56.924 0 0.0219348)
(51.5034 0 18.7898)
(43.218 0 50.8256)
(31.3801 0 96.3073)
(15.6613 0 144.831)
(-3.0394 0 163.941)
(-21.1005 0 130.252)
(-35.6137 0 80.1663)
(40.2529 0 -6.24003)
(39.8059 0 -8.05903)
(38.6567 0 -9.49314)
(36.6368 0 -9.34164)
(33.5818 0 -5.57052)
(29.3515 0 4.81998)
(23.9016 0 25.4448)
(17.4129 0 59.4545)
(10.4242 0 106.683)
(4.15384 0 156.093)
(-0.561305 0 175.224)
(-5.7589 0 141.439)
(-12.5495 0 90.1071)
(15.907 0 -5.46634)
(14.3719 0 -6.61023)
(12.1348 0 -7.25214)
(9.14437 0 -6.2217)
(5.41003 0 -1.54039)
(1.07851 0 9.65239)
(-3.4352 0 30.71)
(-7.30405 0 64.3487)
(-8.96459 0 109.765)
(-6.12409 0 155.903)
(1.59593 0 173.468)
(8.03597 0 142.484)
(9.00396 0 94.091)
(-9.70231 0 -3.79147)
(-11.8909 0 -4.29882)
(-14.6963 0 -4.27709)
(-18.0776 0 -2.62255)
(-21.8728 0 2.50083)
(-25.6641 0 13.6716)
(-28.6278 0 33.8303)
(-29.3243 0 65.0119)
(-25.4851 0 105.696)
(-14.497 0 145.612)
(3.26837 0 160.625)
(19.3493 0 134.289)
(27.6129 0 91.9618)
(-33.7999 0 -1.6847)
(-36.1966 0 -1.61737)
(-39.1537 0 -1.0589)
(-42.5471 0 0.966096)
(-46.0387 0 6.06037)
(-48.9268 0 16.4092)
(-49.9836 0 34.3685)
(-47.2819 0 61.2401)
(-38.2766 0 95.0964)
(-20.6683 0 127.192)
(4.3995 0 139.189)
(27.709 0 118.353)
(42.2306 0 83.9536)
(-53.6651 0 0.437947)
(-55.9353 0 1.06091)
(-58.7338 0 2.0776)
(-61.8487 0 4.26244)
(-64.7765 0 8.87811)
(-66.5651 0 17.6189)
(-65.6556 0 32.198)
(-59.8586 0 53.3446)
(-46.6954 0 79.1767)
(-24.4988 0 102.952)
(4.98719 0 111.839)
(32.858 0 96.6201)
(51.9951 0 70.903)
(-66.4808 0 2.30918)
(-68.3791 0 3.47225)
(-70.7124 0 4.88045)
(-73.2245 0 7.04682)
(-75.3299 0 10.8301)
(-75.9494 0 17.37)
(-73.3938 0 27.7767)
(-65.4569 0 42.4313)
(-49.9209 0 59.9025)
(-25.7422 0 75.651)
(5.0254 0 81.5881)
(34.4324 0 71.6023)
(55.8518 0 54.4597)
(-69.3524 0 3.59889)
(-70.6313 0 5.12826)
(-72.0897 0 6.70835)
(-73.5238 0 8.60086)
(-74.4307 0 11.2602)
(-73.8511 0 15.2903)
(-70.276 0 21.2798)
(-61.7692 0 29.4312)
(-46.4844 0 38.9771)
(-23.7663 0 47.5143)
(4.45003 0 50.8064)
(31.6105 0 45.3916)
(52.0815 0 36.0804)
(-61.4501 0 5.45665)
(-61.6969 0 7.20095)
(-61.6479 0 8.99621)
(-61.2422 0 10.8879)
(-60.2365 0 12.9569)
(-58.0903 0 15.3059)
(-53.8902 0 18.0275)
(-46.4105 0 21.1343)
(-34.4379 0 24.4243)
(-17.5134 0 27.2774)
(3.13154 0 28.4269)
(23.1061 0 26.6012)
(-54.3766 0 3.10819)
(-52.2849 0 3.9187)
(-49.5489 0 4.71233)
(-46.163 0 5.5104)
(-42.0929 0 6.31845)
(-37.2711 0 7.1197)
(-31.5952 0 7.87069)
(-24.9385 0 8.50258)
(-17.1834 0 8.9384)
(-8.32442 0 9.13997)
(1.38538 0 9.16327)
(10.954 0 9.10132)
(-52.6356 0 2.93033)
(-50.3606 0 3.11572)
(-47.4371 0 3.28636)
(-43.8417 0 3.4466)
(-39.54 0 3.59846)
(-34.4939 0 3.7405)
(-28.6753 0 3.86765)
(-22.0887 0 3.97172)
(-14.8008 0 4.04435)
(-6.9723 0 4.08225)
(1.14819 0 4.09348)
(9.21932 0 4.07603)
)
;

boundaryField
{
    top
    {
        type            directionMixed;
        refValue        uniform (0 0 0);
        refGradient     uniform (0 0 0);
        valueFraction   uniform (0 0 0 0 0 1);
        value           nonuniform List<vector> 
12
(
(-52.6356 0 0)
(-50.3606 0 0)
(-47.4371 0 0)
(-43.8417 0 0)
(-39.54 0 0)
(-34.4939 0 0)
(-28.6753 0 0)
(-22.0887 0 0)
(-14.8008 0 0)
(-6.9723 0 0)
(1.14819 0 0)
(9.21932 0 0)
)
;
    }
    bottom
    {
        type            fixedValue;
        value           uniform (0 0 0);
    }
    frontAndBack
    {
        type            empty;
    }
    left_cyc
    {
        type            cyclic;
    }
    right_cyc
    {
        type            cyclic;
    }
    procBoundary0to1
    {
        type            processor;
        value           nonuniform List<vector> 
16
(
(-60.6574 0 0.858033)
(-93.9998 0 7.51582)
(-90.5436 0 18.1461)
(-71.3907 0 28.738)
(-46.2642 0 38.6326)
(-19.5523 0 46.673)
(6.29038 0 51.8963)
(29.574 0 53.6802)
(48.8089 0 51.6768)
(62.4786 0 45.9827)
(68.7513 0 37.4447)
(65.099 0 26.7229)
(38.5902 0 23.4785)
(38.5902 0 23.4785)
(19.5037 0 8.83558)
(16.9137 0 4.02992)
)
;
    }
    procBoundary0to3throughleft_cyc
    {
        type            processorCyclic;
        value           nonuniform List<vector> 
15
(
(46.9927 0 0.960792)
(80.4644 0 1.33598)
(83.5803 0 -0.0467607)
(74.6313 0 -2.10713)
(59.7805 0 -3.84591)
(40.16 0 -4.68749)
(16.8297 0 -4.45498)
(-8.10221 0 -3.34177)
(-31.9699 0 -1.76883)
(-51.9622 0 -0.176094)
(-65.0819 0 1.17106)
(-68.3025 0 2.05126)
(-60.9111 0 3.77173)
(-55.8113 0 2.26681)
(-54.2754 0 2.72748)
)
;
    }
}


// ************************************************************************* //
