/*--------------------------------*- C++ -*----------------------------------*\
| =========                 |                                                 |
| \\      /  F ield         | OpenFOAM: The Open Source CFD Toolbox           |
|  \\    /   O peration     | Version:  2.3.0                                 |
|   \\  /    A nd           | Web:      www.OpenFOAM.org                      |
|    \\/     M anipulation  |                                                 |
\*---------------------------------------------------------------------------*/
FoamFile
{
    version     2.0;
    format      ascii;
    class       volScalarField;
    location    "3000";
    object      p;
}
// * * * * * * * * * * * * * * * * * * * * * * * * * * * * * * * * * * * * * //

dimensions      [0 2 -2 0 0 0 0];

internalField   nonuniform List<scalar> 
191
(
-1709.89
-1698.91
-1689.64
-1681.16
-1672.7
-1663.78
-1654.11
-1643.55
-1631.98
-1619.21
-1604.95
-1588.74
-1569.82
-1542.64
-1532.36
-1523.04
-1514.41
-1506.12
-1497.88
-1489.42
-1480.54
-1471.09
-1460.96
-1449.97
-1437.92
-1424.46
-1396.59
-1388.24
-1380.35
-1372.94
-1365.95
-1359.3
-1352.88
-1346.55
-1340.18
-1333.71
-1327.14
-1320.46
-1313.7
-1262.04
-1256.51
-1251.05
-1245.77
-1240.77
-1236.08
-1231.73
-1227.71
-1223.94
-1220.38
-1216.97
-1213.64
-1210.3
-1131.35
-1128.48
-1125.54
-1122.6
-1119.72
-1117.01
-1114.53
-1112.29
-1110.27
-1108.41
-1106.53
-1104.44
-1101.88
-1000.73
-999.934
-999.033
-998.044
-996.995
-995.938
-994.929
-994.001
-993.138
-992.26
-991.214
-989.793
-987.781
-868.286
-868.968
-869.52
-869.97
-870.314
-870.55
-870.697
-870.773
-870.773
-870.648
-870.303
-869.616
-868.477
-733.115
-734.892
-736.475
-737.926
-739.263
-740.476
-741.559
-742.513
-743.333
-743.992
-744.457
-744.709
-744.766
-594.861
-597.582
-600.011
-602.245
-604.338
-606.319
-608.203
-610.006
-611.734
-613.382
-614.962
-616.546
-453.556
-457.224
-460.512
-463.529
-466.369
-469.114
-471.83
-474.59
-477.445
-480.413
-483.543
-486.975
-309.908
-314.715
-319.071
-323.096
-326.921
-330.676
-334.492
-338.53
-342.925
-347.717
-352.999
-359.003
-166.864
-173.147
-178.953
-184.42
-189.725
-195.055
-200.6
-206.61
-213.284
-220.613
-228.693
-237.698
-18.4208
-27.8093
-36.733
-45.1632
-53.1929
-60.9592
-68.617
-76.376
-84.7846
-94.4291
-104.868
-115.316
-125.182
83.9491
72.6207
62.0759
52.1489
42.5931
33.1953
23.8636
14.7336
6.11647
-1.3198
-6.96244
-10.0488
-10.6483
48.4962
59.6858
69.1726
77.1822
83.9294
89.5084
93.8834
97.1949
100.462
103.276
102.645
97.388
86.5059
)
;

boundaryField
{
    top
    {
        type            calculated;
        value           nonuniform List<scalar> 
13
(
-9.81
-9.81
-9.81
-9.81
-9.81
-9.81
-9.81
-9.81
-9.81
-9.81
-9.81
-9.81
-9.81
)
;
    }
    bottom
    {
        type            calculated;
        value           nonuniform List<scalar> 
13
(
-1800.86
-1789.97
-1780.93
-1772.61
-1764.11
-1754.88
-1744.77
-1733.66
-1721.43
-1707.85
-1692.61
-1675.17
-1654.73
)
;
    }
    frontAndBack
    {
        type            empty;
    }
    left_cyc
    {
        type            cyclic;
    }
    right_cyc
    {
        type            cyclic;
    }
    procBoundary1to0
    {
        type            processor;
        value           nonuniform List<scalar> 
16
(
-1723.46
-1554
-1405.25
-1267.53
-1134.08
-1001.32
-867.358
-731.043
-591.759
-449.425
-304.598
-160.066
-160.066
-8.84527
95.925
35.5609
)
;
    }
    procBoundary1to2
    {
        type            processor;
        value           nonuniform List<scalar> 
16
(
-1546.94
-1409.06
-1306.91
-1206.75
-1098.56
-984.98
-866.833
-744.725
-618.259
-618.259
-490.89
-366.001
-247.42
-132.617
-10.2374
67.6215
)
;
    }
}


// ************************************************************************* //
