/*--------------------------------*- C++ -*----------------------------------*\
| =========                 |                                                 |
| \\      /  F ield         | OpenFOAM: The Open Source CFD Toolbox           |
|  \\    /   O peration     | Version:  2.3.0                                 |
|   \\  /    A nd           | Web:      www.OpenFOAM.org                      |
|    \\/     M anipulation  |                                                 |
\*---------------------------------------------------------------------------*/
FoamFile
{
    version     2.0;
    format      ascii;
    class       volScalarField;
    location    "3000";
    object      p_rgh;
}
// * * * * * * * * * * * * * * * * * * * * * * * * * * * * * * * * * * * * * //

dimensions      [0 2 -2 0 0 0 0];

internalField   nonuniform List<scalar> 
191
(
-1800.86
-1789.97
-1780.93
-1772.61
-1764.11
-1754.88
-1744.77
-1733.66
-1721.43
-1707.85
-1692.61
-1675.17
-1654.73
-1772.62
-1761.88
-1752.56
-1743.63
-1734.37
-1724.28
-1712.92
-1700.45
-1686.84
-1671.96
-1655.59
-1637.36
-1616.67
-1732.9
-1721.97
-1711.97
-1702.12
-1691.96
-1681.24
-1669.67
-1656.82
-1642.92
-1628.01
-1612.08
-1595.14
-1577.21
-1703.47
-1693.38
-1683.34
-1673.07
-1662.58
-1651.88
-1641.01
-1629.96
-1618.57
-1606.99
-1595.31
-1583.22
-1569.92
-1693.78
-1686.12
-1677.55
-1668.26
-1658.79
-1649.57
-1640.84
-1632.69
-1625.04
-1617.68
-1610.04
-1601.05
-1589.05
-1700.68
-1696.82
-1691.06
-1683.78
-1675.96
-1668.46
-1661.76
-1656.05
-1651.17
-1646.58
-1641.26
-1633.52
-1620.92
-1717.58
-1717.03
-1714.83
-1710.35
-1704.55
-1698.49
-1692.98
-1688.4
-1684.69
-1681.25
-1676.73
-1668.88
-1654.54
-1739.64
-1740.79
-1741.18
-1739.74
-1736.46
-1732.05
-1727.31
-1722.82
-1718.74
-1714.59
-1708.95
-1699.21
-1681.59
-1767.64
-1768.43
-1768.75
-1767.93
-1765.91
-1762.7
-1758.56
-1753.73
-1748.26
-1741.65
-1732.54
-1718.36
-1797.82
-1796.41
-1795.08
-1792.95
-1789.64
-1785.15
-1779.53
-1772.67
-1764.3
-1753.64
-1739.15
-1718.32
-1819.6
-1814.16
-1808.28
-1801.45
-1793.49
-1784.35
-1773.96
-1762
-1747.86
-1730.66
-1708.71
-1679.64
-1804.13
-1790.74
-1776.23
-1760.48
-1743.38
-1724.83
-1704.79
-1683.66
-1660.67
-1634.77
-1604.38
-1567.44
-1693.21
-1670.33
-1646.16
-1620.67
-1593.74
-1565.09
-1534.42
-1501.79
-1468.29
-1436.14
-1403.37
-1366.96
-1325.32
-1320.31
-1292.87
-1263.4
-1232.37
-1200
-1166.26
-1130.97
-1094.01
-1055.8
-1016.82
-977.701
-937.963
-894.406
-594.229
-558.832
-524.292
-490.833
-458.425
-426.979
-396.48
-366.925
-337.828
-310.008
-286.44
-268.334
-257.695
)
;

boundaryField
{
    top
    {
        type            fixedValue;
        value           uniform 0;
    }
    bottom
    {
        type            fixedFluxPressure;
        gradient        uniform 0;
        value           nonuniform List<scalar> 
13
(
-1800.86
-1789.97
-1780.93
-1772.61
-1764.11
-1754.88
-1744.77
-1733.66
-1721.43
-1707.85
-1692.61
-1675.17
-1654.73
)
;
    }
    frontAndBack
    {
        type            empty;
    }
    left_cyc
    {
        type            cyclic;
    }
    right_cyc
    {
        type            cyclic;
    }
    procBoundary1to0
    {
        type            processor;
        value           nonuniform List<scalar> 
16
(
-1814.7
-1785.84
-1745.99
-1714.83
-1702.53
-1705.27
-1717.6
-1740
-1769.53
-1801.3
-1825.72
-1816.78
-1816.78
-1714.8
-1345.18
-629.74
)
;
    }
    procBoundary1to2
    {
        type            processor;
        value           nonuniform List<scalar> 
16
(
-1629.93
-1592.53
-1558.12
-1554.17
-1571.74
-1600.31
-1629.83
-1651.82
-1695.42
-1695.42
-1687.85
-1640.7
-1521.07
-1274.62
-846.658
-255.926
)
;
    }
}


// ************************************************************************* //
