/*--------------------------------*- C++ -*----------------------------------*\
| =========                 |                                                 |
| \\      /  F ield         | OpenFOAM: The Open Source CFD Toolbox           |
|  \\    /   O peration     | Version:  2.3.0                                 |
|   \\  /    A nd           | Web:      www.OpenFOAM.org                      |
|    \\/     M anipulation  |                                                 |
\*---------------------------------------------------------------------------*/
FoamFile
{
    version     2.0;
    format      ascii;
    class       volVectorField;
    location    "3000";
    object      U;
}
// * * * * * * * * * * * * * * * * * * * * * * * * * * * * * * * * * * * * * //

dimensions      [0 1 -1 0 0 0 0];

internalField   nonuniform List<vector> 
191
(
(-54.5198 0 -2.30668)
(-50.3915 0 -1.84774)
(-47.2258 0 -1.03535)
(-45.4645 0 -0.240163)
(-45.0184 0 0.374527)
(-45.5798 0 0.792289)
(-46.8213 0 1.07278)
(-48.5079 0 1.30315)
(-50.531 0 1.55527)
(-52.8644 0 1.8907)
(-55.5465 0 2.38044)
(-58.6843 0 3.11931)
(-62.4635 0 4.2054)
(-93.1919 0 -5.94837)
(-89.253 0 -5.78975)
(-85.3988 0 -4.13459)
(-82.431 0 -2.11016)
(-80.5554 0 -0.321113)
(-79.6634 0 1.00843)
(-79.5028 0 1.8847)
(-79.7745 0 2.45003)
(-80.1894 0 2.83677)
(-80.4777 0 3.13221)
(-80.3524 0 3.3938)
(-79.4789 0 3.65933)
(-77.4545 0 3.89956)
(-95.6394 0 -8.17011)
(-93.5583 0 -9.26692)
(-90.7392 0 -7.59377)
(-87.9592 0 -4.95719)
(-85.5701 0 -2.38972)
(-83.6626 0 -0.351207)
(-82.1731 0 1.02746)
(-80.9262 0 1.79576)
(-79.6564 0 2.04883)
(-78.031 0 1.8377)
(-75.6436 0 1.16256)
(-72.0037 0 -0.000681404)
(-66.5649 0 -1.68852)
(-81.1539 0 -7.98268)
(-81.284 0 -10.6975)
(-80.2219 0 -9.71476)
(-78.5858 0 -7.2309)
(-76.7499 0 -4.54117)
(-74.9184 0 -2.28592)
(-73.1709 0 -0.720999)
(-71.4797 0 0.086605)
(-69.6996 0 0.120967)
(-67.5732 0 -0.665247)
(-64.7315 0 -2.36307)
(-60.6987 0 -5.05738)
(-54.9509 0 -8.72906)
(-58.7359 0 -5.77558)
(-60.838 0 -10.16)
(-61.6478 0 -10.2251)
(-61.5653 0 -8.35561)
(-60.8955 0 -5.98573)
(-59.8659 0 -3.86881)
(-58.6297 0 -2.36152)
(-57.2586 0 -1.63723)
(-55.7279 0 -1.82938)
(-53.8971 0 -3.10587)
(-51.4991 0 -5.68124)
(-48.1452 0 -9.73365)
(-43.3859 0 -15.2071)
(-32.2593 0 -2.07987)
(-35.6715 0 -7.86377)
(-37.984 0 -9.04033)
(-39.3613 0 -8.02008)
(-39.9805 0 -6.26712)
(-40.0152 0 -4.57419)
(-39.6226 0 -3.35031)
(-38.9253 0 -2.84049)
(-37.9874 0 -3.27297)
(-36.7858 0 -4.93414)
(-35.1855 0 -8.16604)
(-32.9319 0 -13.2482)
(-29.6937 0 -20.1213)
(-4.37514 0 2.19217)
(-8.27796 0 -4.48972)
(-11.4506 0 -6.57958)
(-13.8481 0 -6.39476)
(-15.5096 0 -5.36085)
(-16.5193 0 -4.25116)
(-16.9903 0 -3.47263)
(-17.0487 0 -3.29193)
(-16.8082 0 -3.98833)
(-16.3342 0 -5.93149)
(-15.6117 0 -9.56834)
(-14.5346 0 -15.2754)
(-12.934 0 -23.0212)
(22.584 0 6.21286)
(18.8227 0 -0.794998)
(15.3746 0 -3.48112)
(12.4814 0 -3.97353)
(10.2182 0 -3.60614)
(8.57434 0 -3.10054)
(7.48451 0 -2.82533)
(6.83893 0 -3.02619)
(6.50341 0 -3.99138)
(6.35681 0 -6.13482)
(6.31972 0 -9.96774)
(6.34813 0 -15.9222)
(6.40462 0 -23.9756)
(46.5425 0 9.48026)
(43.2925 0 2.72858)
(39.9521 0 -0.233913)
(36.9709 0 -1.23959)
(34.5326 0 -1.45993)
(32.6784 0 -1.52685)
(31.3658 0 -1.74725)
(30.4829 0 -2.31929)
(29.8654 0 -3.51091)
(29.3393 0 -5.74902)
(28.7423 0 -9.55981)
(27.8832 0 -15.3591)
(65.3049 0 11.7429)
(62.8122 0 5.7941)
(59.8632 0 2.8415)
(57.0937 0 1.44976)
(54.7965 0 0.688043)
(53.0621 0 0.0628217)
(51.8603 0 -0.639421)
(51.0576 0 -1.53908)
(50.4296 0 -2.85801)
(49.7262 0 -5.01503)
(48.6958 0 -8.50791)
(47.0121 0 -13.6679)
(76.2256 0 12.9164)
(74.6873 0 8.20755)
(72.4211 0 5.50813)
(70.1591 0 3.84408)
(68.2493 0 2.58727)
(66.8105 0 1.42775)
(65.832 0 0.278091)
(65.1732 0 -0.861794)
(64.557 0 -2.14018)
(63.6667 0 -3.96928)
(62.1782 0 -6.8089)
(59.6623 0 -10.908)
(76.1013 0 12.464)
(75.7596 0 9.31375)
(74.5882 0 7.14965)
(73.2311 0 5.45632)
(71.9786 0 3.90456)
(70.9208 0 2.35365)
(70.059 0 0.839265)
(69.2971 0 -0.463882)
(68.4222 0 -1.54585)
(67.1603 0 -2.82186)
(65.1567 0 -4.73339)
(61.9061 0 -7.41248)
(60.013 0 15.9756)
(62.8604 0 13.4403)
(64.2456 0 11.241)
(64.8455 0 9.27237)
(65.0033 0 7.44485)
(64.839 0 5.70168)
(64.3653 0 4.03141)
(63.5998 0 2.49942)
(62.5879 0 1.26891)
(61.4904 0 0.355297)
(60.3406 0 -0.497174)
(58.8409 0 -1.4244)
(56.6011 0 -2.46271)
(39.729 0 7.26477)
(44.6942 0 6.45727)
(48.8538 0 5.63439)
(52.2939 0 4.82287)
(55.0662 0 4.02594)
(57.1932 0 3.22935)
(58.6764 0 2.4129)
(59.5076 0 1.5922)
(59.7037 0 0.875898)
(59.4138 0 0.301697)
(58.7488 0 -0.245832)
(57.6858 0 -0.819608)
(56.1672 0 -1.41423)
(37.0679 0 3.97678)
(42.2213 0 3.86244)
(46.5989 0 3.73115)
(50.2432 0 3.5867)
(53.1973 0 3.42919)
(55.4959 0 3.25561)
(57.1633 0 3.06169)
(58.2224 0 2.84725)
(58.7372 0 2.61943)
(58.8188 0 2.37026)
(58.5245 0 2.08014)
(57.8626 0 1.74697)
(56.8534 0 1.3536)
)
;

boundaryField
{
    top
    {
        type            directionMixed;
        refValue        uniform (0 0 0);
        refGradient     uniform (0 0 0);
        valueFraction   uniform (0 0 0 0 0 1);
        value           nonuniform List<vector> 
13
(
(37.0679 0 0)
(42.2213 0 0)
(46.5989 0 0)
(50.2432 0 0)
(53.1973 0 0)
(55.4959 0 0)
(57.1633 0 0)
(58.2224 0 0)
(58.7372 0 0)
(58.8188 0 0)
(58.5245 0 0)
(57.8626 0 0)
(56.8534 0 0)
)
;
    }
    bottom
    {
        type            fixedValue;
        value           uniform (0 0 0);
    }
    frontAndBack
    {
        type            empty;
    }
    left_cyc
    {
        type            cyclic;
    }
    right_cyc
    {
        type            cyclic;
    }
    procBoundary1to0
    {
        type            processor;
        value           nonuniform List<vector> 
16
(
(-58.2268 0 -1.83222)
(-95.5001 0 -2.98713)
(-95.5872 0 -1.72383)
(-78.8703 0 1.57262)
(-54.8272 0 6.32103)
(-27.646 0 11.6883)
(0.0129848 0 16.6271)
(26.1059 0 20.35)
(48.833 0 22.3799)
(66.1936 0 22.4852)
(75.7537 0 20.8284)
(74.4642 0 17.2307)
(74.4642 0 17.2307)
(54.6509 0 18.9231)
(33.838 0 8.00254)
(31.1135 0 4.06665)
)
;
    }
    procBoundary1to2
    {
        type            processor;
        value           nonuniform List<vector> 
16
(
(-67.0678 0 5.62105)
(-73.7614 0 3.85196)
(-58.8598 0 -4.00783)
(-47.0998 0 -13.1573)
(-36.8613 0 -21.5346)
(-25.1749 0 -27.9733)
(-10.6607 0 -31.856)
(6.40122 0 -33.1001)
(26.5097 0 -23.0713)
(26.5097 0 -23.0713)
(44.2632 0 -20.3177)
(55.6383 0 -16.0687)
(56.946 0 -10.5991)
(53.2436 0 -3.73834)
(54.1541 0 -2.05783)
(55.5323 0 0.832138)
)
;
    }
}


// ************************************************************************* //
