/*--------------------------------*- C++ -*----------------------------------*\
| =========                 |                                                 |
| \\      /  F ield         | OpenFOAM: The Open Source CFD Toolbox           |
|  \\    /   O peration     | Version:  2.3.0                                 |
|   \\  /    A nd           | Web:      www.OpenFOAM.org                      |
|    \\/     M anipulation  |                                                 |
\*---------------------------------------------------------------------------*/
FoamFile
{
    version     2.0;
    format      ascii;
    class       volScalarField;
    location    "13000";
    object      p;
}
// * * * * * * * * * * * * * * * * * * * * * * * * * * * * * * * * * * * * * //

dimensions      [0 2 -2 0 0 0 0];

internalField   nonuniform List<scalar> 
192
(
-1662.31
-1671.15
-1679.81
-1688.98
-1699.57
-1712.53
-1728.38
-1746.51
-1764.81
-1779.41
-1784.47
-1775.36
-1759.02
-1497.14
-1505.65
-1514.4
-1523.75
-1534
-1545.39
-1557.8
-1570.7
-1582.53
-1591.15
-1594.18
-1588.77
-1578.92
-1359.47
-1366.54
-1374.01
-1381.97
-1390.42
-1399.31
-1408.42
-1417.02
-1423.91
-1428.15
-1429.62
-1427.01
-1421.94
-1236.94
-1241.93
-1247.22
-1252.72
-1258.37
-1264.07
-1269.6
-1274.18
-1276.99
-1277.91
-1278.15
-1277.73
-1276.34
-1118.01
-1120.83
-1123.75
-1126.7
-1129.63
-1132.51
-1135.13
-1136.89
-1137.17
-1136.18
-1135.62
-1136.58
-1137.32
-996.82
-997.81
-998.758
-999.636
-1000.44
-1001.16
-1001.6
-1001.38
-1000.12
-998.067
-997.074
-998.811
-1000.74
-871.266
-870.866
-870.361
-869.769
-869.091
-868.235
-867.08
-865.396
-863.015
-860.273
-859.087
-861.222
-863.961
-741.104
-739.707
-738.2
-736.586
-734.819
-732.784
-730.365
-727.454
-724.124
-720.934
-719.686
-721.989
-725.327
-606.985
-604.829
-602.548
-600.094
-597.382
-594.307
-590.756
-586.759
-582.626
-579.15
-577.876
-580.242
-584.019
-469.85
-466.941
-463.882
-460.576
-456.911
-452.777
-448.126
-443.12
-438.265
-434.529
-433.211
-435.628
-439.803
-331.364
-327.452
-323.378
-318.999
-314.179
-308.82
-302.947
-296.842
-291.167
-287.03
-285.602
-288.148
-292.855
-195.406
-189.973
-184.429
-178.579
-172.253
-165.35
-157.94
-150.4
-143.536
-138.63
-136.946
-139.841
-145.461
-68.1182
-60.2373
-52.1323
-43.6402
-34.631
-25.061
-15.081
-5.18364
3.668
9.97894
12.1573
8.5358
23.5148
33.1364
42.8766
52.9347
63.58
75.0548
87.4036
100.193
112.198
121.16
124.391
119.171
74.0192
69.2322
63.4811
56.7705
48.9686
39.892
29.4612
17.9594
6.45633
-2.80128
-5.87711
-0.643784
)
;

boundaryField
{
    top
    {
        type            calculated;
        value           nonuniform List<scalar> 
12
(
-9.81
-9.81
-9.81
-9.81
-9.81
-9.81
-9.81
-9.81
-9.81
-9.81
-9.81
-9.81
)
;
    }
    bottom
    {
        type            calculated;
        value           nonuniform List<scalar> 
13
(
-1753.32
-1762.29
-1770.84
-1779.78
-1790.19
-1803.27
-1819.72
-1838.5
-1857.67
-1873.44
-1879.16
-1868.98
-1851.53
)
;
    }
    frontAndBack
    {
        type            empty;
    }
    left_cyc
    {
        type            cyclic;
    }
    right_cyc
    {
        type            cyclic;
    }
    procBoundary0to1
    {
        type            processor;
        value           nonuniform List<scalar> 
16
(
-1740.37
-1566.46
-1414.31
-1272.88
-1136.53
-1001.65
-866.123
-728.557
-588.176
-444.798
-298.774
-152.662
1.31104
1.31104
109.055
9.76806
)
;
    }
    procBoundary0to3throughleft_cyc
    {
        type            processorCyclic;
        value           nonuniform List<scalar> 
15
(
-1652.85
-1488.59
-1352.74
-1232.3
-1115.39
-995.84
-871.56
-742.373
-609.034
-472.688
-335.253
-200.925
-75.9669
14.0322
77.8227
)
;
    }
}


// ************************************************************************* //
