/*--------------------------------*- C++ -*----------------------------------*\
| =========                 |                                                 |
| \\      /  F ield         | OpenFOAM: The Open Source CFD Toolbox           |
|  \\    /   O peration     | Version:  2.3.0                                 |
|   \\  /    A nd           | Web:      www.OpenFOAM.org                      |
|    \\/     M anipulation  |                                                 |
\*---------------------------------------------------------------------------*/
FoamFile
{
    version     2.0;
    format      ascii;
    class       volScalarField;
    location    "13000";
    object      p_rgh;
}
// * * * * * * * * * * * * * * * * * * * * * * * * * * * * * * * * * * * * * //

dimensions      [0 2 -2 0 0 0 0];

internalField   nonuniform List<scalar> 
192
(
-1753.32
-1762.29
-1770.84
-1779.78
-1790.19
-1803.27
-1819.72
-1838.5
-1857.67
-1873.44
-1879.16
-1868.98
-1851.53
-1722.44
-1732.22
-1741.48
-1750.87
-1761.32
-1773.91
-1789.17
-1807.67
-1828.76
-1849.65
-1859.42
-1843.19
-1821.74
-1679.03
-1689.76
-1700.07
-1710.36
-1721.23
-1733.67
-1749.19
-1771.26
-1800.78
-1834.83
-1852.38
-1823.77
-1790.26
-1650.49
-1661.48
-1672.25
-1682.75
-1693.07
-1703.97
-1718.7
-1742.67
-1779.93
-1827.76
-1853.17
-1811.96
-1766.02
-1649.31
-1659.04
-1668.75
-1677.86
-1685.9
-1693.58
-1705.27
-1728.21
-1770.81
-1830.19
-1861.71
-1810.55
-1754.33
-1669.24
-1677.17
-1684.85
-1691.23
-1695.53
-1699.1
-1705.8
-1726.4
-1772.65
-1840.04
-1874.99
-1818.05
-1754.35
-1699.74
-1705.72
-1710.66
-1713.41
-1713.46
-1712.8
-1716.73
-1737.25
-1784.58
-1852.74
-1888.42
-1830.89
-1766.16
-1732.72
-1736.29
-1738.13
-1737.88
-1736.54
-1734.92
-1739.46
-1759.19
-1802.47
-1864.63
-1899.18
-1844.99
-1786.05
-1762.37
-1764.57
-1765.47
-1765.21
-1763.99
-1763.93
-1769.47
-1787.06
-1823.1
-1874.93
-1906.44
-1858.96
-1809.93
-1785.28
-1788.86
-1791.21
-1792.49
-1793.38
-1795.38
-1801.38
-1815.82
-1843.35
-1882.96
-1909.73
-1871.4
-1833.92
-1786.97
-1795.31
-1802.45
-1808.51
-1813.8
-1819.2
-1826.44
-1838.39
-1858.29
-1886.26
-1907.15
-1878.95
-1852.32
-1732.71
-1750.39
-1766.65
-1781.6
-1795.34
-1808.11
-1820.6
-1834.23
-1850.87
-1871.01
-1886.29
-1866.7
-1846.91
-1549.35
-1578.74
-1606.24
-1632.21
-1656.86
-1680.29
-1702.51
-1723.7
-1744.12
-1763.25
-1775.08
-1759.72
-1151.28
-1185.38
-1217.97
-1249.23
-1279.09
-1307.22
-1333.18
-1356.52
-1376.87
-1393.36
-1401.3
-1390.4
-427.102
-457.862
-489.33
-521.596
-554.751
-588.71
-622.99
-656.387
-686.492
-709.152
-717.279
-704.388
)
;

boundaryField
{
    top
    {
        type            fixedValue;
        value           uniform 0;
    }
    bottom
    {
        type            fixedFluxPressure;
        gradient        uniform 0;
        value           nonuniform List<scalar> 
13
(
-1753.32
-1762.29
-1770.84
-1779.78
-1790.19
-1803.27
-1819.72
-1838.5
-1857.67
-1873.44
-1879.16
-1868.98
-1851.53
)
;
    }
    frontAndBack
    {
        type            empty;
    }
    left_cyc
    {
        type            cyclic;
    }
    right_cyc
    {
        type            cyclic;
    }
    procBoundary0to1
    {
        type            processor;
        value           nonuniform List<scalar> 
16
(
-1832.08
-1801.3
-1762.96
-1733.19
-1718.67
-1717.16
-1727.96
-1750.65
-1779.97
-1810.61
-1834.89
-1831.12
-1739.71
-1739.71
-1372.46
-678.853
)
;
    }
    procBoundary0to3throughleft_cyc
    {
        type            processorCyclic;
        value           nonuniform List<scalar> 
15
(
-1743.48
-1711.58
-1667.69
-1639.33
-1639.97
-1661.83
-1693.8
-1728.22
-1758.97
-1780.5
-1777.39
-1713.5
-1517.83
-1115.35
-397.027
)
;
    }
}


// ************************************************************************* //
