/*--------------------------------*- C++ -*----------------------------------*\
| =========                 |                                                 |
| \\      /  F ield         | OpenFOAM: The Open Source CFD Toolbox           |
|  \\    /   O peration     | Version:  2.3.0                                 |
|   \\  /    A nd           | Web:      www.OpenFOAM.org                      |
|    \\/     M anipulation  |                                                 |
\*---------------------------------------------------------------------------*/
FoamFile
{
    version     2.0;
    format      ascii;
    class       volVectorField;
    location    "13000";
    object      U;
}
// * * * * * * * * * * * * * * * * * * * * * * * * * * * * * * * * * * * * * //

dimensions      [0 1 -1 0 0 0 0];

internalField   nonuniform List<vector> 
192
(
(46.1683 0 0.562185)
(46.2865 0 -0.0196326)
(47.6777 0 -0.794615)
(50.5223 0 -1.65669)
(54.5938 0 -2.31871)
(58.8969 0 -2.28413)
(61.377 0 -0.947629)
(58.9592 0 2.01838)
(48.1083 0 6.46838)
(26.1019 0 11.271)
(-5.29067 0 13.3138)
(-34.6681 0 9.83243)
(-52.8822 0 4.90862)
(81.2249 0 0.101326)
(82.912 0 -1.61409)
(85.6981 0 -3.66413)
(89.5098 0 -5.5908)
(93.7917 0 -6.48002)
(97.2047 0 -4.91498)
(97.3524 0 0.738635)
(90.5578 0 11.7429)
(72.3507 0 27.8371)
(38.9619 0 45.0523)
(-7.90986 0 52.1647)
(-51.7638 0 39.9417)
(-79.9269 0 22.2266)
(85.5274 0 -1.92019)
(87.9417 0 -4.40732)
(90.7951 0 -7.16531)
(93.8478 0 -9.38664)
(96.5031 0 -9.5848)
(97.6207 0 -5.51439)
(95.2987 0 5.54124)
(86.7185 0 25.9571)
(68.2466 0 55.6389)
(36.5189 0 87.5877)
(-7.39488 0 100.588)
(-48.5203 0 78.1069)
(-75.6466 0 45.2563)
(76.5835 0 -4.17091)
(78.564 0 -6.81343)
(80.4186 0 -9.53098)
(81.8462 0 -11.2872)
(82.3329 0 -10.2569)
(81.0544 0 -3.70342)
(76.7704 0 11.7529)
(67.7874 0 39.1822)
(51.9554 0 78.7827)
(27.2724 0 121.503)
(-5.43311 0 138.706)
(-36.3052 0 108.844)
(-57.9674 0 64.9206)
(60.9516 0 -5.78202)
(61.8072 0 -8.161)
(62.1496 0 -10.3703)
(61.7103 0 -11.245)
(60.1318 0 -8.78736)
(56.9384 0 -0.0222434)
(51.526 0 18.7062)
(43.2511 0 50.6951)
(31.4256 0 96.1409)
(15.7188 0 144.697)
(-2.97762 0 163.975)
(-21.0473 0 130.409)
(-35.5728 0 80.323)
(40.254 0 -6.2343)
(39.8091 0 -8.05326)
(38.6625 0 -9.49029)
(36.6457 0 -9.34701)
(33.5945 0 -5.59254)
(29.3682 0 4.77017)
(23.9219 0 25.355)
(17.4357 0 59.3179)
(10.4466 0 106.513)
(4.17032 0 155.959)
(-0.548718 0 175.258)
(-5.74096 0 141.598)
(-12.5276 0 90.2689)
(15.9118 0 -5.46264)
(14.3789 0 -6.60689)
(12.1443 0 -7.25207)
(9.15631 0 -6.23007)
(5.42424 0 -1.56532)
(1.09411 0 9.60053)
(-3.42023 0 30.6201)
(-7.29371 0 64.2159)
(-8.96576 0 109.604)
(-6.14491 0 155.781)
(1.56534 0 173.5)
(8.02064 0 142.631)
(9.00575 0 94.2451)
(-9.69511 0 -3.78975)
(-11.8817 0 -4.29765)
(-14.6851 0 -4.27916)
(-18.0648 0 -2.63271)
(-21.8592 0 2.47511)
(-25.6517 0 13.621)
(-28.6202 0 33.7458)
(-29.328 0 64.8912)
(-25.5088 0 105.556)
(-14.5488 0 145.509)
(3.20394 0 160.653)
(19.3054 0 134.414)
(27.5948 0 92.0982)
(-33.792 0 -1.68478)
(-36.1868 0 -1.61804)
(-39.1422 0 -1.06253)
(-42.5347 0 0.955243)
(-46.0269 0 6.03593)
(-48.9188 0 16.3634)
(-49.9846 0 34.2947)
(-47.2996 0 61.1384)
(-38.32 0 94.983)
(-20.7432 0 127.112)
(4.31178 0 139.212)
(27.6433 0 118.453)
(42.1948 0 84.0654)
(-53.6576 0 0.436126)
(-55.926 0 1.05857)
(-58.7231 0 2.07286)
(-61.8377 0 4.25193)
(-64.7675 0 8.85686)
(-66.5622 0 17.5811)
(-65.665 0 32.1392)
(-59.8886 0 53.2663)
(-46.7534 0 79.0928)
(-24.5878 0 102.896)
(4.88691 0 111.857)
(32.7787 0 96.6927)
(51.9461 0 70.987)
(-66.4747 0 2.30564)
(-68.3715 0 3.46837)
(-70.7038 0 4.87502)
(-73.2162 0 7.03756)
(-75.3245 0 10.8136)
(-75.9515 0 17.3426)
(-73.41 0 27.7356)
(-65.4949 0 42.3783)
(-49.9863 0 59.8475)
(-25.8352 0 75.6157)
(4.92355 0 81.601)
(34.3491 0 71.6497)
(55.7967 0 54.5156)
(-69.3484 0 3.59408)
(-70.6266 0 5.12346)
(-72.0847 0 6.70299)
(-73.5196 0 8.59375)
(-74.4297 0 11.2496)
(-73.8574 0 15.2742)
(-70.2954 0 21.2568)
(-61.808 0 29.4023)
(-46.547 0 38.9478)
(-23.8511 0 47.4961)
(4.35907 0 50.8139)
(31.5349 0 45.4171)
(52.0294 0 36.1105)
(-61.4489 0 5.45132)
(-61.6967 0 7.19549)
(-61.6487 0 8.99052)
(-61.2444 0 10.8818)
(-60.2415 0 12.9501)
(-58.1004 0 15.298)
(-53.9091 0 18.0185)
(-46.4422 0 21.1243)
(-34.485 0 24.4149)
(-17.5748 0 27.2718)
(3.06679 0 28.4298)
(23.0517 0 26.6097)
(-54.3819 0 3.10563)
(-52.2922 0 3.91622)
(-49.5582 0 4.70986)
(-46.1744 0 5.5079)
(-42.1066 0 6.31595)
(-37.2872 0 7.1173)
(-31.6142 0 7.86858)
(-24.9608 0 8.50101)
(-17.2092 0 8.93755)
(-8.35324 0 9.13975)
(1.35595 0 9.16335)
(10.9269 0 9.1019)
(-52.6414 0 2.92979)
(-50.3685 0 3.11524)
(-47.4471 0 3.28592)
(-43.8538 0 3.44621)
(-39.5544 0 3.59809)
(-34.5106 0 3.74018)
(-28.6945 0 3.8674)
(-22.1101 0 3.97156)
(-14.824 0 4.0443)
(-6.99667 0 4.08228)
(1.12363 0 4.09358)
(9.19559 0 4.07619)
)
;

boundaryField
{
    top
    {
        type            directionMixed;
        refValue        uniform (0 0 0);
        refGradient     uniform (0 0 0);
        valueFraction   uniform (0 0 0 0 0 1);
        value           nonuniform List<vector> 
12
(
(-52.6414 0 0)
(-50.3685 0 0)
(-47.4471 0 0)
(-43.8538 0 0)
(-39.5544 0 0)
(-34.5106 0 0)
(-28.6945 0 0)
(-22.1101 0 0)
(-14.824 0 0)
(-6.99667 0 0)
(1.12363 0 0)
(9.19559 0 0)
)
;
    }
    bottom
    {
        type            fixedValue;
        value           uniform (0 0 0);
    }
    frontAndBack
    {
        type            empty;
    }
    left_cyc
    {
        type            cyclic;
    }
    right_cyc
    {
        type            cyclic;
    }
    procBoundary0to1
    {
        type            processor;
        value           nonuniform List<vector> 
16
(
(-60.6446 0 0.868922)
(-93.9713 0 7.55566)
(-90.5099 0 18.2193)
(-71.3572 0 28.8358)
(-46.2351 0 38.7463)
(-19.5311 0 46.7928)
(6.30121 0 52.0138)
(29.573 0 53.7878)
(48.7959 0 51.7684)
(62.4553 0 46.0536)
(68.7219 0 37.4931)
(65.0693 0 26.7494)
(38.5512 0 23.4886)
(38.5512 0 23.4886)
(19.48 0 8.83685)
(16.8916 0 4.03017)
)
;
    }
    procBoundary0to3throughleft_cyc
    {
        type            processorCyclic;
        value           nonuniform List<vector> 
15
(
(46.9967 0 0.961897)
(80.4631 0 1.3393)
(83.5745 0 -0.0417064)
(74.6251 0 -2.10157)
(59.7766 0 -3.84072)
(40.1596 0 -4.6834)
(16.8327 0 -4.45247)
(-8.09679 0 -3.34091)
(-31.9636 0 -1.7695)
(-51.9564 0 -0.178248)
(-65.0774 0 1.16746)
(-68.2992 0 2.04648)
(-60.909 0 3.7667)
(-55.8145 0 2.26419)
(-54.2794 0 2.72689)
)
;
    }
}


// ************************************************************************* //
