/*--------------------------------*- C++ -*----------------------------------*\
| =========                 |                                                 |
| \\      /  F ield         | OpenFOAM: The Open Source CFD Toolbox           |
|  \\    /   O peration     | Version:  2.3.0                                 |
|   \\  /    A nd           | Web:      www.OpenFOAM.org                      |
|    \\/     M anipulation  |                                                 |
\*---------------------------------------------------------------------------*/
FoamFile
{
    version     2.0;
    format      ascii;
    class       volScalarField;
    location    "25000";
    object      p_rgh;
}
// * * * * * * * * * * * * * * * * * * * * * * * * * * * * * * * * * * * * * //

dimensions      [0 2 -2 0 0 0 0];

internalField   nonuniform List<scalar> 
191
(
-1439.9
-1507.61
-1560.86
-1600.6
-1631.13
-1655.43
-1675.49
-1692.6
-1707.56
-1720.87
-1732.83
-1743.66
-1446.68
-1489.87
-1530.33
-1564.83
-1593.31
-1617.13
-1637.53
-1655.52
-1671.65
-1686.3
-1699.65
-1711.78
-1441.66
-1476.64
-1512.16
-1537.01
-1557.35
-1576.5
-1594.44
-1611.33
-1627.15
-1641.9
-1655.54
-1667.89
-1395.3
-1455.19
-1504.27
-1533.03
-1552.09
-1567.53
-1580.81
-1593.05
-1604.96
-1616.71
-1628.2
-1639.52
-1308.98
-1373.9
-1455.71
-1511.95
-1546.72
-1570.45
-1586.82
-1598.39
-1607.36
-1615.29
-1623.12
-1631.33
-1640.12
-1286.99
-1371.4
-1462.05
-1527.89
-1571.72
-1601.43
-1620.32
-1631.91
-1639.28
-1644.74
-1649.82
-1655.42
-1661.93
-1271.53
-1371.87
-1469.45
-1545.62
-1598.96
-1634.63
-1656.61
-1669.13
-1676.07
-1680.45
-1684.28
-1688.62
-1693.87
-1257.37
-1367.88
-1471.09
-1557.33
-1619.56
-1661.2
-1687.13
-1701.92
-1710.07
-1715.12
-1719.3
-1723.65
-1728.28
-1235.57
-1354.65
-1461.87
-1556.05
-1625.7
-1673.27
-1704.59
-1724.03
-1735.93
-1743.78
-1749.72
-1754.73
-1759.02
-1190.06
-1319.59
-1431.05
-1530.92
-1607.89
-1662.53
-1701.32
-1727.77
-1745.6
-1758.04
-1767.3
-1774.62
-1780.57
-1110.73
-1252.78
-1361.26
-1468.01
-1550.78
-1611.96
-1658.84
-1693.71
-1719.42
-1738.79
-1754.06
-1766.69
-1777.54
-983.956
-1119.89
-1221.19
-1329.02
-1419.16
-1488.73
-1543.13
-1585.62
-1619.52
-1647.48
-1671.49
-1693.12
-1713.79
-811.141
-917.413
-991.458
-1073.79
-1167.32
-1239.83
-1298.82
-1345.66
-1384.96
-1419.5
-1451.71
-1485.12
-1518.32
-560.532
-631.884
-678.263
-723.595
-772.505
-820.442
-870.107
-916.861
-959.033
-999.304
-1039.27
-1078.22
-1115.92
-477.296
-440.282
-385.605
-333.704
-294.199
-273.603
-269.061
-275.334
-290.448
-311.82
-338.408
-367.864
-397.503
)
;

boundaryField
{
    top
    {
        type            fixedValue;
        value           uniform 0;
    }
    bottom
    {
        type            fixedFluxPressure;
        gradient        uniform 0;
        value           nonuniform List<scalar> 
12
(
-1439.9
-1507.61
-1560.86
-1600.6
-1631.13
-1655.43
-1675.49
-1692.6
-1707.56
-1720.87
-1732.83
-1743.66
)
;
    }
    frontAndBack
    {
        type            empty;
    }
    left_cyc
    {
        type            cyclic;
    }
    right_cyc
    {
        type            cyclic;
    }
    procBoundary3to0throughright_cyc
    {
        type            processorCyclic;
        value           nonuniform List<scalar> 
15
(
-1753.48
-1722.61
-1679.22
-1650.68
-1649.47
-1669.35
-1699.82
-1732.77
-1762.4
-1785.33
-1787.1
-1732.98
-1549.8
-1151.81
-427.586
)
;
    }
    procBoundary3to2
    {
        type            processor;
        value           nonuniform List<scalar> 
16
(
-1365.18
-1404.67
-1389.97
-1352.69
-1352.69
-1261.58
-1220.02
-1181.17
-1142.36
-1096.79
-1033.92
-945.35
-828.993
-691.599
-479.465
-494.088
)
;
    }
}


// ************************************************************************* //
