/*--------------------------------*- C++ -*----------------------------------*\
| =========                 |                                                 |
| \\      /  F ield         | OpenFOAM: The Open Source CFD Toolbox           |
|  \\    /   O peration     | Version:  2.3.0                                 |
|   \\  /    A nd           | Web:      www.OpenFOAM.org                      |
|    \\/     M anipulation  |                                                 |
\*---------------------------------------------------------------------------*/
FoamFile
{
    version     2.0;
    format      ascii;
    class       surfaceScalarField;
    location    "25000";
    object      phi;
}
// * * * * * * * * * * * * * * * * * * * * * * * * * * * * * * * * * * * * * //

dimensions      [0 3 -1 0 0 0 0];

internalField   nonuniform List<scalar> 
354
(
0.510474
-0.0750223
0.526949
-0.0164746
0.501813
0.0251361
0.4647
0.0371134
0.430391
0.034309
0.40202
0.0283701
0.378861
0.0231592
0.359544
0.0193169
0.343112
0.0164327
0.329184
0.0139277
0.317967
0.0112166
0.00761751
0.293336
-0.160539
0.374631
-0.0977695
0.43801
-0.038243
0.482176
-0.00705251
0.510657
0.00582824
0.527247
0.0117799
0.535401
0.0150053
0.538033
0.0166849
0.537589
0.0168772
0.536216
0.0153002
0.535966
0.0114673
0.00463419
0.184147
-0.200277
0.237281
-0.150903
0.305546
-0.106508
0.3732
-0.0747066
0.428728
-0.0496998
0.469746
-0.0292375
0.498165
-0.0134144
0.517392
-0.0025417
0.530866
0.00340308
0.541567
0.00459868
0.551943
0.00109199
-0.0072826
0.132122
-0.229231
0.174112
-0.192893
0.234134
-0.166531
0.298266
-0.138838
0.353433
-0.104866
0.395714
-0.0715183
0.426275
-0.0439759
0.448212
-0.0244787
0.464749
-0.0131337
0.478514
-0.00916631
0.49135
-0.0117435
-0.020179
0.0704661
-0.281299
0.093765
-0.25253
0.131198
-0.230326
0.184183
-0.219516
0.237757
-0.192413
0.282913
-0.150023
0.317125
-0.10573
0.341767
-0.0686179
0.359579
-0.0422906
0.37315
-0.0267054
0.384324
-0.0203397
0.394069
-0.0214887
-0.0286693
0.0416644
-0.294244
0.0596142
-0.27048
0.0903441
-0.261056
0.130771
-0.259944
0.168627
-0.230269
0.19909
-0.180486
0.221301
-0.12794
0.236811
-0.0841281
0.247759
-0.053239
0.25583
-0.0347761
0.261914
-0.026424
0.266139
-0.0257131
-0.0305801
0.0146629
-0.298698
0.0232985
-0.279115
0.0399062
-0.277663
0.0608435
-0.280881
0.0793936
-0.248819
0.093533
-0.194625
0.103099
-0.137506
0.109131
-0.0901593
0.112806
-0.0569142
0.114826
-0.0367962
0.115245
-0.0268433
0.113574
-0.0240417
-0.026031
-0.0122869
-0.293669
-0.0187854
-0.272617
-0.0234358
-0.273013
-0.0265821
-0.277735
-0.0291309
-0.24627
-0.0311422
-0.192614
-0.0330515
-0.135597
-0.0351004
-0.0881103
-0.0374309
-0.0545838
-0.0403342
-0.0338929
-0.0443984
-0.0227792
-0.0504871
-0.0179531
-0.0169991
-0.0398526
-0.279023
-0.0632283
-0.249241
-0.0920437
-0.244198
-0.121091
-0.248688
-0.145023
-0.222338
-0.162367
-0.17527
-0.174333
-0.123631
-0.182734
-0.0797092
-0.189153
-0.0481646
-0.194859
-0.0281868
-0.201007
-0.0166313
-0.208818
-0.0101418
-0.00639433
-0.0687953
-0.255746
-0.101382
-0.216654
-0.149518
-0.196062
-0.202926
-0.19528
-0.246871
-0.178393
-0.278424
-0.143716
-0.299632
-0.102424
-0.313441
-0.0659006
-0.322603
-0.0390025
-0.329314
-0.0214759
-0.335358
-0.0105872
-0.342489
-0.00301091
0.00337091
-0.100266
-0.225164
-0.132401
-0.184519
-0.183625
-0.144838
-0.251354
-0.127552
-0.309687
-0.120059
-0.352441
-0.100962
-0.38172
-0.0731445
-0.400531
-0.0470893
-0.41218
-0.0273544
-0.419565
-0.0140902
-0.425004
-0.00514878
-0.430731
0.00271663
0.0112925
-0.136891
-0.185636
-0.171702
-0.149708
-0.210228
-0.106312
-0.261461
-0.0763192
-0.315267
-0.0662531
-0.361038
-0.0551908
-0.395118
-0.0390648
-0.417737
-0.0244704
-0.431837
-0.0132547
-0.440748
-0.00517897
-0.44698
0.00108318
-0.452536
0.00827314
0.0176648
-0.175207
-0.135381
-0.217006
-0.107909
-0.248134
-0.0751843
-0.274454
-0.0499994
-0.306168
-0.0345388
-0.33728
-0.0240782
-0.360071
-0.0162743
-0.374801
-0.00974063
-0.3843
-0.00375549
-0.391319
0.00183958
-0.39765
0.0074151
-0.403428
0.0140503
0.0221229
-0.203155
-0.0781187
-0.249906
-0.0611587
-0.283589
-0.0415011
-0.30845
-0.0251383
-0.328894
-0.0140944
-0.345414
-0.00755887
-0.358136
-0.0035521
-0.367406
-0.000470862
-0.373568
0.00240673
-0.37695
0.0052216
-0.377529
0.00799442
-0.374544
0.0110652
0.0147789
-0.224537
-0.27365
-0.307897
-0.330146
-0.344819
-0.355263
-0.363087
-0.368664
-0.371854
-0.372479
-0.370402
-0.365218
)
;

boundaryField
{
    top
    {
        type            calculated;
        value           nonuniform List<scalar> 
13
(
-0.016151
-0.0120458
-0.00725372
-0.00288902
0.000578581
0.00288488
0.00427139
0.00510656
0.00559673
0.00584694
0.00591737
0.00588136
0.00581713
)
;
    }
    bottom
    {
        type            calculated;
        value           uniform 0;
    }
    frontAndBack
    {
        type            empty;
        value           nonuniform 0();
    }
    left_cyc
    {
        type            cyclic;
        value           nonuniform 0();
    }
    right_cyc
    {
        type            cyclic;
        value           nonuniform 0();
    }
    procBoundary3to0throughright_cyc
    {
        type            processorCyclic;
        value           nonuniform List<scalar> 
15
(
0.31035
0.538949
0.56386
0.504246
0.402559
0.268049
0.109025
-0.059519
-0.219423
-0.352254
-0.438653
-0.458909
-0.407886
-0.3672
-0.356257
)
;
    }
    procBoundary3to2
    {
        type            processor;
        value           nonuniform List<scalar> 
16
(
-0.435452
-0.20782
-0.144409
-0.103167
0.260496
-0.0496638
-0.0287188
-0.0102086
0.00725714
0.0252068
0.0455184
0.0696848
0.097363
0.124952
0.145893
0.162569
)
;
    }
}


// ************************************************************************* //
