/*--------------------------------*- C++ -*----------------------------------*\
| =========                 |                                                 |
| \\      /  F ield         | OpenFOAM: The Open Source CFD Toolbox           |
|  \\    /   O peration     | Version:  2.3.0                                 |
|   \\  /    A nd           | Web:      www.OpenFOAM.org                      |
|    \\/     M anipulation  |                                                 |
\*---------------------------------------------------------------------------*/
FoamFile
{
    version     2.0;
    format      ascii;
    class       volScalarField;
    location    "15000";
    object      p_rgh;
}
// * * * * * * * * * * * * * * * * * * * * * * * * * * * * * * * * * * * * * //

dimensions      [0 2 -2 0 0 0 0];

internalField   nonuniform List<scalar> 
191
(
-1668.26
-1646.75
-1620.29
-1586.6
-1542.06
-1482.49
-1412.27
-1332.12
-1238.31
-1174.88
-1190.79
-1273.1
-1363.94
-1630.09
-1608.51
-1583.01
-1552.3
-1515.19
-1473.23
-1428.93
-1395.06
-1395.07
-1392.34
-1393.72
-1393.01
-1404.2
-1587.71
-1569.3
-1549.59
-1528.61
-1498.77
-1463.81
-1424.44
-1370.96
-1347.94
-1338.86
-1341.36
-1353.78
-1389.09
-1575.91
-1561.93
-1545.23
-1524.05
-1486.59
-1432.47
-1378.4
-1337.41
-1304.58
-1285.11
-1290.08
-1315.85
-1352.04
-1594.48
-1581.31
-1562.29
-1535.06
-1492.18
-1428.04
-1345.78
-1288.16
-1247.34
-1223.89
-1229.77
-1261
-1628.41
-1614.4
-1591.71
-1557.03
-1505.48
-1431.89
-1334.83
-1258.5
-1200.35
-1168.06
-1175.98
-1219.21
-1665.65
-1650.02
-1623.28
-1581.36
-1519.68
-1435.86
-1331.65
-1234.33
-1153.64
-1109.96
-1120.52
-1180.01
-1697.92
-1679.45
-1647.98
-1598.97
-1527.01
-1433.38
-1328.24
-1210.69
-1105.41
-1048.19
-1061.95
-1140.82
-1732.77
-1718.55
-1695.16
-1658.07
-1602.65
-1522.12
-1420.2
-1315.85
-1179.07
-1050.23
-979.057
-996.376
-1094.87
-1740.64
-1720.09
-1689.46
-1645.05
-1582.74
-1495.17
-1388.75
-1284.88
-1129.44
-980.939
-898.319
-918.622
-1031.68
-1712.06
-1683.38
-1644.35
-1592.45
-1524.19
-1431.6
-1316.16
-1209.51
-1047.9
-891.471
-802.8
-824.969
-943.019
-1609.5
-1572.85
-1526.28
-1466.7
-1388.62
-1292.07
-1181.88
-1076.99
-923.396
-778.822
-692.149
-714.473
-826.892
-1373.12
-1331.49
-1280.55
-1217.16
-1135.73
-1044.04
-966.599
-883.591
-765.894
-650.913
-576.689
-596.277
-689.935
-945.343
-901.56
-853.197
-803.994
-755.114
-707.183
-664.585
-608.607
-530.238
-450.908
-397.289
-411.714
-478.307
-284.788
-272.532
-269.541
-279.413
-306.512
-352.539
-407.83
-457.412
-486.249
-495.955
-493.17
-494.811
-494.221
)
;

boundaryField
{
    top
    {
        type            fixedValue;
        value           uniform 0;
    }
    bottom
    {
        type            fixedFluxPressure;
        gradient        uniform 0;
        value           nonuniform List<scalar> 
13
(
-1668.26
-1646.75
-1620.29
-1586.6
-1542.06
-1482.49
-1412.27
-1332.12
-1238.31
-1174.88
-1190.79
-1273.1
-1363.94
)
;
    }
    frontAndBack
    {
        type            empty;
    }
    left_cyc
    {
        type            cyclic;
    }
    right_cyc
    {
        type            cyclic;
    }
    procBoundary2to1
    {
        type            processor;
        value           nonuniform List<scalar> 
16
(
-1686.39
-1648.92
-1604.99
-1588.47
-1604.27
-1637.1
-1674.31
-1708.08
-1708.08
-1741.77
-1754.7
-1733.4
-1639.33
-1409.33
-985.953
-304.282
)
;
    }
    procBoundary2to3
    {
        type            processor;
        value           nonuniform List<scalar> 
16
(
-1438.84
-1446.01
-1441.03
-1394.52
-1308.11
-1308.11
-1285.85
-1270.09
-1255.57
-1233.32
-1187.61
-1108.24
-981.585
-809.402
-559.362
-477.714
)
;
    }
}


// ************************************************************************* //
