/*--------------------------------*- C++ -*----------------------------------*\
| =========                 |                                                 |
| \\      /  F ield         | OpenFOAM: The Open Source CFD Toolbox           |
|  \\    /   O peration     | Version:  2.3.0                                 |
|   \\  /    A nd           | Web:      www.OpenFOAM.org                      |
|    \\/     M anipulation  |                                                 |
\*---------------------------------------------------------------------------*/
FoamFile
{
    version     2.0;
    format      ascii;
    class       volScalarField;
    location    "15000";
    object      T;
}
// * * * * * * * * * * * * * * * * * * * * * * * * * * * * * * * * * * * * * //

dimensions      [0 0 0 1 0 0 0];

internalField   nonuniform List<scalar> 
191
(
37.8148
37.0999
36.2087
35.1169
33.8046
32.1886
30.7065
29.6043
28.8338
28.4987
28.5865
29.0723
29.9738
28.9364
27.8259
26.4629
24.7305
22.646
20.6847
19.0805
17.7556
16.7326
16.1838
16.3284
17.0743
18.2247
23.7987
22.774
21.6316
20.3615
18.9009
17.2708
15.5859
14.0008
12.7248
12.0245
12.206
13.1562
14.5803
22.8762
22.2057
21.378
20.3
18.8725
17.0894
15.0952
13.1204
11.5034
10.6223
10.8445
12.0461
13.8448
23.995
23.4847
22.7328
21.6131
20.0063
17.9001
15.4861
13.0603
11.0636
9.98753
10.2521
11.727
25.545
25.0739
24.2954
23.0696
21.2678
18.8483
16.0195
13.1517
10.7832
9.51539
9.82166
11.5641
26.9205
26.436
25.5991
24.2652
22.2995
19.6312
16.4518
13.1954
10.4908
9.04197
9.3892
11.379
27.9279
27.389
26.4768
25.0505
22.9685
20.1379
16.6964
13.1307
10.1432
8.52314
8.91291
11.1243
28.8936
28.4863
27.8408
26.8355
25.343
23.2086
20.2778
16.6485
12.8824
9.69901
7.93252
8.36343
10.7475
29.0745
28.5217
27.7267
26.5955
25.0251
22.8508
19.8646
16.1575
12.3436
9.08858
7.23438
7.69455
10.1659
28.4445
27.7219
26.7633
25.5043
23.8675
21.669
18.696
15.1038
11.4356
8.26391
6.4049
6.87429
9.31868
26.4012
25.5324
24.4609
23.1363
21.4928
19.3495
16.5711
13.3569
10.0631
7.16287
5.41424
5.86266
8.13267
22.1381
21.2338
20.2076
18.9978
17.5206
15.6727
13.3953
10.7923
8.10725
5.7071
4.22433
4.60996
6.51485
15.2329
14.5102
13.7335
12.8597
11.8208
10.5436
9.00366
7.26296
5.46248
3.83054
2.79911
3.07048
4.38277
5.68185
5.34312
5.02319
4.69378
4.32665
3.89451
3.3802
2.78541
2.14029
1.52389
1.11609
1.22509
1.73558
)
;

boundaryField
{
    top
    {
        type            fixedValue;
        value           uniform 0;
    }
    bottom
    {
        type            fixedValue;
        value           uniform 43.8;
    }
    frontAndBack
    {
        type            empty;
    }
    left_cyc
    {
        type            cyclic;
    }
    right_cyc
    {
        type            cyclic;
    }
    procBoundary2to1
    {
        type            processor;
        value           nonuniform List<scalar> 
16
(
38.3847
29.8744
24.7288
23.458
24.367
25.8314
27.1881
28.2319
28.2319
29.1675
29.4716
28.9997
27.1223
22.9577
15.9482
6.04312
)
;
    }
    procBoundary2to3
    {
        type            processor;
        value           nonuniform List<scalar> 
16
(
31.1975
19.6433
16.2279
15.8686
13.9442
13.9442
14.1905
14.3709
14.416
14.2374
13.7092
12.7372
11.2323
9.06485
6.10552
2.37374
)
;
    }
}


// ************************************************************************* //
