/*--------------------------------*- C++ -*----------------------------------*\
| =========                 |                                                 |
| \\      /  F ield         | OpenFOAM: The Open Source CFD Toolbox           |
|  \\    /   O peration     | Version:  2.3.0                                 |
|   \\  /    A nd           | Web:      www.OpenFOAM.org                      |
|    \\/     M anipulation  |                                                 |
\*---------------------------------------------------------------------------*/
FoamFile
{
    version     2.0;
    format      ascii;
    class       volVectorField;
    location    "15000";
    object      U;
}
// * * * * * * * * * * * * * * * * * * * * * * * * * * * * * * * * * * * * * //

dimensions      [0 1 -1 0 0 0 0];

internalField   nonuniform List<vector> 
191
(
(-59.8309 0 3.47057)
(-64.0148 0 4.72129)
(-69.1414 0 6.24589)
(-75.0272 0 7.29012)
(-79.7336 0 5.64418)
(-78.1573 0 -0.595403)
(-67.9232 0 -9.45707)
(-51.0063 0 -18.3556)
(-29.2735 0 -24.5876)
(-7.0982 0 -25.7098)
(15.1327 0 -25.5436)
(37.2782 0 -22.9928)
(57.9096 0 -15.1778)
(-79.4256 0 3.95895)
(-77.1751 0 4.28806)
(-73.1855 0 4.14411)
(-67.0061 0 2.24678)
(-57.8609 0 -4.11596)
(-45.6643 0 -15.0053)
(-32.3729 0 -22.219)
(-21.1209 0 -24.2818)
(-12.048 0 -25.9846)
(-3.044 0 -26.8614)
(6.15145 0 -26.6777)
(15.1413 0 -25.4492)
(24.6679 0 -23.7494)
(-71.2514 0 -0.0906814)
(-65.3711 0 -1.71397)
(-57.2677 0 -4.01204)
(-47.2925 0 -7.52251)
(-36.0791 0 -13.5109)
(-28.5482 0 -22.3741)
(-22.5696 0 -29.4438)
(-16.2104 0 -33.2028)
(-9.33113 0 -35.0989)
(-2.33401 0 -35.8884)
(4.71753 0 -35.7333)
(11.6974 0 -34.6031)
(18.4253 0 -32.2002)
(-60.2072 0 -5.5348)
(-54.1129 0 -9.12242)
(-45.9984 0 -13.3322)
(-36.4873 0 -17.7526)
(-26.274 0 -22.4067)
(-20.4002 0 -28.3035)
(-16.2216 0 -34.3597)
(-11.872 0 -38.322)
(-6.98324 0 -40.8081)
(-1.76876 0 -41.9588)
(3.546 0 -41.7161)
(8.66026 0 -40.0949)
(13.3501 0 -37.1453)
(-48.3224 0 -10.4721)
(-43.4192 0 -15.831)
(-36.7891 0 -21.7757)
(-28.9147 0 -26.9079)
(-20.2792 0 -29.8759)
(-14.3098 0 -32.9639)
(-11.0576 0 -38.2085)
(-8.02204 0 -42.317)
(-4.71679 0 -45.0901)
(-1.20452 0 -46.3972)
(2.38515 0 -46.1159)
(5.8304 0 -44.278)
(-33.7614 0 -14.0293)
(-30.6103 0 -20.7772)
(-26.1577 0 -28.2142)
(-20.5791 0 -34.3506)
(-14.198 0 -36.8548)
(-8.73039 0 -37.4396)
(-6.5227 0 -40.9569)
(-4.66027 0 -44.7722)
(-2.753 0 -47.6906)
(-0.712582 0 -49.1357)
(1.38113 0 -48.8189)
(3.38154 0 -46.8102)
(-15.8183 0 -15.8614)
(-14.4887 0 -23.4952)
(-12.4173 0 -31.9886)
(-9.63984 0 -39.0169)
(-6.20235 0 -41.6915)
(-3.16392 0 -40.4764)
(-2.31515 0 -42.5423)
(-1.67678 0 -46.0245)
(-1.04023 0 -48.9945)
(-0.281642 0 -50.5293)
(0.517046 0 -50.1881)
(1.2377 0 -48.0735)
(4.79437 0 -16.1626)
(4.47963 0 -24.1437)
(4.18669 0 -33.0668)
(3.78779 0 -40.4875)
(3.6542 0 -43.3096)
(2.74175 0 -41.1572)
(1.8737 0 -42.5826)
(1.13718 0 -46.019)
(0.556588 0 -49.0894)
(0.118133 0 -50.7039)
(-0.279543 0 -50.3406)
(-0.76999 0 -48.1182)
(27.4047 0 -9.44053)
(26.1735 0 -15.1987)
(24.4396 0 -22.8802)
(21.9085 0 -31.3504)
(18.2662 0 -38.275)
(14.2877 0 -40.8067)
(8.72283 0 -38.8302)
(6.14685 0 -40.7396)
(4.01465 0 -44.6945)
(2.20165 0 -47.9974)
(0.526122 0 -49.6934)
(-1.11458 0 -49.3117)
(-2.84964 0 -46.9649)
(47.1559 0 -8.04973)
(45.211 0 -13.1748)
(42.2227 0 -19.8384)
(37.6996 0 -26.8993)
(31.2626 0 -32.3598)
(23.7546 0 -34.158)
(14.243 0 -33.6659)
(10.5495 0 -37.3752)
(7.21787 0 -42.1078)
(4.06578 0 -45.6444)
(0.981013 0 -47.3808)
(-2.11015 0 -46.9882)
(-5.24411 0 -44.5506)
(60.3916 0 -6.17076)
(57.7936 0 -10.2513)
(53.7058 0 -15.4565)
(47.5968 0 -20.7116)
(39.2554 0 -24.3397)
(29.0511 0 -24.9878)
(19.9958 0 -25.9573)
(15.4799 0 -32.9173)
(11.034 0 -38.2637)
(6.31479 0 -41.8158)
(1.52632 0 -43.4944)
(-3.32368 0 -43.1085)
(-8.09743 0 -40.7151)
(63.0864 0 -4.03475)
(59.9435 0 -6.72082)
(55.0885 0 -9.97547)
(48.2827 0 -12.516)
(40.4548 0 -12.9775)
(31.4786 0 -14.6356)
(26.2746 0 -20.4972)
(21.3733 0 -27.7853)
(15.4042 0 -32.9364)
(8.91236 0 -36.1806)
(2.15628 0 -37.6938)
(-4.69325 0 -37.3431)
(-11.3601 0 -35.1751)
(56.4334 0 -1.03103)
(54.4146 0 -2.08174)
(51.2791 0 -3.37104)
(46.5752 0 -5.13412)
(41.6149 0 -7.44454)
(37.5691 0 -10.7573)
(33.2702 0 -15.986)
(27.2735 0 -21.7509)
(19.7428 0 -26.0145)
(11.4749 0 -28.7644)
(2.77618 0 -30.0513)
(-6.03953 0 -29.7535)
(-14.6096 0 -27.9134)
(55.2054 0 -0.546004)
(53.9026 0 -1.15798)
(52.0987 0 -1.82241)
(49.7019 0 -2.69354)
(46.7253 0 -4.09925)
(43.138 0 -6.51689)
(38.3757 0 -9.90209)
(31.5887 0 -13.546)
(23.0632 0 -16.3939)
(13.4785 0 -18.2867)
(3.26933 0 -19.1757)
(-7.09679 0 -18.9689)
(-17.1248 0 -17.697)
(55.3092 0 1.60784)
(54.5327 0 1.21884)
(53.4284 0 0.701205)
(51.959 0 -0.111327)
(49.9325 0 -1.43175)
(46.8666 0 -3.4397)
(42.031 0 -6.04361)
(34.8932 0 -8.7172)
(25.7099 0 -10.8778)
(15.1148 0 -12.3695)
(3.67788 0 -13.0797)
(-7.96772 0 -12.9153)
(-19.161 0 -11.9041)
)
;

boundaryField
{
    top
    {
        type            directionMixed;
        refValue        uniform (0 0 0);
        refGradient     uniform (0 0 0);
        valueFraction   uniform (0 0 0 0 0 1);
        value           nonuniform List<vector> 
13
(
(55.3092 0 0)
(54.5327 0 0)
(53.4284 0 0)
(51.959 0 0)
(49.9325 0 0)
(46.8666 0 0)
(42.031 0 0)
(34.8932 0 0)
(25.7099 0 0)
(15.1148 0 0)
(3.67788 0 0)
(-7.96772 0 0)
(-19.161 0 0)
)
;
    }
    bottom
    {
        type            fixedValue;
        value           uniform (0 0 0);
    }
    frontAndBack
    {
        type            empty;
    }
    left_cyc
    {
        type            cyclic;
    }
    right_cyc
    {
        type            cyclic;
    }
    procBoundary2to1
    {
        type            processor;
        value           nonuniform List<vector> 
16
(
(-56.4308 0 2.60436)
(-80.4815 0 3.58114)
(-75.2739 0 1.01751)
(-64.562 0 -2.85473)
(-51.8194 0 -6.41494)
(-35.9375 0 -8.94601)
(-16.6291 0 -10.1714)
(5.13996 0 -10.2399)
(5.13996 0 -10.2399)
(28.3578 0 -5.68546)
(48.451 0 -4.62278)
(61.9823 0 -3.38682)
(65.0072 0 -2.15793)
(57.7302 0 -0.0846201)
(56.0485 0 0.0435715)
(55.722 0 1.93433)
)
;
    }
    procBoundary2to3
    {
        type            processor;
        value           nonuniform List<vector> 
16
(
(72.5593 0 -6.15586)
(37.0828 0 -20.7561)
(24.6088 0 -27.4399)
(17.5413 0 -32.515)
(9.01602 0 -41.0155)
(9.01602 0 -41.0155)
(5.21434 0 -43.517)
(1.81535 0 -44.8668)
(-1.42424 0 -44.8564)
(-4.74041 0 -43.376)
(-8.41974 0 -40.4577)
(-12.7666 0 -36.4203)
(-17.7292 0 -31.2425)
(-22.657 0 -24.6295)
(-26.3739 0 -15.4503)
(-29.299 0 -10.1549)
)
;
    }
}


// ************************************************************************* //
