/*--------------------------------*- C++ -*----------------------------------*\
| =========                 |                                                 |
| \\      /  F ield         | OpenFOAM: The Open Source CFD Toolbox           |
|  \\    /   O peration     | Version:  2.3.0                                 |
|   \\  /    A nd           | Web:      www.OpenFOAM.org                      |
|    \\/     M anipulation  |                                                 |
\*---------------------------------------------------------------------------*/
FoamFile
{
    version     2.0;
    format      ascii;
    class       surfaceScalarField;
    location    "19000";
    object      phi;
}
// * * * * * * * * * * * * * * * * * * * * * * * * * * * * * * * * * * * * * //

dimensions      [0 3 -1 0 0 0 0];

internalField   nonuniform List<scalar> 
354
(
0.510052
-0.0754487
0.527048
-0.0169957
0.50215
0.024898
0.465049
0.0371011
0.430685
0.0343636
0.402257
0.0284278
0.379054
0.0232032
0.359706
0.0193483
0.343249
0.016457
0.329298
0.0139504
0.318055
0.0112429
0.00765392
0.292566
-0.160914
0.373979
-0.0984089
0.437542
-0.0386644
0.481862
-0.00721889
0.510463
0.00576238
0.527142
0.0117486
0.535357
0.0149881
0.538028
0.0166781
0.537601
0.0168831
0.53623
0.0153223
0.535962
0.0115106
0.00470582
0.18379
-0.200646
0.236745
-0.151363
0.304912
-0.106832
0.372634
-0.0749408
0.42829
-0.0498937
0.469434
-0.0293957
0.497955
-0.0135325
0.51725
-0.00261728
0.530764
0.00336915
0.541481
0.00460513
0.551853
0.00113915
-0.00719343
0.131866
-0.229582
0.173655
-0.193152
0.233542
-0.166719
0.297708
-0.139107
0.352985
-0.105171
0.395385
-0.0717956
0.426043
-0.0441905
0.448046
-0.0246201
0.464621
-0.0132061
0.478404
-0.0091778
0.491244
-0.011701
-0.020089
0.0702894
-0.281528
0.0935267
-0.252819
0.130777
-0.230403
0.183676
-0.219617
0.237295
-0.192726
0.282549
-0.150425
0.316861
-0.106107
0.341581
-0.0689108
0.359445
-0.0424841
0.373048
-0.0268086
0.384239
-0.0203687
0.393996
-0.0214582
-0.0285923
0.0415508
-0.294454
0.0593807
-0.270649
0.0899454
-0.260968
0.130369
-0.260041
0.168293
-0.230649
0.198845
-0.180977
0.221133
-0.128396
0.236699
-0.0844765
0.247682
-0.0534676
0.255775
-0.0349013
0.261876
-0.0264696
0.266118
-0.0257002
-0.030526
0.0146341
-0.298901
0.023179
-0.279194
0.0396699
-0.277459
0.0606263
-0.280997
0.0792294
-0.249253
0.0934258
-0.195173
0.103037
-0.138007
0.109098
-0.0905372
0.112791
-0.0571606
0.114824
-0.0369346
0.115259
-0.0269036
0.113608
-0.0240492
-0.0260044
-0.0122259
-0.293883
-0.0187363
-0.272683
-0.0234116
-0.272783
-0.0265518
-0.277857
-0.0290961
-0.246708
-0.0311054
-0.193164
-0.0330132
-0.136099
-0.035062
-0.0884884
-0.0373915
-0.0548311
-0.0402903
-0.0340358
-0.0443432
-0.0228506
-0.0504125
-0.01798
-0.0169994
-0.0397087
-0.279264
-0.0629742
-0.249418
-0.0917129
-0.244045
-0.120789
-0.248781
-0.144785
-0.222713
-0.162194
-0.175755
-0.174208
-0.124085
-0.182641
-0.0800556
-0.189078
-0.0483946
-0.194789
-0.028324
-0.200932
-0.0167084
-0.208726
-0.0101854
-0.00641989
-0.0685594
-0.256032
-0.100934
-0.217043
-0.14892
-0.196059
-0.202394
-0.195307
-0.246463
-0.178644
-0.278139
-0.144079
-0.299439
-0.102784
-0.313311
-0.0661841
-0.32251
-0.039195
-0.329239
-0.0215951
-0.335285
-0.0106627
-0.342402
-0.00306839
0.00332064
-0.09997
-0.22547
-0.132034
-0.184979
-0.183059
-0.145033
-0.250737
-0.127629
-0.309196
-0.120185
-0.35209
-0.101185
-0.381483
-0.0733908
-0.400379
-0.0472888
-0.41208
-0.0274936
-0.419495
-0.0141802
-0.424942
-0.00521518
-0.43066
0.00264932
0.0112205
-0.136543
-0.185905
-0.171419
-0.150103
-0.209795
-0.106657
-0.260934
-0.0764909
-0.314792
-0.0663263
-0.360666
-0.0553118
-0.394857
-0.0391991
-0.417569
-0.0245776
-0.431729
-0.0133335
-0.440674
-0.00523522
-0.44692
0.00103134
-0.452476
0.00820516
0.0175837
-0.174776
-0.135592
-0.216681
-0.108198
-0.247877
-0.0754617
-0.274191
-0.050177
-0.305875
-0.0346423
-0.337035
-0.0241518
-0.359903
-0.0163311
-0.374689
-0.00979069
-0.384221
-0.00380195
-0.391252
0.00179569
-0.397588
0.00736779
-0.403374
0.0139909
0.022056
-0.202677
-0.0782518
-0.249543
-0.0613328
-0.283333
-0.0416719
-0.308248
-0.0252613
-0.328726
-0.0141651
-0.345278
-0.00759954
-0.35803
-0.00357869
-0.367327
-0.000493781
-0.373513
0.00238436
-0.376917
0.00519969
-0.377522
0.007972
-0.374569
0.0110383
0.0147479
-0.22403
-0.273275
-0.307651
-0.329988
-0.344707
-0.355176
-0.363018
-0.368613
-0.371823
-0.372469
-0.370415
-0.365259
)
;

boundaryField
{
    top
    {
        type            calculated;
        value           nonuniform List<scalar> 
13
(
-0.0161841
-0.0120873
-0.00729636
-0.00292438
0.000554338
0.00286969
0.00426274
0.00510152
0.00559407
0.00584601
0.00591765
0.00588213
0.00581823
)
;
    }
    bottom
    {
        type            calculated;
        value           uniform 0;
    }
    frontAndBack
    {
        type            empty;
        value           nonuniform 0();
    }
    left_cyc
    {
        type            cyclic;
        value           nonuniform 0();
    }
    right_cyc
    {
        type            cyclic;
        value           nonuniform 0();
    }
    procBoundary3to0throughright_cyc
    {
        type            processorCyclic;
        value           nonuniform List<scalar> 
15
(
0.310402
0.53891
0.563752
0.50414
0.402499
0.268051
0.109086
-0.0594174
-0.219306
-0.352143
-0.43856
-0.458839
-0.407847
-0.367261
-0.356329
)
;
    }
    procBoundary3to2
    {
        type            processor;
        value           nonuniform List<scalar> 
16
(
-0.434603
-0.207101
-0.144058
-0.10293
0.260729
-0.0494905
-0.0286246
-0.0101872
0.00720801
0.0250902
0.0453272
0.0694075
0.0969787
0.124464
0.145337
0.161962
)
;
    }
}


// ************************************************************************* //
