/*--------------------------------*- C++ -*----------------------------------*\
| =========                 |                                                 |
| \\      /  F ield         | OpenFOAM: The Open Source CFD Toolbox           |
|  \\    /   O peration     | Version:  2.3.0                                 |
|   \\  /    A nd           | Web:      www.OpenFOAM.org                      |
|    \\/     M anipulation  |                                                 |
\*---------------------------------------------------------------------------*/
FoamFile
{
    version     2.0;
    format      ascii;
    class       volScalarField;
    location    "19000";
    object      T;
}
// * * * * * * * * * * * * * * * * * * * * * * * * * * * * * * * * * * * * * //

dimensions      [0 0 0 1 0 0 0];

internalField   nonuniform List<scalar> 
191
(
31.2062
32.8421
34.3284
35.5554
36.5694
37.3903
38.0462
38.5698
38.9913
39.3343
39.6152
39.8413
19.6529
21.3696
23.4784
25.4408
27.0163
28.2714
29.3094
30.1963
30.9683
31.6429
32.2248
32.7044
16.2384
17.9213
19.4987
20.8761
22.0928
23.1838
24.1687
25.0658
25.8756
26.5976
27.2264
27.7371
15.8811
17.8217
19.4769
20.7594
21.7275
22.4833
23.1115
23.6708
24.1995
24.7043
25.1755
25.6155
13.9589
16.4303
18.7581
20.6859
22.0949
23.0577
23.7026
24.1488
24.4879
24.7827
25.0692
25.3646
25.6758
14.2078
17.119
19.8216
22.0154
23.5876
24.6282
25.2748
25.6631
25.9056
26.0845
26.2531
26.4416
26.6638
14.3905
17.6874
20.7017
23.1054
24.8196
25.9506
26.6392
27.0283
27.2449
27.3858
27.5143
27.6644
27.8478
14.4373
18.039
21.2818
23.8227
25.637
26.8521
27.6087
28.0459
28.2955
28.4613
28.6074
28.7629
28.9313
14.2598
18.0667
21.4661
24.0773
25.9437
27.2357
28.0934
28.6388
28.9883
29.2343
29.4334
29.611
29.7721
13.7319
17.5787
21.0526
23.7176
25.637
27.0277
28.0251
28.7224
29.2115
29.5709
29.8541
30.0904
30.2932
12.7588
16.4364
19.8457
22.5327
24.4866
25.9672
27.1097
27.9759
28.6322
29.1436
29.5605
29.9143
30.2244
11.2516
14.5501
17.6406
20.1818
22.1002
23.6085
24.8353
25.8277
26.6387
27.3201
27.9126
28.4467
28.9516
9.08051
11.7609
14.2597
16.3664
18.0571
19.4223
20.555
21.5302
22.3988
23.1902
23.9367
24.6847
25.4101
6.11599
7.90776
9.58003
11.0162
12.1945
13.1627
13.994
14.7486
15.4593
16.1849
16.944
17.7105
18.4702
2.3775
3.00696
3.57116
4.05153
4.45555
4.80443
5.12554
5.4463
5.79482
6.15916
6.53496
6.92189
7.31824
)
;

boundaryField
{
    top
    {
        type            fixedValue;
        value           uniform 0;
    }
    bottom
    {
        type            fixedValue;
        value           uniform 43.8;
    }
    frontAndBack
    {
        type            empty;
    }
    left_cyc
    {
        type            cyclic;
    }
    right_cyc
    {
        type            cyclic;
    }
    procBoundary3to0throughright_cyc
    {
        type            processorCyclic;
        value           nonuniform List<scalar> 
15
(
40.0065
33.0388
28.1397
26.0234
26.0028
26.9199
28.0581
29.0996
29.9122
30.4685
30.5051
29.4223
26.0995
19.2066
7.71496
)
;
    }
    procBoundary3to2
    {
        type            processor;
        value           nonuniform List<scalar> 
16
(
29.9804
18.2328
14.59
13.8569
13.8569
11.7387
11.5779
11.3946
11.1416
10.7658
10.1846
9.33689
8.14932
6.52864
4.39214
1.73914
)
;
    }
}


// ************************************************************************* //
