/*--------------------------------*- C++ -*----------------------------------*\
| =========                 |                                                 |
| \\      /  F ield         | OpenFOAM: The Open Source CFD Toolbox           |
|  \\    /   O peration     | Version:  2.3.0                                 |
|   \\  /    A nd           | Web:      www.OpenFOAM.org                      |
|    \\/     M anipulation  |                                                 |
\*---------------------------------------------------------------------------*/
FoamFile
{
    version     2.0;
    format      ascii;
    class       volScalarField;
    location    "5000";
    object      p;
}
// * * * * * * * * * * * * * * * * * * * * * * * * * * * * * * * * * * * * * //

dimensions      [0 2 -2 0 0 0 0];

internalField   nonuniform List<scalar> 
191
(
-1582.21
-1562.91
-1539.31
-1509.33
-1469.69
-1416.45
-1351.61
-1278.01
-1189
-1116.91
-1116.39
-1190.61
-1283.9
-1432.09
-1418.35
-1402.49
-1383.97
-1361.54
-1333.52
-1300.54
-1271.34
-1273.68
-1279.96
-1285.46
-1285.6
-1282.44
-1316.25
-1309.53
-1302.82
-1296.32
-1284.61
-1268.96
-1252.96
-1218.26
-1204.79
-1203.32
-1203.55
-1204.34
-1217.14
-1211.34
-1208.12
-1204.76
-1201.06
-1188.75
-1165.65
-1142.67
-1132.87
-1125.1
-1118.46
-1118.07
-1123.55
-1129.89
-1103.7
-1101.14
-1097.76
-1093.63
-1085.44
-1067.24
-1034.78
-1024.63
-1023.83
-1022.1
-1021.74
-1022.54
-990.446
-988.378
-985.377
-981.477
-975.984
-964.008
-939.283
-932.934
-933.425
-933.077
-932.825
-932.702
-871.444
-870.269
-868.425
-865.99
-862.847
-857.438
-847.947
-847.68
-846.855
-846.166
-846.047
-846.623
-747.349
-747.359
-747.096
-746.771
-746.087
-747.094
-756.068
-766.484
-764.202
-761.553
-761.474
-763.878
-618.058
-619.654
-621.269
-623.068
-625.41
-627.623
-635.812
-663.507
-685.147
-681.81
-677.063
-676.944
-680.818
-486.885
-490.245
-493.977
-498.355
-503.866
-509.741
-527.357
-572.165
-598.857
-595.144
-590.779
-590.767
-594.054
-356.327
-362.117
-368.78
-376.734
-386.484
-397.357
-419.647
-478.416
-504.601
-502.204
-502.201
-502.463
-502.309
-231.605
-240.333
-249.882
-259.73
-268.604
-280.21
-306.979
-369.097
-400.106
-408.09
-414.571
-415.143
-409.534
-118.872
-128.929
-137.182
-142.596
-146.641
-152.064
-194.301
-261.847
-304.142
-328.751
-342.348
-343.275
-331.412
-18.9921
-20.3828
-20.1372
-22.7376
-35.0114
-60.1071
-105.265
-159.534
-195.806
-219.444
-232.266
-233.064
-221.614
73.3019
64.3751
48.3765
20.9855
-24.3432
-91.9152
-175.549
-265.039
-339.976
-395.243
-425.851
-427.473
-399.422
)
;

boundaryField
{
    top
    {
        type            calculated;
        value           nonuniform List<scalar> 
13
(
-9.81
-9.81
-9.81
-9.81
-9.81
-9.81
-9.81
-9.81
-9.81
-9.81
-9.81
-9.81
-9.81
)
;
    }
    bottom
    {
        type            calculated;
        value           nonuniform List<scalar> 
13
(
-1668.45
-1647.58
-1622.03
-1589.65
-1547.13
-1490.39
-1422.09
-1345.89
-1254.96
-1181.84
-1181.11
-1256.16
-1351.36
)
;
    }
    frontAndBack
    {
        type            empty;
    }
    left_cyc
    {
        type            cyclic;
    }
    right_cyc
    {
        type            cyclic;
    }
    procBoundary2to1
    {
        type            processor;
        value           nonuniform List<scalar> 
16
(
-1598.63
-1444.32
-1322.94
-1214.61
-1105.79
-991.866
-872.088
-747.045
-747.045
-616.385
-483.729
-351.137
-223.736
-108.368
-14.8311
77.0393
)
;
    }
    procBoundary2to3
    {
        type            processor;
        value           nonuniform List<scalar> 
16
(
-1359.53
-1311.47
-1253.23
-1139.03
-1022.5
-1022.5
-932.066
-847.689
-766.919
-685.469
-600.509
-506.577
-402.119
-308.198
-198.885
-345.337
)
;
    }
}


// ************************************************************************* //
