/*--------------------------------*- C++ -*----------------------------------*\
| =========                 |                                                 |
| \\      /  F ield         | OpenFOAM: The Open Source CFD Toolbox           |
|  \\    /   O peration     | Version:  2.3.0                                 |
|   \\  /    A nd           | Web:      www.OpenFOAM.org                      |
|    \\/     M anipulation  |                                                 |
\*---------------------------------------------------------------------------*/
FoamFile
{
    version     2.0;
    format      ascii;
    class       volVectorField;
    location    "5000";
    object      U;
}
// * * * * * * * * * * * * * * * * * * * * * * * * * * * * * * * * * * * * * //

dimensions      [0 1 -1 0 0 0 0];

internalField   nonuniform List<vector> 
191
(
(-59.2263 0 3.32051)
(-63.3142 0 4.53226)
(-68.382 0 6.05747)
(-74.3191 0 7.26739)
(-79.5325 0 6.19889)
(-79.3548 0 0.789048)
(-70.6847 0 -7.53142)
(-55.4647 0 -16.1005)
(-34.8655 0 -23.1216)
(-13.1144 0 -25.3201)
(9.1068 0 -25.95)
(31.6669 0 -24.741)
(53.7102 0 -17.4998)
(-79.6316 0 3.94146)
(-77.6677 0 4.36963)
(-74.1358 0 4.4213)
(-68.5787 0 2.94516)
(-60.253 0 -2.57466)
(-48.9083 0 -12.8293)
(-36.0957 0 -20.9612)
(-24.5241 0 -23.3966)
(-15.2533 0 -25.254)
(-6.22268 0 -26.5985)
(2.99119 0 -26.969)
(11.9285 0 -26.2117)
(21.1161 0 -24.6433)
(-71.9691 0 0.185471)
(-66.4867 0 -1.1994)
(-58.9052 0 -3.18377)
(-49.4935 0 -6.27506)
(-38.7943 0 -11.673)
(-30.9975 0 -20.095)
(-25.2318 0 -27.6463)
(-19.0393 0 -31.9629)
(-12.2156 0 -34.3333)
(-5.20335 0 -35.6244)
(1.84647 0 -36.0096)
(8.79426 0 -35.3984)
(15.5779 0 -33.5195)
(-61.1212 0 -4.92427)
(-55.418 0 -8.14738)
(-47.8 0 -11.979)
(-38.7359 0 -16.072)
(-28.8824 0 -20.4523)
(-22.5924 0 -26.1803)
(-18.455 0 -32.5319)
(-14.219 0 -36.9928)
(-9.418 0 -39.9612)
(-4.24084 0 -41.6669)
(1.07383 0 -42.0206)
(6.21766 0 -40.9603)
(10.9915 0 -38.5218)
(-49.3607 0 -9.54266)
(-44.8155 0 -14.4157)
(-38.6393 0 -19.941)
(-31.1098 0 -24.9102)
(-22.7718 0 -28.0119)
(-16.2382 0 -31.0173)
(-12.9149 0 -36.3287)
(-9.90642 0 -40.9147)
(-6.66068 0 -44.2025)
(-3.18036 0 -46.0911)
(0.411534 0 -46.4312)
(3.88375 0 -45.1782)
(-34.8269 0 -12.8213)
(-31.9769 0 -18.9887)
(-27.9068 0 -25.9918)
(-22.6117 0 -32.1215)
(-16.4803 0 -35.1677)
(-10.4787 0 -35.8651)
(-7.9784 0 -39.1799)
(-6.04033 0 -43.3641)
(-4.18085 0 -46.7619)
(-2.16663 0 -48.8127)
(-0.0691008 0 -49.1548)
(1.95576 0 -47.7471)
(-16.7902 0 -14.4273)
(-15.6796 0 -21.4047)
(-13.8733 0 -29.4454)
(-11.2873 0 -36.5721)
(-8.04003 0 -40.0889)
(-4.56211 0 -39.3583)
(-3.30171 0 -41.0497)
(-2.54563 0 -44.6579)
(-1.95251 0 -48.035)
(-1.2201 0 -50.1926)
(-0.417759 0 -50.5427)
(0.331863 0 -49.0387)
(4.01875 0 -14.5789)
(3.61792 0 -21.8783)
(3.27623 0 -30.3625)
(2.92648 0 -37.9557)
(2.7958 0 -41.7947)
(2.43499 0 -40.4613)
(1.46887 0 -41.3456)
(0.778681 0 -44.6694)
(0.156837 0 -48.0986)
(-0.314496 0 -50.3548)
(-0.709571 0 -50.7137)
(-1.16417 0 -49.1188)
(26.876 0 -8.42745)
(25.6515 0 -13.5886)
(24.0079 0 -20.6561)
(21.7098 0 -28.7958)
(18.4389 0 -35.9994)
(14.7712 0 -39.6101)
(9.94245 0 -38.2631)
(6.39175 0 -39.2825)
(4.1708 0 -43.2669)
(2.32943 0 -46.9739)
(0.616869 0 -49.3337)
(-1.02554 0 -49.6966)
(-2.72746 0 -47.999)
(46.7688 0 -7.05594)
(44.9493 0 -11.6903)
(42.2193 0 -17.8883)
(38.1475 0 -24.7935)
(32.2423 0 -30.6182)
(25.2565 0 -33.3478)
(16.0445 0 -32.8058)
(11.3719 0 -35.1985)
(7.90905 0 -40.4967)
(4.76955 0 -44.5933)
(1.6598 0 -47.0139)
(-1.43765 0 -47.373)
(-4.54905 0 -45.6104)
(60.1308 0 -5.30568)
(57.7887 0 -9.0272)
(54.1048 0 -13.9031)
(48.5953 0 -19.1249)
(40.8298 0 -23.0983)
(31.3096 0 -24.4192)
(21.0929 0 -24.9204)
(16.6024 0 -30.6034)
(12.2724 0 -36.5804)
(7.61903 0 -40.7797)
(2.85748 0 -43.133)
(-1.99918 0 -43.4764)
(-6.79962 0 -41.7556)
(62.963 0 -3.37513)
(60.1928 0 -5.86821)
(55.8429 0 -8.98253)
(49.6654 0 -11.7615)
(42.152 0 -12.5892)
(33.7106 0 -13.2873)
(27.4465 0 -18.4845)
(22.7054 0 -25.7216)
(17.1749 0 -31.4188)
(10.8201 0 -35.2412)
(4.1539 0 -37.3643)
(-2.69719 0 -37.6734)
(-9.44994 0 -36.1183)
(56.3082 0 -0.770876)
(54.5672 0 -1.79647)
(51.7901 0 -3.01043)
(47.6008 0 -4.62281)
(42.5438 0 -6.71424)
(38.6436 0 -9.57841)
(34.6022 0 -14.1962)
(29.1037 0 -20.0767)
(21.9989 0 -24.7775)
(13.9596 0 -27.9816)
(5.39273 0 -29.777)
(-3.42117 0 -30.0332)
(-12.1167 0 -28.706)
(55.0272 0 -0.380169)
(53.8936 0 -0.989568)
(52.2682 0 -1.63032)
(50.0893 0 -2.41329)
(47.3114 0 -3.61732)
(44.0135 0 -5.68507)
(39.777 0 -8.77028)
(33.6546 0 -12.448)
(25.6374 0 -15.5545)
(16.3854 0 -17.7494)
(6.35746 0 -18.9876)
(-4.00716 0 -19.163)
(-14.2135 0 -18.2439)
(55.0339 0 1.52546)
(54.3857 0 1.15281)
(53.401 0 0.678824)
(52.0777 0 -0.028617)
(50.2735 0 -1.1783)
(47.6082 0 -2.95338)
(43.4299 0 -5.36212)
(37.0539 0 -8.05034)
(28.4955 0 -10.3486)
(18.3372 0 -12.0245)
(7.13614 0 -12.9641)
(-4.50896 0 -13.055)
(-15.938 0 -12.2735)
)
;

boundaryField
{
    top
    {
        type            directionMixed;
        refValue        uniform (0 0 0);
        refGradient     uniform (0 0 0);
        valueFraction   uniform (0 0 0 0 0 1);
        value           nonuniform List<vector> 
13
(
(55.0339 0 0)
(54.3857 0 0)
(53.401 0 0)
(52.0777 0 0)
(50.2735 0 0)
(47.6082 0 0)
(43.4299 0 0)
(37.0539 0 0)
(28.4955 0 0)
(18.3372 0 0)
(7.13614 0 0)
(-4.50896 0 0)
(-15.938 0 0)
)
;
    }
    bottom
    {
        type            fixedValue;
        value           uniform (0 0 0);
    }
    frontAndBack
    {
        type            empty;
    }
    left_cyc
    {
        type            cyclic;
    }
    right_cyc
    {
        type            cyclic;
    }
    procBoundary2to1
    {
        type            processor;
        value           nonuniform List<vector> 
16
(
(-55.9263 0 2.49198)
(-80.5318 0 3.51096)
(-75.739 0 1.11387)
(-65.2218 0 -2.55259)
(-52.6207 0 -5.91687)
(-36.7995 0 -8.26961)
(-17.4424 0 -9.3425)
(4.45549 0 -9.29118)
(4.45549 0 -9.29118)
(27.8795 0 -5.11749)
(48.0438 0 -4.00515)
(61.6055 0 -2.79724)
(64.6698 0 -1.6477)
(57.4206 0 0.16897)
(55.7172 0 0.212127)
(55.3088 0 1.84503)
)
;
    }
    procBoundary2to3
    {
        type            processor;
        value           nonuniform List<vector> 
16
(
(70.0544 0 -8.06795)
(33.2911 0 -22.2557)
(21.9094 0 -29.3816)
(15.2746 0 -34.4639)
(7.12668 0 -42.4507)
(7.12668 0 -42.4507)
(3.8329 0 -44.9226)
(0.945761 0 -46.2081)
(-1.77553 0 -46.1865)
(-4.57986 0 -44.7644)
(-7.74043 0 -42.0433)
(-11.5472 0 -38.1209)
(-15.9536 0 -32.7987)
(-20.3875 0 -25.8969)
(-23.7959 0 -16.3111)
(-26.5169 0 -10.7108)
)
;
    }
}


// ************************************************************************* //
