/*--------------------------------*- C++ -*----------------------------------*\
| =========                 |                                                 |
| \\      /  F ield         | OpenFOAM: The Open Source CFD Toolbox           |
|  \\    /   O peration     | Version:  2.3.0                                 |
|   \\  /    A nd           | Web:      www.OpenFOAM.org                      |
|    \\/     M anipulation  |                                                 |
\*---------------------------------------------------------------------------*/
FoamFile
{
    version     2.0;
    format      ascii;
    class       volScalarField;
    location    "2000";
    object      p_rgh;
}
// * * * * * * * * * * * * * * * * * * * * * * * * * * * * * * * * * * * * * //

dimensions      [0 2 -2 0 0 0 0];

internalField   nonuniform List<scalar> 
192
(
-1803.81
-1813.09
-1822.14
-1831.86
-1843.34
-1857.44
-1873.61
-1890.25
-1903.65
-1907.08
-1895.36
-1876.7
-1855.92
-1775.17
-1785.29
-1795.01
-1805.07
-1816.47
-1829.93
-1846
-1864.37
-1882.15
-1887.96
-1869.5
-1846.54
-1824.59
-1736.57
-1747.14
-1757.39
-1767.8
-1779.25
-1793.11
-1812.65
-1838.96
-1868.87
-1881.21
-1850.39
-1815.58
-1786.8
-1712.41
-1722.33
-1732.09
-1741.74
-1751.91
-1765.26
-1786.69
-1820.08
-1862.45
-1882.12
-1839.11
-1791.96
-1757.55
-1711.86
-1719.88
-1727.83
-1735.29
-1742.76
-1753.67
-1774.23
-1812.04
-1864.45
-1890.51
-1838.4
-1780.73
-1743.04
-1728.79
-1734.69
-1740.2
-1744.63
-1748.82
-1755.64
-1773.87
-1814.07
-1873.03
-1903.44
-1846.73
-1781.2
-1741.18
-1754.36
-1758.34
-1761.28
-1762.75
-1763.42
-1767.59
-1784.91
-1824.99
-1884.19
-1916.25
-1860.19
-1793.85
-1752.41
-1782.63
-1784.77
-1785.68
-1785.65
-1785.32
-1789.48
-1805.56
-1841.41
-1894.79
-1926.54
-1874.57
-1814.28
-1775.86
-1809.44
-1811.17
-1811.85
-1811.66
-1812.29
-1816.99
-1831.05
-1860.39
-1904.28
-1933.51
-1888.4
-1838.35
-1806.04
-1829.68
-1833.07
-1835.51
-1837.42
-1839.91
-1845.16
-1856.76
-1878.96
-1912.03
-1936.66
-1900.22
-1862.08
-1837.28
-1828.16
-1837
-1844.63
-1851.32
-1857.65
-1864.9
-1875.35
-1891.81
-1915.05
-1933.76
-1906.49
-1879.46
-1861.31
-1767.21
-1786.61
-1804.35
-1820.56
-1835.41
-1849.38
-1863.46
-1879.08
-1896.8
-1910.28
-1890.6
-1870.49
-1854.43
-1570.36
-1603.24
-1633.89
-1662.6
-1689.53
-1714.7
-1738.06
-1759.53
-1778.28
-1789.37
-1773.48
-1752.73
-1152.07
-1189.26
-1224.78
-1258.61
-1290.51
-1319.93
-1346.21
-1368.5
-1385.53
-1393.66
-1385.83
-1366.87
-381.144
-412.699
-445.686
-480.161
-516.133
-553.296
-590.693
-626.176
-655.911
-673.617
-673.541
-658.398
)
;

boundaryField
{
    top
    {
        type            fixedValue;
        value           uniform 0;
    }
    bottom
    {
        type            fixedFluxPressure;
        gradient        uniform 0;
        value           nonuniform List<scalar> 
13
(
-1803.81
-1813.09
-1822.14
-1831.86
-1843.34
-1857.44
-1873.61
-1890.25
-1903.65
-1907.08
-1895.36
-1876.7
-1855.92
)
;
    }
    frontAndBack
    {
        type            empty;
    }
    left_cyc
    {
        type            cyclic;
    }
    right_cyc
    {
        type            cyclic;
    }
    procBoundary0to1
    {
        type            processor;
        value           nonuniform List<scalar> 
16
(
-1836.2
-1805.64
-1765.28
-1735.44
-1723.29
-1724.97
-1736.34
-1759.77
-1791.25
-1824.93
-1850.69
-1841.14
-1731.51
-1731.51
-1346.47
-636.999
)
;
    }
    procBoundary0to3throughleft_cyc
    {
        type            processorCyclic;
        value           nonuniform List<scalar> 
15
(
-1793.8
-1763.97
-1725.48
-1702.39
-1704.18
-1723.33
-1750.29
-1779.72
-1806.83
-1825.17
-1818.01
-1746.1
-1535.07
-1113.11
-351.095
)
;
    }
}


// ************************************************************************* //
