/*--------------------------------*- C++ -*----------------------------------*\
| =========                 |                                                 |
| \\      /  F ield         | OpenFOAM: The Open Source CFD Toolbox           |
|  \\    /   O peration     | Version:  2.3.0                                 |
|   \\  /    A nd           | Web:      www.OpenFOAM.org                      |
|    \\/     M anipulation  |                                                 |
\*---------------------------------------------------------------------------*/
FoamFile
{
    version     2.0;
    format      ascii;
    class       surfaceScalarField;
    location    "2000";
    object      phi;
}
// * * * * * * * * * * * * * * * * * * * * * * * * * * * * * * * * * * * * * //

dimensions      [0 3 -1 0 0 0 0];

internalField   nonuniform List<scalar> 
356
(
0.300329
0.00363654
0.304105
-0.00377659
0.316256
-0.012151
0.334876
-0.0186199
0.352545
-0.017669
0.354232
-0.00168678
0.318021
0.0362113
0.220376
0.0976442
0.0523829
0.167994
-0.149053
0.201436
-0.3083
0.159247
-0.401094
0.0927938
0.0339356
0.531793
-0.00101553
0.542866
-0.0148504
0.559541
-0.0288259
0.577465
-0.0365439
0.586373
-0.0265775
0.56786
0.016826
0.494447
0.109625
0.33639
0.255701
0.0824585
0.421924
-0.216523
0.500417
-0.45938
0.402105
-0.610446
0.243861
0.104319
0.558569
-0.0111218
0.571135
-0.0274162
0.584275
-0.0419661
0.593401
-0.0456699
0.589754
-0.0229303
0.558551
0.0480288
0.478142
0.190035
0.323993
0.409851
0.0856995
0.660218
-0.19385
0.779966
-0.426626
0.634881
-0.578438
0.395674
0.185189
0.490798
-0.0202294
0.498866
-0.0354834
0.503681
-0.046782
0.501386
-0.0433746
0.485788
-0.00733189
0.447469
0.0863477
0.373735
0.263768
0.250286
0.5333
0.0713752
0.839129
-0.136473
0.987815
-0.317335
0.815742
-0.444559
0.522898
0.263279
0.374515
-0.0244993
0.375345
-0.0363132
0.370793
-0.0422298
0.358215
-0.0307961
0.334184
0.0166989
0.294663
0.12587
0.235402
0.323029
0.15288
0.615822
0.0477814
0.944227
-0.0705569
1.10615
-0.183355
0.92854
-0.274086
0.613629
0.329369
0.227322
-0.0230019
0.221231
-0.0302225
0.209261
-0.0302595
0.190165
-0.0117004
0.163201
0.0436631
0.128838
0.160232
0.0896811
0.362186
0.0514092
0.654094
0.0205062
0.97513
-0.00845027
1.13511
-0.0494699
0.96956
-0.0975291
0.661688
0.375732
0.0628543
-0.016824
0.0520374
-0.0194057
0.0360695
-0.0142917
0.0150481
0.00932095
-0.00945943
0.0681707
-0.0334533
0.184226
-0.0488899
0.377623
-0.0432593
0.648463
-0.00680066
0.938671
0.0438138
1.08449
0.0710781
0.942296
0.0681382
0.664628
0.397073
-0.103782
-0.00817617
-0.116591
-0.00659669
-0.133338
0.00245523
-0.152623
0.0286067
-0.170909
0.0864568
-0.181092
0.194408
-0.171012
0.367543
-0.124502
0.601954
-0.0318636
0.846033
0.083121
0.96951
0.169775
0.855641
0.211175
0.623229
0.390371
-0.257357
0.000684198
-0.26991
0.00595656
-0.285195
0.0177405
-0.300521
0.0439322
-0.310417
0.0963534
-0.30515
0.189141
-0.270154
0.332547
-0.188728
0.520528
-0.0536338
0.710938
0.108152
0.807724
0.241195
0.722598
0.3219
0.542524
0.3556
-0.382484
0.00837076
-0.393403
0.0168751
-0.405891
0.0302293
-0.416133
0.0541743
-0.417023
0.0972434
-0.397149
0.169266
-0.341241
0.276639
-0.234156
0.413443
-0.0720368
0.548819
0.117815
0.617872
0.281135
0.559279
0.391256
0.432402
0.297123
-0.461915
0.0148489
-0.470717
0.0256772
-0.479767
0.0392791
-0.48468
0.0590868
-0.477702
0.0902658
-0.447113
0.138677
-0.378391
0.207918
-0.258838
0.293889
-0.0875647
0.377545
0.10979
0.420518
0.2839
0.385168
0.408355
0.307948
0.224411
-0.476631
0.0209615
-0.483057
0.0321032
-0.488018
0.0442401
-0.487719
0.0587884
-0.475381
0.0779273
-0.440817
0.104112
-0.371721
0.138823
-0.258042
0.18021
-0.100372
0.219876
0.0793953
0.24075
0.239631
0.224933
0.357693
0.189885
-0.418277
0.0260869
-0.420521
0.0343469
-0.419143
0.0428617
-0.412222
0.0518675
-0.395894
0.0616
-0.363986
0.0722039
-0.308753
0.0835894
-0.2237
0.0951567
-0.109202
0.105378
0.0203977
0.11115
0.136378
0.108953
0.101935
-0.357702
0.0182461
-0.345585
0.0222305
-0.329074
0.026351
-0.307872
0.0306649
-0.281449
0.0351767
-0.249034
0.0397897
-0.209702
0.0442571
-0.162703
0.0481575
-0.108299
0.0509738
-0.0494676
0.0523191
0.00739463
0.0520906
0.0503441
-0.34598
-0.332904
-0.315457
-0.293326
-0.266173
-0.233739
-0.196003
-0.153403
-0.106994
-0.0584432
-0.00970814
)
;

boundaryField
{
    top
    {
        type            calculated;
        value           nonuniform List<scalar> 
12
(
0.00928686
0.00915413
0.00890473
0.00853373
0.00802388
0.00735542
0.00652161
0.00555663
0.0045649
0.00376857
0.00335554
0.00322773
)
;
    }
    bottom
    {
        type            calculated;
        value           uniform 0;
    }
    frontAndBack
    {
        type            empty;
        value           nonuniform 0();
    }
    left_cyc
    {
        type            cyclic;
        value           nonuniform 0();
    }
    right_cyc
    {
        type            cyclic;
        value           nonuniform 0();
    }
    procBoundary0to1
    {
        type            processor;
        value           nonuniform List<scalar> 
16
(
-0.43503
-0.68083
-0.659308
-0.52265
-0.340176
-0.143892
0.0467965
0.217877
0.356671
0.449733
0.481066
0.430444
0.15166
0.224328
0.058986
0.0374082
)
;
    }
    procBoundary0to3throughleft_cyc
    {
        type            processorCyclic;
        value           nonuniform List<scalar> 
15
(
-0.303965
-0.527141
-0.548463
-0.481691
-0.370246
-0.22882
-0.0690323
0.0951342
0.248497
0.374798
0.455437
0.470518
0.413152
0.365543
0.354939
)
;
    }
}


// ************************************************************************* //
