/*--------------------------------*- C++ -*----------------------------------*\
| =========                 |                                                 |
| \\      /  F ield         | OpenFOAM: The Open Source CFD Toolbox           |
|  \\    /   O peration     | Version:  2.3.0                                 |
|   \\  /    A nd           | Web:      www.OpenFOAM.org                      |
|    \\/     M anipulation  |                                                 |
\*---------------------------------------------------------------------------*/
FoamFile
{
    version     2.0;
    format      ascii;
    class       volScalarField;
    location    "12000";
    object      NUEff;
}
// * * * * * * * * * * * * * * * * * * * * * * * * * * * * * * * * * * * * * //

dimensions      [0 2 -1 0 0 0 0];

internalField   nonuniform List<scalar> 
3060
(
0.187354
0.18673
0.185621
0.184106
0.182279
0.180242
0.178102
0.17596
0.173899
0.171987
0.170256
0.168605
0.167005
0.165456
0.163958
0.162497
0.161072
0.159691
0.158373
0.157141
0.156021
0.155038
0.154218
0.15359
0.15318
0.153018
0.153119
0.153473
0.154054
0.154834
0.155785
0.156881
0.158098
0.159409
0.16079
0.162222
0.163694
0.165208
0.166772
0.168382
0.170034
0.171758
0.173653
0.175661
0.177729
0.179775
0.181702
0.183404
0.184781
0.185743
0.186215
0.186142
0.185535
0.184457
0.182985
0.181214
0.179246
0.177184
0.175125
0.173144
0.171295
0.169595
0.167955
0.166354
0.164805
0.163303
0.16184
0.16042
0.159055
0.157767
0.15658
0.155519
0.154611
0.153881
0.153357
0.153067
0.153036
0.153266
0.153736
0.154418
0.155283
0.156304
0.157457
0.158714
0.160051
0.161446
0.162881
0.164352
0.165863
0.167426
0.169039
0.170707
0.172471
0.174435
0.176525
0.178676
0.180799
0.18279
0.184545
0.18596
0.186947
0.187431
0.853151
0.848323
0.838867
0.82382
0.801514
0.76944
0.724386
0.663652
0.588298
0.506159
0.428951
0.365841
0.317441
0.281419
0.254374
0.233438
0.21691
0.203708
0.193118
0.184642
0.177897
0.1726
0.168558
0.165655
0.163845
0.163137
0.163577
0.165132
0.167782
0.171562
0.176576
0.183003
0.191116
0.20129
0.214014
0.229985
0.250259
0.276503
0.311559
0.35867
0.420116
0.495416
0.576159
0.651587
0.71322
0.759296
0.792151
0.814895
0.830026
0.839202
0.843345
0.842716
0.837306
0.826687
0.809754
0.784634
0.74862
0.698593
0.632896
0.554963
0.474569
0.402506
0.344979
0.301227
0.268888
0.244423
0.225409
0.210378
0.198383
0.188795
0.181158
0.175126
0.170452
0.166977
0.164616
0.163352
0.163215
0.164217
0.166315
0.169512
0.173872
0.179529
0.1867
0.195696
0.206924
0.220929
0.238511
0.260885
0.289983
0.329013
0.381103
0.448276
0.528132
0.609465
0.681392
0.737825
0.779103
0.808286
0.828453
0.841881
0.850038
0.853721
0.962018
0.961331
0.960034
0.958089
0.955426
0.951943
0.947493
0.94187
0.934756
0.925617
0.913527
0.896875
0.872598
0.834392
0.771626
0.665355
0.515488
0.381937
0.298892
0.250832
0.221693
0.203076
0.190853
0.182945
0.178324
0.176569
0.177655
0.18158
0.188662
0.199775
0.216722
0.243088
0.286176
0.36053
0.484925
0.638833
0.756164
0.825944
0.867691
0.893745
0.911336
0.923933
0.93335
0.940619
0.946322
0.950804
0.954285
0.956917
0.958802
0.96001
0.960573
0.960487
0.959756
0.958376
0.956302
0.95346
0.949733
0.944956
0.938883
0.931118
0.920989
0.907304
0.887931
0.858734
0.811096
0.730546
0.599525
0.446995
0.33673
0.272546
0.23491
0.211533
0.196376
0.186453
0.180261
0.177097
0.176761
0.179257
0.184685
0.193601
0.207253
0.228128
0.261196
0.316589
0.41233
0.55672
0.698769
0.791734
0.846477
0.880048
0.901873
0.917097
0.928286
0.936817
0.943495
0.948781
0.952956
0.95621
0.958673
0.96044
0.961572
0.9621
0.980015
0.979699
0.979108
0.978234
0.977062
0.975566
0.97371
0.971441
0.968679
0.965298
0.961095
0.955743
0.948709
0.939075
0.925227
0.904141
0.868969
0.803133
0.670454
0.47298
0.332796
0.263584
0.228072
0.208621
0.198335
0.194602
0.196893
0.205485
0.222395
0.253219
0.312315
0.433474
0.629504
0.782137
0.858833
0.89867
0.921964
0.936977
0.947268
0.954693
0.960282
0.96463
0.968097
0.970906
0.973197
0.975058
0.976544
0.977695
0.978535
0.979081
0.979337
0.979298
0.978966
0.978344
0.977424
0.976189
0.974609
0.972642
0.970225
0.967259
0.963587
0.958955
0.952953
0.944891
0.933529
0.916828
0.890288
0.843503
0.750899
0.576104
0.392928
0.292548
0.243186
0.216912
0.20254
0.195711
0.195008
0.200355
0.212691
0.235443
0.277442
0.361123
0.524448
0.71439
0.825161
0.880293
0.910699
0.929414
0.94195
0.950778
0.957298
0.962305
0.966265
0.969466
0.972088
0.974241
0.975997
0.977404
0.978495
0.979292
0.97981
0.980053
0.986973
0.986771
0.986393
0.985839
0.985101
0.984168
0.983022
0.981637
0.979972
0.977965
0.975519
0.972488
0.968643
0.963621
0.956815
0.947226
0.932923
0.909882
0.868549
0.783424
0.605166
0.401787
0.296062
0.248648
0.226819
0.219402
0.223904
0.241718
0.281278
0.368719
0.552753
0.752786
0.854948
0.90305
0.92904
0.944813
0.955216
0.962505
0.967828
0.971865
0.975022
0.977548
0.979606
0.9813
0.982699
0.983848
0.984774
0.985497
0.98603
0.986377
0.986541
0.986516
0.986304
0.985908
0.985327
0.984552
0.98357
0.982359
0.980887
0.979106
0.976937
0.974264
0.970905
0.966574
0.960809
0.952844
0.941313
0.923489
0.893316
0.835387
0.709595
0.494516
0.338302
0.267776
0.235447
0.221567
0.220198
0.230939
0.25789
0.316163
0.446682
0.662377
0.812794
0.882217
0.917196
0.937328
0.950112
0.958827
0.965089
0.969757
0.973359
0.976217
0.978535
0.980444
0.98203
0.983348
0.984435
0.985315
0.986004
0.986511
0.986842
0.986998
0.990466
0.990312
0.990026
0.989608
0.989055
0.988359
0.987511
0.986491
0.985275
0.983821
0.982068
0.979925
0.977255
0.973841
0.969342
0.96321
0.954504
0.941447
0.920348
0.882469
0.804257
0.634559
0.424327
0.313881
0.268736
0.254551
0.263057
0.298926
0.388699
0.580683
0.774952
0.869534
0.913813
0.937714
0.952179
0.961669
0.968269
0.973065
0.976671
0.979471
0.981701
0.983512
0.985005
0.986245
0.987276
0.988128
0.988819
0.989362
0.989763
0.990026
0.99015
0.990131
0.98997
0.989671
0.989234
0.988653
0.987921
0.987025
0.985942
0.984641
0.983073
0.981163
0.978801
0.975816
0.971942
0.966744
0.959516
0.94898
0.932619
0.90486
0.851519
0.734345
0.520859
0.356893
0.285915
0.25861
0.256048
0.276871
0.334383
0.471834
0.6904
0.831312
0.894992
0.927047
0.945473
0.957132
0.965031
0.970661
0.974831
0.978022
0.980537
0.982565
0.984232
0.985618
0.98678
0.987752
0.988558
0.989215
0.989732
0.990115
0.990366
0.990484
0.992447
0.992317
0.992075
0.991722
0.991257
0.990677
0.989972
0.989132
0.988137
0.986956
0.985545
0.983838
0.981734
0.97908
0.975634
0.971023
0.964645
0.955431
0.941338
0.918031
0.875077
0.784961
0.603591
0.418572
0.331849
0.305812
0.321256
0.389437
0.551722
0.750841
0.859764
0.910451
0.937094
0.95283
0.962944
0.969856
0.974801
0.978466
0.981267
0.983473
0.98525
0.986709
0.987923
0.988939
0.98979
0.990498
0.991076
0.991532
0.99187
0.992092
0.992197
0.992181
0.992046
0.991793
0.991424
0.990937
0.990326
0.989583
0.98869
0.987626
0.986354
0.98482
0.982943
0.980601
0.977605
0.973651
0.968271
0.960668
0.949383
0.931476
0.900316
0.838899
0.705724
0.498597
0.364339
0.313128
0.308516
0.347171
0.457715
0.65984
0.816073
0.889392
0.925491
0.945714
0.958229
0.966549
0.972382
0.976639
0.979846
0.982336
0.984323
0.985944
0.987288
0.988417
0.989369
0.990172
0.990842
0.991392
0.991826
0.99215
0.992362
0.992462
0.993652
0.993532
0.99331
0.992987
0.992563
0.992036
0.991402
0.990651
0.989769
0.988733
0.987506
0.986035
0.98424
0.981998
0.979115
0.975305
0.970119
0.962798
0.951962
0.934899
0.905709
0.850196
0.736374
0.555733
0.424282
0.380901
0.406618
0.514727
0.696203
0.829845
0.895771
0.929502
0.948743
0.960739
0.968733
0.974334
0.978413
0.981476
0.983843
0.985725
0.987257
0.988528
0.989594
0.990495
0.991257
0.991895
0.992419
0.992835
0.993145
0.993349
0.993446
0.993431
0.993306
0.993074
0.992737
0.992293
0.99174
0.991071
0.990275
0.989333
0.988217
0.986885
0.985271
0.983278
0.980756
0.977461
0.973042
0.966917
0.958069
0.944582
0.922493
0.882684
0.802854
0.648048
0.476651
0.393078
0.385421
0.449394
0.60443
0.774438
0.868817
0.915158
0.940252
0.955281
0.965
0.971657
0.976422
0.979953
0.982642
0.984752
0.986451
0.987851
0.989023
0.990016
0.990862
0.991581
0.992186
0.992685
0.993082
0.993379
0.993574
0.993666
0.994423
0.994306
0.994088
0.993773
0.993361
0.992852
0.992244
0.991531
0.990701
0.989735
0.988605
0.987263
0.985642
0.983634
0.981075
0.977726
0.973222
0.966963
0.957905
0.944106
0.921662
0.882105
0.807283
0.676784
0.540375
0.482949
0.517664
0.639627
0.780792
0.86827
0.914266
0.939819
0.955237
0.965208
0.972017
0.976872
0.980454
0.983172
0.985291
0.986992
0.988391
0.989562
0.990556
0.991405
0.99213
0.992741
0.993247
0.993651
0.993953
0.994152
0.994246
0.994232
0.99411
0.993884
0.993556
0.993125
0.992592
0.991952
0.991197
0.990312
0.989275
0.98805
0.986581
0.984785
0.982532
0.979615
0.975746
0.970459
0.962965
0.951847
0.934367
0.904783
0.850402
0.747869
0.601095
0.49963
0.48921
0.570721
0.716028
0.831958
0.894999
0.928779
0.948375
0.960653
0.968832
0.97455
0.978704
0.981816
0.984209
0.986102
0.987641
0.988922
0.990005
0.990933
0.99173
0.992415
0.992997
0.99348
0.993866
0.994155
0.994347
0.994437
0.99494
0.99482
0.994598
0.994276
0.993857
0.993342
0.992731
0.992019
0.9912
0.990257
0.989166
0.987887
0.986357
0.98448
0.982107
0.979031
0.974937
0.96932
0.96133
0.94946
0.930876
0.899993
0.846154
0.756558
0.650164
0.595458
0.629423
0.729817
0.827899
0.889633
0.924912
0.945828
0.958996
0.967752
0.973847
0.978252
0.981539
0.984059
0.98604
0.987646
0.988981
0.990112
0.991083
0.991921
0.992643
0.993257
0.993769
0.994179
0.994486
0.994689
0.994785
0.994771
0.994646
0.994416
0.994082
0.993645
0.993107
0.992465
0.991714
0.990844
0.989834
0.988655
0.987257
0.985565
0.983462
0.980766
0.977226
0.972444
0.965766
0.956064
0.941276
0.917413
0.876585
0.805487
0.70065
0.612147
0.601814
0.676212
0.78379
0.863424
0.909825
0.936676
0.953094
0.963736
0.970989
0.97614
0.979926
0.982791
0.985015
0.986789
0.988246
0.989471
0.99052
0.991428
0.992218
0.992902
0.993488
0.993978
0.994371
0.994667
0.994862
0.994954
0.995307
0.995181
0.994948
0.994609
0.994169
0.993631
0.992994
0.992259
0.991419
0.990464
0.989372
0.988106
0.98661
0.984794
0.98252
0.979602
0.975757
0.970542
0.963233
0.952605
0.936487
0.910981
0.869593
0.80591
0.731213
0.69013
0.715989
0.787411
0.856245
0.902746
0.931442
0.949405
0.961122
0.969099
0.974744
0.978876
0.981991
0.984404
0.986321
0.987892
0.989213
0.990345
0.991328
0.992186
0.992931
0.99357
0.994104
0.994533
0.994856
0.995069
0.995169
0.995154
0.995024
0.994782
0.994432
0.993975
0.993413
0.992747
0.991974
0.991085
0.990066
0.988889
0.98751
0.98586
0.98383
0.981256
0.977909
0.973438
0.967277
0.958486
0.945432
0.925186
0.892577
0.840189
0.767145
0.703001
0.695067
0.749911
0.824874
0.882511
0.918939
0.941451
0.95583
0.965421
0.972084
0.976882
0.980448
0.983173
0.98531
0.987031
0.98846
0.989676
0.990729
0.991652
0.992463
0.993172
0.993783
0.994296
0.994709
0.99502
0.995225
0.995322
0.995587
0.995453
0.995203
0.994841
0.99437
0.993795
0.993117
0.992337
0.991454
0.990458
0.989331
0.988042
0.986536
0.984729
0.982494
0.979656
0.975956
0.970994
0.96414
0.954367
0.939969
0.918152
0.884935
0.837714
0.785533
0.757162
0.775072
0.824645
0.874746
0.911368
0.935578
0.951479
0.96219
0.969642
0.974999
0.978969
0.981995
0.984367
0.986273
0.987853
0.989198
0.990365
0.991389
0.99229
0.993078
0.993757
0.994327
0.994785
0.995129
0.995356
0.995463
0.995447
0.995308
0.99505
0.994676
0.994189
0.993591
0.992884
0.992067
0.991135
0.990076
0.988867
0.987467
0.985812
0.983799
0.981278
0.978037
0.973754
0.967929
0.959758
0.947911
0.930183
0.903111
0.862711
0.81047
0.766104
0.760586
0.798452
0.851399
0.895044
0.924838
0.944349
0.957308
0.966179
0.972455
0.977034
0.980476
0.983133
0.985242
0.986958
0.988401
0.989643
0.990733
0.991698
0.992554
0.993307
0.993958
0.994506
0.994948
0.99528
0.9955
0.995603
0.995818
0.995674
0.995405
0.995015
0.994507
0.993885
0.993154
0.992315
0.991368
0.990308
0.98912
0.987774
0.986223
0.984385
0.982141
0.979328
0.9757
0.970895
0.964355
0.955211
0.942108
0.923042
0.895654
0.859473
0.822135
0.802592
0.814929
0.849982
0.887663
0.91734
0.938228
0.952573
0.962535
0.969617
0.97479
0.978674
0.981671
0.984048
0.985986
0.987612
0.989013
0.990242
0.99133
0.992294
0.99314
0.993871
0.994484
0.994978
0.995347
0.995591
0.995705
0.995688
0.99554
0.995263
0.994861
0.994336
0.993692
0.992931
0.992054
0.991059
0.989937
0.988667
0.987214
0.985516
0.983477
0.980957
0.977758
0.973582
0.967979
0.960252
0.949311
0.933479
0.910465
0.878348
0.839792
0.808751
0.80493
0.831192
0.869679
0.903798
0.928788
0.946049
0.95794
0.966289
0.972303
0.976753
0.980137
0.982781
0.984905
0.986657
0.988147
0.989448
0.9906
0.991629
0.992548
0.993359
0.994061
0.994653
0.99513
0.995488
0.995724
0.995835
0.996023
0.995869
0.99558
0.995159
0.99461
0.993937
0.993144
0.992234
0.991208
0.990065
0.988792
0.987365
0.985737
0.983834
0.981545
0.978712
0.975106
0.970394
0.964082
0.955436
0.943388
0.926516
0.90359
0.87527
0.847865
0.834085
0.842807
0.868239
0.897237
0.921684
0.939935
0.953017
0.962378
0.969183
0.974239
0.978091
0.981103
0.983525
0.985528
0.987231
0.988715
0.990029
0.991199
0.99224
0.993156
0.993946
0.994609
0.99514
0.995538
0.995799
0.995921
0.995903
0.995744
0.995447
0.995014
0.994448
0.993752
0.992929
0.991981
0.990907
0.989701
0.988347
0.986812
0.98504
0.98294
0.980383
0.977178
0.973052
0.967598
0.960213
0.950004
0.935705
0.91588
0.889882
0.860722
0.838445
0.835718
0.854377
0.883062
0.91026
0.931519
0.94697
0.957995
0.965937
0.971767
0.976148
0.979524
0.982195
0.98437
0.986191
0.987759
0.989143
0.99038
0.991492
0.992486
0.993366
0.994128
0.994769
0.995284
0.995669
0.995923
0.996042
0.996218
0.996053
0.995744
0.995293
0.994702
0.993976
0.993116
0.992128
0.991015
0.989774
0.988398
0.986866
0.985137
0.983141
0.980776
0.977889
0.974264
0.969604
0.963475
0.955265
0.944158
0.929213
0.909887
0.887385
0.866805
0.856832
0.863171
0.88209
0.904805
0.925126
0.94111
0.953059
0.961888
0.968463
0.973443
0.977302
0.980365
0.982862
0.984959
0.986764
0.988353
0.989769
0.991035
0.992163
0.993154
0.994007
0.99472
0.995291
0.995716
0.995995
0.996125
0.996106
0.995936
0.995619
0.995156
0.994548
0.993798
0.992909
0.991882
0.990719
0.989415
0.987958
0.986318
0.984446
0.982257
0.97963
0.976382
0.972266
0.96692
0.959826
0.950269
0.937342
0.920197
0.898917
0.876418
0.860006
0.858004
0.871605
0.893442
0.915401
0.933576
0.947421
0.957674
0.965264
0.970954
0.975305
0.978713
0.981443
0.983699
0.985616
0.987289
0.988777
0.990116
0.991322
0.992403
0.993357
0.994182
0.994873
0.995426
0.99584
0.996111
0.996238
0.996411
0.996236
0.995908
0.995428
0.994798
0.99402
0.993095
0.992028
0.990822
0.989476
0.987986
0.986332
0.984481
0.98237
0.979907
0.976949
0.973297
0.968679
0.962722
0.954932
0.944706
0.931467
0.915131
0.897092
0.88139
0.874026
0.878738
0.893071
0.911066
0.928032
0.94204
0.952943
0.961263
0.967618
0.972533
0.976408
0.979536
0.982128
0.984338
0.986265
0.987974
0.989503
0.990873
0.99209
0.993157
0.994073
0.994835
0.995442
0.995894
0.996189
0.996327
0.996306
0.996127
0.995791
0.995299
0.994651
0.993849
0.992894
0.991788
0.990531
0.989122
0.987548
0.985787
0.983794
0.981496
0.97878
0.975479
0.971364
0.966115
0.9593
0.950364
0.938683
0.923838
0.906314
0.888723
0.876393
0.874885
0.884993
0.901854
0.919708
0.935274
0.947675
0.957196
0.964448
0.970009
0.97434
0.977788
0.980598
0.982957
0.984992
0.986787
0.988396
0.989847
0.991156
0.992325
0.993355
0.994241
0.99498
0.995571
0.99601
0.996298
0.996432
0.996608
0.996424
0.996079
0.995574
0.994909
0.994085
0.993102
0.991963
0.990669
0.989221
0.987614
0.985834
0.983852
0.981617
0.979045
0.976006
0.972319
0.967745
0.96197
0.954609
0.94524
0.933562
0.919778
0.905272
0.893184
0.88768
0.891238
0.902219
0.91655
0.930711
0.942945
0.952848
0.960655
0.96678
0.971625
0.97552
0.978722
0.981419
0.98375
0.985805
0.987638
0.989281
0.990751
0.992052
0.993188
0.994159
0.994963
0.995603
0.996078
0.996387
0.996532
0.99651
0.996323
0.99597
0.995452
0.99477
0.993922
0.992908
0.991729
0.990384
0.988871
0.987181
0.985294
0.983173
0.980757
0.977943
0.974581
0.970464
0.965319
0.958794
0.950475
0.939968
0.92715
0.912706
0.898856
0.889475
0.888318
0.89592
0.909035
0.923575
0.936871
0.947928
0.956728
0.96363
0.969053
0.973366
0.976862
0.979763
0.982236
0.984398
0.986323
0.988056
0.989621
0.991028
0.992281
0.993379
0.99432
0.995102
0.995724
0.996186
0.996488
0.996629
0.996812
0.996621
0.996263
0.995739
0.995049
0.994189
0.993161
0.991962
0.990594
0.989054
0.98734
0.985441
0.983333
0.980977
0.9783
0.975184
0.971473
0.966962
0.9614
0.954499
0.945993
0.935782
0.924232
0.912601
0.90328
0.899148
0.901858
0.910306
0.921709
0.933465
0.944064
0.952981
0.960248
0.966112
0.970864
0.974766
0.978033
0.980829
0.983277
0.985454
0.987402
0.989147
0.990703
0.992076
0.993268
0.994281
0.995118
0.995782
0.996274
0.996594
0.996744
0.996722
0.996527
0.996162
0.995626
0.994917
0.994034
0.992974
0.991736
0.990316
0.988712
0.986915
0.984911
0.982668
0.98014
0.977234
0.973819
0.969716
0.9647
0.958496
0.950817
0.941447
0.930463
0.918608
0.907699
0.900524
0.899624
0.905364
0.915572
0.927364
0.938635
0.948404
0.956466
0.962985
0.968243
0.97252
0.976057
0.979044
0.981628
0.983914
0.985964
0.987813
0.98948
0.990974
0.992298
0.993451
0.994435
0.995249
0.995895
0.996375
0.996688
0.996834
0.997026
0.996831
0.996466
0.995932
0.995226
0.994346
0.993289
0.992051
0.990631
0.989024
0.987227
0.985232
0.983021
0.980566
0.977805
0.974638
0.970936
0.966532
0.961236
0.954852
0.94724
0.93844
0.928884
0.919649
0.912505
0.909417
0.911483
0.91796
0.926964
0.936614
0.945673
0.953591
0.960266
0.965814
0.970427
0.974301
0.977604
0.980474
0.983013
0.985286
0.987324
0.989147
0.990765
0.992186
0.993413
0.994453
0.995309
0.995985
0.996486
0.996813
0.996966
0.996943
0.996745
0.996372
0.995826
0.995103
0.9942
0.993112
0.991835
0.990363
0.988693
0.986815
0.984718
0.982379
0.979762
0.976791
0.973353
0.969304
0.964465
0.958639
0.951645
0.943405
0.934114
0.924486
0.915949
0.910475
0.909771
0.914086
0.921975
0.931437
0.940865
0.949372
0.956653
0.962732
0.967773
0.971974
0.975521
0.97857
0.981243
0.98363
0.985782
0.987724
0.98947
0.991027
0.992399
0.993588
0.994598
0.995431
0.996091
0.99658
0.996899
0.997049
0.99725
0.997055
0.99669
0.996155
0.995449
0.994566
0.993503
0.992254
0.990813
0.989175
0.987336
0.985287
0.983018
0.980512
0.977717
0.974554
0.970921
0.966697
0.961748
0.955961
0.949293
0.941868
0.934121
0.926916
0.921521
0.919247
0.920808
0.925715
0.932715
0.94049
0.948078
0.954965
0.960975
0.966126
0.970526
0.974305
0.977587
0.980477
0.983057
0.985379
0.987463
0.989323
0.990967
0.992404
0.99364
0.994683
0.995541
0.996217
0.996718
0.997045
0.997199
0.997176
0.996977
0.996604
0.996058
0.995335
0.99443
0.993337
0.992049
0.990559
0.98886
0.986943
0.984799
0.982411
0.979758
0.976774
0.973373
0.969445
0.964861
0.959493
0.95325
0.946152
0.93845
0.930768
0.924184
0.920055
0.919505
0.922705
0.928708
0.936162
0.943887
0.951137
0.957576
0.963133
0.967878
0.971934
0.975432
0.978489
0.981202
0.983644
0.985853
0.987845
0.989631
0.991215
0.992605
0.993804
0.994819
0.995654
0.996314
0.996804
0.997124
0.997274
0.997486
0.997294
0.996936
0.996412
0.99572
0.994856
0.993814
0.992586
0.991165
0.989545
0.987719
0.985681
0.983424
0.980941
0.978192
0.975119
0.971652
0.967709
0.963215
0.95812
0.952451
0.946373
0.940272
0.934801
0.930826
0.929191
0.930351
0.933988
0.939298
0.945394
0.951568
0.957384
0.962641
0.967291
0.971373
0.97496
0.978131
0.98096
0.983504
0.985804
0.98787
0.989709
0.991331
0.992745
0.993958
0.994979
0.995818
0.99648
0.99697
0.997291
0.997442
0.997419
0.997224
0.996859
0.996324
0.995616
0.994731
0.99366
0.992396
0.99093
0.989252
0.987355
0.985229
0.982867
0.980253
0.977342
0.974069
0.970361
0.966137
0.961329
0.955917
0.94998
0.943774
0.937807
0.93285
0.929799
0.929375
0.931691
0.936146
0.941859
0.948004
0.954
0.959526
0.96446
0.968803
0.972613
0.975969
0.97895
0.981625
0.984047
0.986245
0.988226
0.989997
0.991563
0.992931
0.994109
0.995104
0.995922
0.996568
0.997048
0.997362
0.997509
0.997732
0.997548
0.997204
0.996704
0.996043
0.99522
0.994226
0.993057
0.991702
0.990156
0.988411
0.986462
0.984306
0.981944
0.979348
0.97648
0.9733
0.969764
0.965841
0.961534
0.956907
0.952128
0.947505
0.943501
0.940673
0.939538
0.940376
0.942987
0.946877
0.951482
0.956315
0.961036
0.965455
0.969489
0.97313
0.976402
0.979347
0.982006
0.984415
0.986604
0.988573
0.990327
0.991872
0.993217
0.994371
0.995343
0.996142
0.996774
0.997242
0.99755
0.997695
0.997673
0.997485
0.997136
0.996625
0.99595
0.995107
0.994088
0.992885
0.991489
0.989891
0.988083
0.986058
0.983812
0.98134
0.97861
0.975583
0.972219
0.968477
0.964339
0.95983
0.955056
0.950245
0.945776
0.942168
0.939983
0.939665
0.941285
0.944476
0.948693
0.953394
0.958156
0.96271
0.966918
0.970737
0.974176
0.97727
0.980062
0.982595
0.984901
0.987002
0.988896
0.990587
0.992082
0.993386
0.994508
0.995456
0.996235
0.996853
0.997312
0.997613
0.997754
0.997988
0.997815
0.997494
0.997028
0.996416
0.995655
0.99474
0.993665
0.992423
0.991008
0.989414
0.987637
0.985678
0.983543
0.981215
0.978676
0.975908
0.972899
0.969652
0.966196
0.962609
0.959035
0.955699
0.9529
0.950975
0.950221
0.950803
0.9526
0.955328
0.958648
0.96225
0.965893
0.969421
0.972744
0.975826
0.97866
0.981256
0.983631
0.985801
0.987784
0.989575
0.991174
0.992586
0.993818
0.994878
0.995774
0.996512
0.997098
0.997534
0.997821
0.997957
0.997936
0.99776
0.997434
0.996959
0.996334
0.995556
0.994618
0.993514
0.992236
0.990776
0.989128
0.987288
0.985257
0.983034
0.980603
0.977946
0.975048
0.971901
0.968519
0.964951
0.9613
0.957746
0.95455
0.952035
0.950534
0.950304
0.951389
0.953575
0.956547
0.959971
0.963566
0.967129
0.970535
0.973721
0.976665
0.979372
0.981854
0.98413
0.986218
0.988129
0.989856
0.991402
0.992771
0.993967
0.994999
0.995873
0.996594
0.997167
0.997594
0.997876
0.998009
0.998251
0.998094
0.997803
0.997383
0.996835
0.996156
0.995344
0.994397
0.993308
0.992073
0.990691
0.989158
0.987479
0.985662
0.9837
0.981589
0.97933
0.976929
0.974407
0.971802
0.969186
0.966666
0.964389
0.962533
0.961285
0.960809
0.961194
0.962372
0.964189
0.966456
0.968991
0.97164
0.974288
0.976859
0.979308
0.981613
0.983763
0.985758
0.9876
0.989297
0.990839
0.992225
0.993455
0.994536
0.99547
0.996265
0.996923
0.997449
0.997842
0.998102
0.998225
0.998207
0.998047
0.997752
0.997324
0.996764
0.996071
0.99524
0.994268
0.993149
0.991879
0.990453
0.988871
0.987137
0.985254
0.983218
0.981027
0.978684
0.9762
0.973603
0.970946
0.968315
0.965834
0.963668
0.962002
0.961019
0.960861
0.961552
0.962977
0.964962
0.967319
0.969876
0.972498
0.975086
0.977579
0.979944
0.982164
0.984236
0.98616
0.987941
0.989581
0.991074
0.992417
0.993612
0.994663
0.995574
0.99635
0.996994
0.997508
0.997894
0.998149
0.99827
0.99852
0.998382
0.998129
0.997764
0.997292
0.996711
0.996024
0.995227
0.99432
0.993301
0.99217
0.990929
0.989581
0.988135
0.986592
0.984959
0.983244
0.981462
0.979638
0.977807
0.976023
0.974355
0.972891
0.971727
0.97096
0.970674
0.970916
0.971648
0.972793
0.974252
0.975928
0.977731
0.979587
0.981442
0.983254
0.984999
0.986658
0.988223
0.989687
0.991047
0.992296
0.993429
0.994446
0.995346
0.996132
0.996806
0.99737
0.997823
0.998164
0.998391
0.998499
0.998483
0.998343
0.998086
0.997715
0.997233
0.996641
0.995938
0.995122
0.994192
0.993146
0.991983
0.990704
0.989317
0.987826
0.986235
0.984552
0.982787
0.980961
0.979102
0.977254
0.975477
0.973848
0.972462
0.971417
0.970807
0.970704
0.971124
0.972003
0.973256
0.974783
0.976489
0.978291
0.980125
0.981941
0.983707
0.985402
0.987012
0.988529
0.98995
0.99127
0.992483
0.993584
0.994573
0.99545
0.996218
0.996877
0.997428
0.997872
0.998207
0.99843
0.998536
0.998792
0.998677
0.998466
0.998165
0.997777
0.997307
0.996754
0.996122
0.995412
0.994623
0.993759
0.992821
0.991815
0.990747
0.989624
0.988455
0.987251
0.986027
0.984805
0.983609
0.982475
0.981442
0.980557
0.979868
0.979422
0.979258
0.979401
0.979832
0.980513
0.981396
0.982434
0.983579
0.984789
0.986029
0.987271
0.988493
0.98968
0.990818
0.991899
0.992914
0.993857
0.994724
0.995511
0.996218
0.996843
0.997385
0.997842
0.998214
0.998496
0.998686
0.998776
0.998762
0.998646
0.998432
0.998125
0.997731
0.997251
0.996688
0.996041
0.995314
0.994505
0.993618
0.992656
0.991623
0.990527
0.989375
0.988177
0.986948
0.985704
0.984469
0.983273
0.982152
0.98115
0.980315
0.979696
0.979338
0.979275
0.979517
0.980031
0.980776
0.981705
0.982769
0.983923
0.985128
0.986353
0.987573
0.988769
0.989928
0.991037
0.992089
0.993077
0.993996
0.994841
0.995609
0.996299
0.99691
0.99744
0.997889
0.998254
0.998531
0.998717
0.998806
0.999066
0.998975
0.99881
0.998577
0.99828
0.997924
0.997511
0.997045
0.996529
0.995965
0.995356
0.994705
0.994016
0.993292
0.992541
0.991774
0.990998
0.990227
0.989473
0.988753
0.988085
0.98749
0.98699
0.986607
0.986362
0.986274
0.986353
0.986591
0.986971
0.987471
0.988069
0.988743
0.989471
0.990235
0.991017
0.991803
0.992582
0.993342
0.994074
0.99477
0.995426
0.996037
0.996601
0.997116
0.997577
0.997983
0.99833
0.998616
0.998835
0.998983
0.999054
0.999043
0.998951
0.998784
0.998548
0.998246
0.997883
0.997462
0.996986
0.996459
0.995882
0.995259
0.994592
0.993886
0.993146
0.99238
0.991598
0.990812
0.990033
0.989277
0.988561
0.987905
0.98733
0.98686
0.986516
0.986318
0.986283
0.986414
0.986697
0.987113
0.98764
0.988257
0.988941
0.989671
0.990431
0.991205
0.991979
0.992743
0.993487
0.994202
0.994882
0.995522
0.99612
0.996671
0.997174
0.997626
0.998024
0.998365
0.998646
0.998861
0.999007
0.999077
0.999338
0.999273
0.999157
0.998993
0.998788
0.998544
0.998266
0.997957
0.997621
0.99726
0.996877
0.996473
0.996051
0.995612
0.995164
0.994712
0.994265
0.993828
0.993409
0.993017
0.99266
0.992348
0.992089
0.991894
0.99177
0.991726
0.991766
0.991887
0.992081
0.99234
0.992654
0.993014
0.99341
0.993834
0.994277
0.994731
0.995188
0.995643
0.996088
0.996514
0.996921
0.997306
0.997668
0.998004
0.99831
0.998584
0.998823
0.999021
0.999175
0.999279
0.99933
0.999322
0.999257
0.999139
0.998973
0.998764
0.998516
0.998233
0.997919
0.997576
0.997208
0.996816
0.996404
0.995973
0.995525
0.995069
0.994612
0.99416
0.993721
0.993304
0.992916
0.992567
0.992267
0.992025
0.991849
0.991749
0.991731
0.991796
0.99194
0.992152
0.992426
0.992751
0.993119
0.993519
0.993943
0.994383
0.994832
0.995283
0.99573
0.996165
0.996582
0.996981
0.997359
0.997713
0.998042
0.998343
0.998612
0.998846
0.999041
0.999193
0.999296
0.999346
0.999607
0.999568
0.9995
0.999405
0.999287
0.999149
0.998995
0.998827
0.998647
0.998457
0.998259
0.998054
0.997841
0.997621
0.997399
0.997178
0.996963
0.996757
0.996562
0.996383
0.996222
0.996083
0.99597
0.995885
0.995831
0.995812
0.99583
0.995882
0.995967
0.99608
0.99622
0.996382
0.996563
0.99676
0.996969
0.997187
0.997411
0.997636
0.997859
0.998074
0.998281
0.998481
0.998672
0.998852
0.99902
0.999172
0.999307
0.999421
0.999511
0.999572
0.999602
0.999598
0.999559
0.99949
0.999393
0.999274
0.999134
0.998977
0.998806
0.998623
0.998429
0.998228
0.998018
0.997801
0.997577
0.997352
0.997129
0.996913
0.996707
0.996514
0.996338
0.996181
0.996048
0.995942
0.995866
0.995822
0.995814
0.995843
0.995905
0.995997
0.996118
0.996263
0.996429
0.996613
0.996811
0.99702
0.997236
0.997458
0.99768
0.997898
0.998109
0.998312
0.998508
0.998695
0.998873
0.999038
0.999188
0.999321
0.999433
0.999521
0.999582
0.999611
0.999869
0.999857
0.999835
0.999804
0.999767
0.999724
0.999677
0.999627
0.999575
0.999521
0.999465
0.999409
0.999351
0.999289
0.999226
0.999165
0.999106
0.99905
0.998998
0.99895
0.998908
0.998871
0.998842
0.99882
0.998807
0.998802
0.998806
0.99882
0.998841
0.998871
0.998907
0.99895
0.998998
0.99905
0.999107
0.999167
0.999229
0.999293
0.999356
0.999415
0.999472
0.999528
0.999582
0.999635
0.999685
0.999731
0.999773
0.999809
0.999838
0.999858
0.999868
0.999866
0.999854
0.999831
0.999801
0.999763
0.99972
0.999672
0.999621
0.999568
0.999513
0.999457
0.999399
0.999339
0.999276
0.999213
0.999151
0.999092
0.999036
0.998985
0.998938
0.998897
0.998862
0.998835
0.998816
0.998805
0.998803
0.99881
0.998826
0.998849
0.998881
0.998918
0.998962
0.999011
0.999064
0.999121
0.999181
0.999243
0.999305
0.999366
0.999424
0.99948
0.999535
0.999589
0.999641
0.99969
0.999736
0.999778
0.999813
0.999841
0.999861
0.999871
)
;

boundaryField
{
    top
    {
        type            calculated;
        value           uniform 1;
    }
    bottom
    {
        type            calculated;
        value           uniform 0.148957;
    }
    frontAndBack
    {
        type            empty;
    }
    left_cyc
    {
        type            cyclic;
    }
    right_cyc
    {
        type            cyclic;
    }
}


// ************************************************************************* //
