/*--------------------------------*- C++ -*----------------------------------*\
| =========                 |                                                 |
| \\      /  F ield         | OpenFOAM: The Open Source CFD Toolbox           |
|  \\    /   O peration     | Version:  2.3.0                                 |
|   \\  /    A nd           | Web:      www.OpenFOAM.org                      |
|    \\/     M anipulation  |                                                 |
\*---------------------------------------------------------------------------*/
FoamFile
{
    version     2.0;
    format      ascii;
    class       volScalarField;
    location    "12000";
    object      NUEff;
}
// * * * * * * * * * * * * * * * * * * * * * * * * * * * * * * * * * * * * * //

dimensions      [0 2 -1 0 0 0 0];

internalField   nonuniform List<scalar> 
3060
(
0.174972
0.174784
0.174442
0.173956
0.173341
0.172609
0.171774
0.170846
0.169836
0.16875
0.167596
0.166379
0.165112
0.163828
0.16256
0.161311
0.160082
0.158884
0.157733
0.15665
0.15566
0.154788
0.154062
0.153509
0.153157
0.153032
0.153145
0.153486
0.15403
0.15475
0.155617
0.156605
0.157687
0.158841
0.160043
0.161278
0.162535
0.163813
0.165109
0.166384
0.167607
0.168765
0.169851
0.170857
0.171777
0.172599
0.173311
0.173902
0.174358
0.174665
0.174812
0.17479
0.1746
0.174253
0.173761
0.173136
0.172394
0.171546
0.170603
0.169575
0.168469
0.167293
0.166055
0.16477
0.163478
0.162207
0.160955
0.159727
0.158534
0.157397
0.156337
0.155378
0.154547
0.15387
0.153376
0.153093
0.153042
0.153228
0.153635
0.154236
0.155004
0.155909
0.156925
0.158028
0.159194
0.160402
0.161636
0.162889
0.164162
0.165448
0.166703
0.167904
0.169042
0.170108
0.171098
0.172002
0.172811
0.173514
0.174096
0.174546
0.174849
0.174994
0.628812
0.621248
0.607107
0.586412
0.559325
0.526414
0.488903
0.448721
0.408203
0.36954
0.334299
0.303263
0.276578
0.254001
0.235436
0.220326
0.20784
0.197472
0.188877
0.181796
0.176028
0.171423
0.167878
0.165335
0.16378
0.163232
0.163726
0.165232
0.167727
0.171227
0.175789
0.181516
0.18856
0.197125
0.207474
0.219961
0.235105
0.253763
0.276443
0.303265
0.334448
0.369804
0.40848
0.448835
0.488623
0.525497
0.557559
0.583623
0.603139
0.615938
0.621957
0.621041
0.613244
0.598686
0.577434
0.549729
0.516266
0.478422
0.438253
0.398138
0.360203
0.325888
0.295851
0.270149
0.248492
0.230878
0.216485
0.204591
0.194733
0.186585
0.179901
0.17449
0.170214
0.16698
0.164743
0.163498
0.163275
0.16409
0.165905
0.168706
0.172521
0.177419
0.183514
0.190971
0.200003
0.210888
0.224001
0.239905
0.259544
0.283154
0.310968
0.343142
0.379388
0.418721
0.459381
0.499082
0.535548
0.567022
0.592468
0.611452
0.623872
0.629704
0.939989
0.939247
0.937843
0.935733
0.93283
0.928995
0.924009
0.917535
0.909046
0.897695
0.882064
0.85966
0.825878
0.772049
0.684055
0.557982
0.427664
0.333553
0.275136
0.238855
0.215405
0.199746
0.189191
0.182299
0.178323
0.176958
0.178188
0.182026
0.188763
0.199125
0.214522
0.23759
0.273283
0.330805
0.423881
0.554165
0.681694
0.771023
0.825487
0.859539
0.882048
0.897707
0.909044
0.917494
0.923914
0.928834
0.93259
0.935402
0.937406
0.938687
0.939282
0.939192
0.938419
0.936955
0.93475
0.931707
0.927672
0.9224
0.915511
0.906406
0.894111
0.876972
0.852033
0.813765
0.751889
0.651833
0.518305
0.395543
0.312971
0.262333
0.230606
0.209897
0.196005
0.186692
0.180762
0.17762
0.177066
0.179104
0.183798
0.191555
0.203268
0.220636
0.246823
0.28778
0.354208
0.459208
0.593651
0.711042
0.788769
0.836209
0.866387
0.886685
0.901011
0.911505
0.9194
0.925443
0.930101
0.933675
0.936359
0.938278
0.939505
0.940076
0.971608
0.971306
0.970739
0.969898
0.96876
0.967289
0.965432
0.963106
0.960193
0.956517
0.95181
0.945654
0.937366
0.925768
0.908683
0.881992
0.836279
0.749977
0.592927
0.416534
0.309311
0.254265
0.224419
0.207592
0.198713
0.195783
0.198416
0.206956
0.2233
0.252329
0.305782
0.410053
0.58498
0.745363
0.834164
0.880981
0.908174
0.92551
0.937233
0.945587
0.951775
0.956494
0.960169
0.963071
0.965378
0.967211
0.968651
0.969752
0.97055
0.971066
0.971308
0.971271
0.970958
0.97037
0.969495
0.968309
0.966773
0.964825
0.962376
0.959293
0.955376
0.950323
0.943652
0.934567
0.921671
0.902318
0.871282
0.816389
0.710821
0.535218
0.375815
0.288321
0.243049
0.21808
0.204086
0.197194
0.196013
0.200413
0.211091
0.230647
0.26546
0.330813
0.45732
0.640758
0.778407
0.850992
0.890318
0.913897
0.929223
0.939796
0.947438
0.953163
0.957567
0.961022
0.963767
0.96596
0.96771
0.969089
0.970146
0.970914
0.971411
0.971643
0.982459
0.982269
0.981913
0.981387
0.980681
0.979777
0.978648
0.977256
0.975545
0.973434
0.970805
0.967484
0.963201
0.957533
0.949777
0.938687
0.921875
0.894286
0.843841
0.740202
0.549406
0.375151
0.288121
0.247382
0.228372
0.222449
0.227756
0.245941
0.285168
0.368928
0.539102
0.733298
0.840775
0.892829
0.921109
0.938257
0.949528
0.957386
0.963113
0.96743
0.97077
0.973407
0.975519
0.977224
0.978606
0.97972
0.980606
0.981289
0.981788
0.982112
0.982264
0.982241
0.982044
0.981675
0.981129
0.980395
0.979452
0.978273
0.976813
0.97501
0.972775
0.969974
0.96641
0.961775
0.955577
0.946984
0.934488
0.915117
0.88234
0.819986
0.689953
0.485723
0.340389
0.271989
0.239658
0.225275
0.222908
0.231885
0.255333
0.304806
0.411311
0.605121
0.775218
0.860459
0.90302
0.927035
0.942013
0.952062
0.959183
0.964435
0.968433
0.971553
0.974032
0.976028
0.977649
0.978967
0.980034
0.980884
0.981542
0.982023
0.982335
0.982482
0.987701
0.987557
0.987286
0.986888
0.986355
0.985678
0.984839
0.983815
0.98257
0.981055
0.979197
0.976892
0.973985
0.970238
0.96528
0.958461
0.948688
0.933886
0.909721
0.865926
0.775997
0.59734
0.409144
0.313435
0.273418
0.261759
0.272168
0.310224
0.40186
0.586233
0.769463
0.863021
0.908296
0.933111
0.948234
0.958184
0.965106
0.970127
0.973912
0.976843
0.979162
0.981027
0.982544
0.983786
0.984804
0.985632
0.986296
0.986811
0.987189
0.987435
0.987551
0.987533
0.987383
0.987103
0.98669
0.986137
0.985432
0.984557
0.983485
0.982177
0.980577
0.978605
0.976144
0.973016
0.96895
0.963509
0.955934
0.944901
0.927832
0.899129
0.845009
0.730774
0.530419
0.370082
0.296674
0.26726
0.26265
0.280517
0.331249
0.449555
0.652374
0.806563
0.880307
0.917351
0.938423
0.951617
0.960469
0.966716
0.971316
0.974815
0.977546
0.979722
0.981482
0.98292
0.984103
0.985076
0.98587
0.986508
0.987005
0.987369
0.987607
0.987719
0.990648
0.990525
0.990295
0.989958
0.98951
0.988943
0.988245
0.9874
0.986382
0.985155
0.983669
0.981848
0.979582
0.976709
0.972975
0.967951
0.960964
0.950825
0.935258
0.909464
0.862121
0.765569
0.588545
0.422535
0.344013
0.321849
0.341583
0.416143
0.577853
0.758311
0.858751
0.907799
0.934346
0.950286
0.960629
0.967736
0.972834
0.976614
0.979518
0.981803
0.983636
0.985129
0.986358
0.987374
0.988215
0.988904
0.98946
0.989894
0.990214
0.990423
0.990521
0.990506
0.990379
0.990141
0.989792
0.989327
0.988737
0.98801
0.987127
0.986059
0.984767
0.983194
0.981254
0.978826
0.97572
0.971644
0.966104
0.958302
0.946793
0.928733
0.897907
0.8392
0.718118
0.527452
0.389419
0.332213
0.323524
0.357761
0.457127
0.64056
0.798047
0.877708
0.917648
0.940054
0.95388
0.963033
0.969419
0.974053
0.977532
0.980227
0.982362
0.984087
0.985499
0.986667
0.987637
0.988441
0.989103
0.989639
0.990057
0.990366
0.990567
0.990662
0.992446
0.992334
0.992124
0.991817
0.99141
0.990897
0.990272
0.989519
0.988621
0.987548
0.986262
0.984701
0.982782
0.980373
0.97728
0.973179
0.967585
0.95968
0.94799
0.929651
0.898593
0.841047
0.730224
0.567979
0.450379
0.413166
0.446316
0.559401
0.722213
0.836784
0.896446
0.928481
0.947303
0.959254
0.967309
0.972996
0.977157
0.980289
0.982723
0.984661
0.986233
0.987526
0.988601
0.989499
0.990247
0.990866
0.991368
0.991763
0.992054
0.992245
0.992335
0.992321
0.992205
0.991988
0.99167
0.991248
0.990716
0.990065
0.989279
0.988339
0.987211
0.985851
0.984194
0.98214
0.979544
0.976179
0.971679
0.965474
0.956587
0.943216
0.921765
0.884397
0.813375
0.681234
0.521702
0.430653
0.416009
0.472837
0.610533
0.765923
0.859939
0.90851
0.935344
0.951538
0.962038
0.969231
0.974373
0.978174
0.981062
0.983326
0.985141
0.986622
0.987848
0.988872
0.989729
0.990447
0.991042
0.991526
0.991907
0.992188
0.992373
0.99246
0.993603
0.993494
0.993292
0.992996
0.992606
0.992117
0.991523
0.990815
0.989976
0.988985
0.987807
0.986392
0.984668
0.982525
0.979797
0.976223
0.971418
0.964756
0.955156
0.940649
0.917413
0.877674
0.806825
0.693504
0.579796
0.534243
0.575047
0.686431
0.801694
0.87483
0.915841
0.939731
0.95459
0.964392
0.971177
0.97606
0.979686
0.982449
0.984616
0.986357
0.987783
0.988968
0.989963
0.990801
0.991506
0.992093
0.992573
0.992951
0.993232
0.993416
0.993502
0.993489
0.993377
0.993168
0.992862
0.992458
0.991951
0.991334
0.990596
0.989719
0.988679
0.987436
0.985936
0.984095
0.98179
0.978831
0.974922
0.969618
0.962178
0.951305
0.934585
0.907241
0.859568
0.775206
0.65348
0.556257
0.537903
0.604849
0.726318
0.829395
0.890342
0.924669
0.945085
0.95804
0.966729
0.972825
0.97726
0.980584
0.983136
0.985155
0.986789
0.988136
0.989261
0.99021
0.991012
0.991689
0.992255
0.992717
0.993083
0.993354
0.993532
0.993616
0.994378
0.994269
0.994066
0.993769
0.993378
0.992892
0.992304
0.991608
0.990791
0.989834
0.988708
0.987369
0.985752
0.983761
0.981246
0.977987
0.973661
0.967752
0.95941
0.947162
0.928356
0.898153
0.848561
0.773181
0.690855
0.652742
0.687057
0.768391
0.845099
0.896063
0.92711
0.946394
0.958919
0.967429
0.973443
0.977839
0.981145
0.983692
0.985707
0.987341
0.988692
0.989826
0.990787
0.991604
0.992297
0.992878
0.993355
0.993734
0.994015
0.994199
0.994286
0.994273
0.99416
0.993951
0.993644
0.99324
0.992736
0.992127
0.991403
0.99055
0.989548
0.988362
0.986944
0.985222
0.983084
0.980363
0.97681
0.972053
0.96549
0.956113
0.942155
0.920401
0.885046
0.827428
0.74567
0.671642
0.655955
0.710293
0.795104
0.863929
0.907546
0.934129
0.950863
0.961896
0.969492
0.974922
0.978929
0.981968
0.984327
0.986208
0.987744
0.989022
0.9901
0.991018
0.991802
0.992468
0.993029
0.99349
0.993856
0.994128
0.994307
0.994391
0.99492
0.994807
0.994597
0.99429
0.993887
0.993387
0.992787
0.99208
0.991257
0.990301
0.989187
0.987875
0.986307
0.984394
0.981999
0.978929
0.9749
0.969474
0.961947
0.951163
0.935183
0.910819
0.873608
0.821258
0.765848
0.739584
0.763276
0.818043
0.871124
0.909192
0.93415
0.950499
0.96151
0.969181
0.974702
0.978794
0.981908
0.984334
0.986271
0.987857
0.989181
0.990303
0.991263
0.992087
0.992791
0.993385
0.993875
0.994265
0.994555
0.994745
0.994835
0.994821
0.994705
0.994488
0.994172
0.993757
0.99324
0.992618
0.991884
0.991026
0.990027
0.988856
0.98747
0.985803
0.983754
0.981169
0.977832
0.973418
0.967419
0.959015
0.946844
0.928622
0.90069
0.858559
0.802774
0.752708
0.741828
0.779008
0.83615
0.884828
0.918239
0.940018
0.95439
0.964175
0.971063
0.97607
0.979813
0.982683
0.984935
0.986747
0.988241
0.989496
0.990566
0.991485
0.992276
0.992954
0.993528
0.994002
0.99438
0.994661
0.994846
0.994933
0.995317
0.995198
0.994976
0.994653
0.994229
0.993704
0.993076
0.992341
0.99149
0.990509
0.989377
0.988056
0.986494
0.984607
0.982268
0.979305
0.975462
0.970354
0.963387
0.953629
0.939622
0.919224
0.889985
0.851837
0.813866
0.796337
0.81216
0.849607
0.888127
0.917916
0.938746
0.953044
0.962994
0.970088
0.975281
0.979184
0.98219
0.984559
0.98647
0.98805
0.989384
0.990525
0.99151
0.992362
0.993094
0.993715
0.994229
0.994639
0.994944
0.995144
0.995239
0.995224
0.995102
0.994874
0.994542
0.994105
0.993563
0.992914
0.992151
0.991266
0.990243
0.989055
0.987664
0.986007
0.98399
0.981473
0.978262
0.974067
0.968446
0.960716
0.9498
0.934032
0.91107
0.878735
0.838995
0.805083
0.797825
0.822739
0.862405
0.898584
0.925322
0.943805
0.956523
0.965435
0.971843
0.976573
0.980155
0.982934
0.985139
0.986931
0.988423
0.98969
0.99078
0.991725
0.992544
0.993251
0.993852
0.99435
0.994748
0.995044
0.995239
0.995331
0.995625
0.995499
0.995263
0.99492
0.994468
0.99391
0.993243
0.992465
0.991568
0.990542
0.989367
0.988009
0.986419
0.984519
0.982191
0.979278
0.975546
0.970654
0.964093
0.955104
0.942589
0.925116
0.901456
0.872623
0.845683
0.83371
0.844532
0.871033
0.900032
0.924049
0.94184
0.954588
0.963739
0.970413
0.975384
0.979172
0.982127
0.984486
0.98641
0.988019
0.98939
0.990575
0.991605
0.992502
0.993276
0.993935
0.994481
0.994917
0.995241
0.995454
0.995554
0.995539
0.995409
0.995167
0.994813
0.994349
0.993773
0.993085
0.99228
0.99135
0.990281
0.989051
0.987624
0.985941
0.983916
0.98142
0.978273
0.974215
0.968857
0.961623
0.951656
0.937736
0.91839
0.892768
0.863376
0.839668
0.834714
0.851851
0.88041
0.908259
0.930251
0.946281
0.957746
0.966009
0.972072
0.97662
0.980109
0.98285
0.985053
0.986863
0.988385
0.989691
0.990825
0.991815
0.99268
0.993428
0.994067
0.994597
0.99502
0.995336
0.995543
0.99564
0.995882
0.995748
0.995496
0.995128
0.994646
0.994048
0.993335
0.992503
0.991549
0.990461
0.989223
0.987805
0.98616
0.984215
0.981865
0.978962
0.975292
0.970549
0.964302
0.955937
0.944634
0.929477
0.909992
0.887663
0.867967
0.859526
0.867175
0.886511
0.908892
0.928606
0.943997
0.955486
0.963989
0.970336
0.975151
0.978875
0.981819
0.984201
0.98617
0.987834
0.989266
0.990513
0.991605
0.992559
0.993385
0.994088
0.994672
0.995137
0.995484
0.995711
0.995817
0.995801
0.995663
0.995405
0.995027
0.994531
0.993916
0.993181
0.992322
0.991334
0.990203
0.988911
0.987424
0.985688
0.983623
0.981111
0.977987
0.974012
0.968845
0.962004
0.952808
0.940383
0.923857
0.903148
0.880826
0.863723
0.860224
0.87239
0.893554
0.915482
0.933859
0.947928
0.958374
0.966114
0.971917
0.976343
0.979787
0.982528
0.98476
0.986617
0.988196
0.989564
0.99076
0.991812
0.992733
0.993533
0.994216
0.994783
0.995236
0.995573
0.995794
0.995898
0.99611
0.995967
0.995699
0.995307
0.994791
0.994152
0.993388
0.992498
0.991477
0.990316
0.989
0.987503
0.985782
0.983771
0.981374
0.978454
0.974815
0.970181
0.9642
0.956383
0.946143
0.932943
0.916783
0.899233
0.884489
0.878359
0.883935
0.898395
0.915941
0.932243
0.945612
0.955999
0.963931
0.969999
0.974699
0.97839
0.981351
0.983779
0.985815
0.987555
0.989065
0.99039
0.991554
0.992573
0.993456
0.994208
0.994832
0.995328
0.995697
0.995938
0.996051
0.996034
0.995887
0.995613
0.995211
0.994681
0.994024
0.993238
0.99232
0.991264
0.99006
0.98869
0.987124
0.985315
0.983187
0.980635
0.977505
0.97358
0.968562
0.962059
0.953545
0.942419
0.928235
0.911348
0.894082
0.881412
0.87886
0.887746
0.903773
0.92125
0.9367
0.949091
0.958639
0.965922
0.971509
0.975851
0.97928
0.982047
0.984332
0.986258
0.987915
0.989361
0.990634
0.991757
0.992744
0.9936
0.994331
0.994938
0.995422
0.995781
0.996017
0.996126
0.996324
0.996173
0.995889
0.995473
0.994925
0.994245
0.993431
0.992481
0.99139
0.99015
0.988747
0.98716
0.985351
0.983259
0.980801
0.977849
0.974231
0.969711
0.963993
0.956703
0.947443
0.935953
0.922507
0.908589
0.897379
0.892838
0.896991
0.907982
0.921872
0.935404
0.947014
0.956388
0.963774
0.969569
0.974148
0.977815
0.980805
0.983295
0.985411
0.987239
0.988839
0.990248
0.991489
0.992576
0.993517
0.994318
0.99498
0.995506
0.995897
0.996152
0.99627
0.996252
0.996098
0.995808
0.995382
0.994821
0.994122
0.993285
0.992307
0.991181
0.989896
0.98844
0.986785
0.984889
0.982684
0.980078
0.97693
0.97305
0.968185
0.962013
0.954144
0.944196
0.932016
0.918173
0.904664
0.89511
0.893205
0.89982
0.912127
0.92616
0.939175
0.950077
0.958786
0.965626
0.970998
0.975255
0.978679
0.981487
0.983839
0.98585
0.987596
0.989132
0.99049
0.99169
0.992743
0.993657
0.994436
0.995082
0.995595
0.995976
0.996225
0.996341
0.996533
0.996375
0.996077
0.99564
0.995064
0.994347
0.993487
0.992481
0.991325
0.99001
0.988525
0.98685
0.98495
0.982778
0.980257
0.977277
0.973685
0.969286
0.963842
0.95708
0.948757
0.938807
0.927643
0.916578
0.907989
0.90459
0.907721
0.916149
0.92718
0.938393
0.948428
0.956839
0.963679
0.969189
0.973641
0.977277
0.980294
0.982844
0.98504
0.986957
0.988644
0.990134
0.991447
0.992597
0.993591
0.994435
0.995132
0.995684
0.996094
0.996361
0.996486
0.996467
0.996305
0.996001
0.995554
0.994964
0.994229
0.993346
0.992312
0.99112
0.989762
0.988223
0.98648
0.984496
0.982216
0.979556
0.976393
0.972564
0.967861
0.96203
0.954799
0.945956
0.93554
0.924197
0.913579
0.906302
0.904862
0.909837
0.919347
0.930628
0.941558
0.951096
0.958993
0.965384
0.970529
0.974695
0.97811
0.980957
0.983377
0.985472
0.987309
0.988932
0.990371
0.991643
0.992759
0.993726
0.994548
0.995228
0.995768
0.996168
0.99643
0.996551
0.996744
0.99658
0.996271
0.995819
0.995221
0.994476
0.993581
0.992531
0.991322
0.989945
0.988389
0.986637
0.98466
0.98242
0.979851
0.976859
0.973316
0.969066
0.963928
0.95772
0.950319
0.941788
0.932591
0.923828
0.917248
0.914697
0.917069
0.923538
0.93227
0.941497
0.950087
0.957555
0.963826
0.969019
0.973316
0.976899
0.979924
0.98252
0.984782
0.986773
0.988534
0.990092
0.991465
0.992665
0.993701
0.994578
0.995301
0.995873
0.996297
0.996574
0.996703
0.996684
0.996516
0.996201
0.995738
0.995127
0.994364
0.993446
0.992368
0.991124
0.989704
0.988095
0.986276
0.984218
0.981877
0.979179
0.976021
0.972268
0.967755
0.962297
0.95572
0.947939
0.939113
0.929877
0.921548
0.915995
0.914898
0.918648
0.92599
0.935014
0.944113
0.952373
0.959458
0.96537
0.970258
0.974306
0.977691
0.980561
0.983035
0.985202
0.987117
0.988816
0.990323
0.991655
0.992822
0.99383
0.994685
0.995392
0.995951
0.996366
0.996637
0.996764
0.996962
0.996794
0.996479
0.996018
0.995408
0.994647
0.993732
0.992657
0.991415
0.989998
0.988396
0.986592
0.984566
0.982288
0.979705
0.976738
0.973287
0.969235
0.964457
0.958846
0.95237
0.945171
0.937699
0.930836
0.925832
0.923931
0.925721
0.930654
0.937497
0.944988
0.95223
0.958756
0.964417
0.969241
0.973333
0.976818
0.979815
0.982422
0.984719
0.986756
0.988565
0.990166
0.991576
0.992806
0.993865
0.99476
0.995497
0.99608
0.996512
0.996795
0.996927
0.996907
0.996735
0.996414
0.995943
0.99532
0.994542
0.993605
0.992502
0.991225
0.989767
0.988113
0.986246
0.984144
0.981773
0.979072
0.975959
0.972327
0.968056
0.963021
0.957132
0.950394
0.943026
0.9356
0.929126
0.924912
0.924078
0.926887
0.932507
0.93964
0.947107
0.954146
0.960399
0.965785
0.970362
0.974244
0.977558
0.980416
0.982912
0.985121
0.987086
0.988835
0.990387
0.991757
0.992955
0.993987
0.994862
0.995582
0.996153
0.996576
0.996853
0.996982
0.997189
0.997021
0.996705
0.996243
0.995633
0.994873
0.993956
0.992879
0.991632
0.990208
0.988596
0.986783
0.984754
0.982488
0.979944
0.977062
0.97377
0.969987
0.965639
0.960681
0.955145
0.949206
0.943262
0.937984
0.934239
0.932842
0.934178
0.937885
0.943155
0.949116
0.955087
0.960662
0.965659
0.970044
0.97386
0.977181
0.980088
0.982651
0.984932
0.986969
0.988784
0.990391
0.991806
0.993038
0.994098
0.994993
0.995729
0.996312
0.996744
0.997026
0.997159
0.997139
0.996967
0.996646
0.996175
0.995552
0.994775
0.993838
0.992734
0.991454
0.98999
0.98833
0.986459
0.984359
0.98201
0.979363
0.976356
0.972913
0.968955
0.964412
0.959256
0.953553
0.947534
0.941678
0.93673
0.933576
0.932948
0.935021
0.939254
0.944785
0.950782
0.956644
0.962039
0.966836
0.97103
0.974677
0.977854
0.980641
0.983107
0.985309
0.987279
0.989038
0.990599
0.991976
0.993177
0.994212
0.995087
0.995808
0.996378
0.996802
0.997079
0.997209
0.997426
0.99726
0.996951
0.996498
0.995902
0.995159
0.994265
0.993213
0.991996
0.990605
0.989031
0.987265
0.985294
0.983109
0.980679
0.977963
0.974914
0.971488
0.967651
0.963405
0.958817
0.954063
0.949469
0.945515
0.94278
0.941778
0.942755
0.945478
0.949434
0.954045
0.958825
0.963444
0.967721
0.971587
0.97504
0.978112
0.980848
0.983293
0.985489
0.987464
0.989229
0.990796
0.992175
0.993377
0.99441
0.995283
0.996001
0.996571
0.996993
0.997271
0.997401
0.997381
0.997212
0.996897
0.996436
0.995828
0.99507
0.994156
0.99308
0.991832
0.990405
0.988788
0.986968
0.984936
0.982679
0.980162
0.977343
0.974176
0.970617
0.966641
0.962265
0.957581
0.952807
0.948314
0.944624
0.942316
0.941852
0.943347
0.946457
0.950631
0.955308
0.960044
0.964554
0.968696
0.972424
0.975748
0.978705
0.981342
0.983705
0.985832
0.987748
0.989463
0.990987
0.992331
0.993504
0.994514
0.995368
0.996072
0.996631
0.997046
0.997318
0.997446
0.997673
0.997514
0.997217
0.996785
0.996216
0.99551
0.994662
0.993666
0.992516
0.991204
0.989723
0.988066
0.986227
0.984202
0.981971
0.979512
0.976801
0.97382
0.970569
0.967076
0.963422
0.959761
0.956336
0.953475
0.951539
0.950843
0.951537
0.953476
0.956349
0.959792
0.963475
0.967154
0.970672
0.973947
0.976949
0.979678
0.982153
0.984394
0.986427
0.988268
0.989921
0.991393
0.992693
0.993827
0.994805
0.995632
0.996315
0.996858
0.997262
0.997527
0.997653
0.997634
0.997471
0.99717
0.99673
0.996151
0.995431
0.994565
0.993547
0.99237
0.991026
0.989507
0.987805
0.985913
0.983829
0.981529
0.978991
0.976191
0.973117
0.969774
0.966204
0.962505
0.958857
0.955529
0.952865
0.951226
0.950893
0.951937
0.954149
0.957193
0.960708
0.964387
0.96801
0.971446
0.974628
0.977537
0.98018
0.982578
0.984753
0.986728
0.988519
0.990129
0.991564
0.992833
0.993941
0.994898
0.995709
0.996379
0.996911
0.997308
0.997569
0.997692
0.99793
0.997781
0.997504
0.997102
0.996576
0.995924
0.995146
0.994235
0.993189
0.992001
0.990666
0.989181
0.987543
0.985754
0.983806
0.981687
0.979394
0.976928
0.974307
0.971571
0.968796
0.966103
0.963658
0.961669
0.960351
0.959885
0.96036
0.961691
0.963696
0.966158
0.968872
0.971667
0.974423
0.977063
0.979546
0.981854
0.983983
0.985941
0.987734
0.989372
0.990853
0.992179
0.993356
0.994388
0.995281
0.996041
0.99667
0.997173
0.997548
0.997796
0.997913
0.997895
0.997744
0.997462
0.997054
0.996518
0.995855
0.995061
0.994132
0.993063
0.991848
0.990481
0.98896
0.987281
0.985445
0.983444
0.981268
0.978914
0.976388
0.973712
0.970936
0.968149
0.965483
0.963119
0.96127
0.960149
0.959918
0.96062
0.962134
0.964263
0.966791
0.96952
0.972295
0.975006
0.97759
0.980012
0.982259
0.984333
0.98624
0.987988
0.989586
0.991031
0.992327
0.993477
0.994487
0.995362
0.996107
0.996726
0.997219
0.997588
0.997832
0.997948
0.998195
0.998059
0.997809
0.997447
0.996976
0.996397
0.995708
0.994909
0.993997
0.99297
0.991824
0.99056
0.989178
0.987684
0.986075
0.984353
0.982523
0.980598
0.978603
0.976576
0.97458
0.972697
0.971035
0.969713
0.968852
0.968553
0.968866
0.969741
0.971078
0.972758
0.974658
0.976671
0.978714
0.980724
0.982662
0.984503
0.986235
0.98785
0.989347
0.990729
0.99199
0.993128
0.994146
0.995046
0.995831
0.996502
0.997063
0.997513
0.997851
0.998075
0.998182
0.998166
0.998028
0.997774
0.997406
0.996927
0.996338
0.995637
0.994823
0.993892
0.992843
0.991673
0.990381
0.988968
0.98744
0.985794
0.984033
0.982165
0.980205
0.978181
0.976139
0.974146
0.972293
0.970691
0.969463
0.968727
0.968573
0.969027
0.970019
0.971442
0.973174
0.975096
0.977107
0.97913
0.98111
0.983012
0.984815
0.986508
0.988087
0.989552
0.990903
0.992136
0.993251
0.994247
0.995129
0.995899
0.996559
0.99711
0.997552
0.997885
0.998106
0.998211
0.998467
0.998348
0.998129
0.997816
0.997411
0.996917
0.996335
0.995665
0.994909
0.994066
0.993136
0.992121
0.991023
0.989849
0.988602
0.987289
0.98592
0.98451
0.983084
0.981672
0.980316
0.97907
0.977995
0.977157
0.97662
0.976436
0.976632
0.977182
0.978033
0.979122
0.980382
0.981751
0.983176
0.984615
0.986034
0.987413
0.988733
0.989986
0.991163
0.992261
0.993274
0.994199
0.995035
0.995782
0.99644
0.997009
0.997487
0.997875
0.998168
0.998363
0.998457
0.998442
0.998322
0.998101
0.997783
0.997371
0.996869
0.996277
0.995596
0.994826
0.993966
0.993018
0.991983
0.990864
0.989666
0.988395
0.987058
0.985667
0.98424
0.982801
0.981386
0.98004
0.978818
0.977785
0.977007
0.976546
0.976448
0.976728
0.97735
0.978256
0.979382
0.980663
0.982038
0.983457
0.984882
0.986283
0.987639
0.988936
0.990165
0.991319
0.992395
0.993388
0.994295
0.995116
0.995849
0.996496
0.997055
0.997526
0.997907
0.998196
0.998389
0.998481
0.998743
0.998644
0.998463
0.998204
0.997872
0.997472
0.997005
0.996475
0.995884
0.995233
0.994525
0.993762
0.992948
0.992086
0.991184
0.99025
0.989295
0.988332
0.987378
0.986456
0.98559
0.984811
0.984153
0.983648
0.983329
0.98322
0.983338
0.983667
0.984182
0.98485
0.985639
0.986514
0.987447
0.988409
0.989381
0.990343
0.991283
0.99219
0.993054
0.993869
0.994632
0.995337
0.995984
0.996569
0.997091
0.997547
0.997936
0.998253
0.998495
0.998658
0.998736
0.998724
0.998623
0.99844
0.998177
0.997841
0.997435
0.996961
0.996422
0.995821
0.995159
0.994438
0.993662
0.992833
0.991957
0.991041
0.990094
0.989127
0.988156
0.987199
0.986279
0.985423
0.984663
0.984031
0.983562
0.983286
0.983227
0.983393
0.983764
0.984312
0.985005
0.985809
0.986693
0.987626
0.988584
0.989547
0.990498
0.991424
0.992316
0.993166
0.993967
0.994716
0.99541
0.996045
0.99662
0.997134
0.997583
0.997966
0.998279
0.998518
0.998678
0.998755
0.999023
0.998945
0.998804
0.998604
0.99835
0.998047
0.997698
0.997308
0.996878
0.996413
0.995915
0.995385
0.994828
0.994245
0.993643
0.99303
0.992414
0.991805
0.991214
0.990654
0.990138
0.989683
0.989304
0.989018
0.988838
0.988778
0.988844
0.98903
0.989323
0.989708
0.99017
0.990692
0.991259
0.991857
0.992471
0.993092
0.99371
0.994316
0.994901
0.995461
0.99599
0.996488
0.996951
0.997377
0.997762
0.998104
0.998399
0.998642
0.99883
0.998957
0.999018
0.999009
0.99893
0.998786
0.998584
0.998327
0.998019
0.997666
0.99727
0.996834
0.996362
0.995855
0.995318
0.994752
0.99416
0.99355
0.99293
0.99231
0.991698
0.991108
0.990551
0.990043
0.989599
0.989237
0.988971
0.988815
0.988781
0.988874
0.989083
0.989395
0.989795
0.990268
0.990797
0.991367
0.991963
0.992575
0.993191
0.993802
0.994399
0.994976
0.995527
0.996048
0.996538
0.996994
0.997414
0.997794
0.998131
0.998421
0.998661
0.998847
0.998972
0.999032
0.999304
0.999249
0.999149
0.999008
0.998833
0.998625
0.99839
0.998131
0.997852
0.997553
0.997239
0.99691
0.996568
0.996214
0.995853
0.995491
0.995134
0.994787
0.994455
0.994147
0.993867
0.993624
0.993425
0.993275
0.993183
0.993152
0.993186
0.993282
0.993435
0.993639
0.993886
0.994169
0.994482
0.994817
0.995168
0.995529
0.995894
0.996257
0.996614
0.996957
0.997287
0.997601
0.997899
0.998177
0.998434
0.998665
0.998867
0.999036
0.999167
0.999257
0.999301
0.999294
0.999238
0.999137
0.998995
0.998817
0.998607
0.998369
0.998107
0.997823
0.997521
0.997202
0.996869
0.996522
0.996163
0.995798
0.995434
0.995075
0.994727
0.994398
0.994092
0.993817
0.993581
0.99339
0.993252
0.993171
0.993153
0.993201
0.993309
0.993472
0.993684
0.993937
0.994225
0.99454
0.994876
0.995226
0.995585
0.995947
0.996307
0.996658
0.996997
0.997322
0.997633
0.997927
0.998201
0.998454
0.998682
0.998882
0.999049
0.999179
0.999268
0.999311
0.999584
0.999551
0.999493
0.999411
0.99931
0.999193
0.999062
0.998921
0.99877
0.998613
0.99845
0.998282
0.99811
0.997931
0.997752
0.997575
0.997402
0.997237
0.997082
0.99694
0.996813
0.996704
0.996615
0.996549
0.996508
0.996494
0.99651
0.996552
0.99662
0.99671
0.996821
0.99695
0.997095
0.997252
0.997419
0.997593
0.997772
0.997953
0.998132
0.998306
0.998475
0.998638
0.998796
0.998946
0.999086
0.999215
0.99933
0.999427
0.999504
0.999556
0.999582
0.999578
0.999545
0.999486
0.999404
0.999302
0.999183
0.999051
0.998908
0.998755
0.998596
0.998431
0.998261
0.998086
0.997906
0.997725
0.997547
0.997374
0.99721
0.997056
0.996915
0.99679
0.996684
0.9966
0.996538
0.996503
0.996495
0.996516
0.996564
0.996636
0.99673
0.996845
0.996976
0.997122
0.99728
0.997447
0.997621
0.997799
0.997978
0.998155
0.998326
0.998493
0.998655
0.99881
0.998959
0.999098
0.999225
0.999338
0.999435
0.99951
0.999562
0.999588
0.999861
0.999851
0.999832
0.999806
0.999774
0.999738
0.999698
0.999656
0.999611
0.999566
0.99952
0.999474
0.999426
0.999377
0.999327
0.999279
0.999232
0.999189
0.999148
0.999111
0.999078
0.99905
0.999028
0.999011
0.999001
0.998997
0.999001
0.999012
0.999029
0.999052
0.99908
0.999113
0.999151
0.999192
0.999237
0.999284
0.999333
0.999383
0.999433
0.99948
0.999527
0.999573
0.999619
0.999663
0.999705
0.999745
0.99978
0.999811
0.999835
0.999852
0.999861
0.99986
0.999849
0.99983
0.999803
0.999771
0.999735
0.999694
0.999652
0.999607
0.999561
0.999515
0.999468
0.99942
0.99937
0.99932
0.999271
0.999225
0.999181
0.999141
0.999104
0.999072
0.999045
0.999024
0.999008
0.998999
0.998998
0.999003
0.999015
0.999033
0.999057
0.999086
0.99912
0.999158
0.9992
0.999244
0.999291
0.99934
0.99939
0.999439
0.999486
0.999532
0.999578
0.999623
0.999667
0.999709
0.999748
0.999783
0.999813
0.999838
0.999854
0.999863
)
;

boundaryField
{
    top
    {
        type            calculated;
        value           uniform 1;
    }
    bottom
    {
        type            calculated;
        value           uniform 0.148957;
    }
    frontAndBack
    {
        type            empty;
    }
    left_cyc
    {
        type            cyclic;
    }
    right_cyc
    {
        type            cyclic;
    }
}


// ************************************************************************* //
