/*--------------------------------*- C++ -*----------------------------------*\
| =========                 |                                                 |
| \\      /  F ield         | OpenFOAM: The Open Source CFD Toolbox           |
|  \\    /   O peration     | Version:  2.3.0                                 |
|   \\  /    A nd           | Web:      www.OpenFOAM.org                      |
|    \\/     M anipulation  |                                                 |
\*---------------------------------------------------------------------------*/
FoamFile
{
    version     2.0;
    format      ascii;
    class       volScalarField;
    location    "12000";
    object      p;
}
// * * * * * * * * * * * * * * * * * * * * * * * * * * * * * * * * * * * * * //

dimensions      [0 2 -2 0 0 0 0];

internalField   nonuniform List<scalar> 
765
(
-1662.31
-1671.15
-1679.81
-1688.98
-1699.57
-1712.53
-1728.39
-1746.52
-1764.81
-1779.41
-1784.47
-1775.35
-1759.02
-1740.37
-1722.78
-1707.8
-1695.67
-1685.63
-1676.7
-1668.03
-1659.01
-1649.26
-1638.59
-1626.84
-1613.8
-1599.14
-1582.33
-1562.46
-1538.05
-1506.88
-1465.39
-1409.56
-1342.75
-1265.18
-1173.12
-1110.23
-1125.64
-1206.71
-1295.55
-1367.7
-1431.85
-1481.99
-1519.14
-1547.49
-1570.01
-1588.63
-1604.59
-1618.62
-1631.17
-1642.52
-1652.84
-1497.14
-1505.64
-1514.4
-1523.75
-1534
-1545.39
-1557.8
-1570.7
-1582.53
-1591.15
-1594.18
-1588.77
-1578.92
-1566.46
-1553.56
-1541.43
-1530.39
-1520.44
-1511.31
-1502.65
-1494.15
-1485.51
-1476.47
-1466.88
-1456.56
-1445.33
-1432.93
-1418.96
-1402.8
-1383.98
-1361.16
-1332.65
-1299.36
-1274.47
-1281.43
-1282.48
-1282.85
-1277.09
-1280.28
-1312.32
-1343.82
-1369.94
-1391.1
-1408.87
-1424.15
-1437.48
-1449.42
-1460.3
-1470.34
-1479.72
-1488.59
-1359.47
-1366.53
-1374.01
-1381.97
-1390.42
-1399.31
-1408.42
-1417.03
-1423.91
-1428.15
-1429.62
-1427.01
-1421.94
-1414.31
-1405.41
-1396.33
-1387.56
-1379.26
-1371.45
-1364.11
-1357.15
-1350.5
-1343.99
-1337.51
-1330.98
-1324.36
-1317.69
-1310.99
-1304.32
-1297.83
-1284.71
-1268.34
-1248.25
-1212.85
-1204.32
-1203.23
-1203.65
-1205.21
-1224.14
-1257.34
-1273.23
-1290.78
-1300.1
-1306.55
-1313.26
-1319.97
-1326.63
-1333.22
-1339.73
-1346.21
-1352.74
-1236.94
-1241.93
-1247.22
-1252.72
-1258.37
-1264.07
-1269.6
-1274.19
-1276.99
-1277.91
-1278.15
-1277.73
-1276.34
-1272.88
-1267.89
-1262.25
-1256.55
-1250.94
-1245.49
-1240.29
-1235.42
-1230.89
-1226.72
-1222.87
-1219.27
-1215.88
-1212.61
-1209.35
-1205.87
-1201.94
-1187.35
-1161.76
-1139.46
-1130.03
-1123.05
-1117.64
-1119.04
-1125.6
-1133.03
-1143.15
-1171.93
-1194.76
-1203.33
-1206.96
-1210.35
-1213.6
-1216.91
-1220.38
-1224.06
-1228.01
-1232.3
-1118.01
-1120.83
-1123.75
-1126.7
-1129.63
-1132.51
-1135.13
-1136.89
-1137.17
-1136.18
-1135.62
-1136.58
-1137.32
-1136.53
-1134.42
-1131.66
-1128.75
-1125.81
-1122.87
-1119.98
-1117.22
-1114.68
-1112.39
-1110.33
-1108.43
-1106.53
-1104.38
-1101.71
-1098.14
-1093.91
-1084.1
-1063.29
-1030.56
-1022.75
-1022.96
-1021.62
-1022.05
-1022.98
-1024.51
-1038.17
-1072.45
-1089.32
-1095.38
-1099.4
-1102.59
-1105.03
-1107.05
-1108.93
-1110.87
-1113.01
-1115.39
-996.821
-997.811
-998.759
-999.637
-1000.45
-1001.16
-1001.6
-1001.39
-1000.12
-998.067
-997.075
-998.811
-1000.74
-1001.65
-1001.6
-1001.04
-1000.28
-999.453
-998.553
-997.592
-996.605
-995.646
-994.75
-993.907
-993.034
-991.966
-990.47
-988.291
-985.157
-981.267
-974.997
-962.2
-936.156
-931.809
-933.14
-932.692
-932.91
-932.397
-933.051
-943.822
-967.083
-978.073
-982.596
-986.285
-989.03
-990.925
-992.236
-993.21
-994.059
-994.918
-995.841
-871.267
-870.867
-870.362
-869.77
-869.092
-868.236
-867.081
-865.397
-863.016
-860.273
-859.088
-861.223
-863.962
-866.123
-867.606
-868.635
-869.412
-870.061
-870.63
-871.106
-871.475
-871.741
-871.918
-871.998
-871.93
-871.61
-870.895
-869.644
-867.752
-865.418
-862.09
-857.474
-847.619
-846.95
-846.526
-845.849
-846.096
-846.535
-847.813
-850.071
-858.46
-863.495
-866.16
-868.407
-870.056
-871.096
-871.652
-871.869
-871.877
-871.764
-871.562
-741.106
-739.709
-738.201
-736.587
-734.82
-732.785
-730.365
-727.455
-724.124
-720.934
-719.687
-721.989
-725.328
-728.558
-731.299
-733.562
-735.494
-737.203
-738.783
-740.258
-741.617
-742.843
-743.927
-744.86
-745.609
-746.13
-746.387
-746.373
-746.15
-745.984
-745.325
-748.61
-761.294
-765.922
-762.96
-761.213
-761.621
-764.751
-766.789
-754.222
-746.343
-745.7
-746.031
-746.224
-746.369
-746.277
-745.919
-745.311
-744.493
-743.506
-742.375
-606.986
-604.831
-602.549
-600.095
-597.383
-594.307
-590.756
-586.759
-582.626
-579.15
-577.877
-580.242
-584.019
-588.177
-592.04
-595.421
-598.365
-600.98
-603.37
-605.607
-607.725
-609.74
-611.665
-613.505
-615.244
-616.881
-618.474
-620.127
-622.055
-624.569
-626.878
-638.666
-675.091
-684.627
-679.368
-676.735
-677.32
-683.259
-686.278
-658.426
-633.456
-626.351
-623.824
-621.412
-619.572
-617.93
-616.32
-614.644
-612.865
-610.992
-609.036
-469.852
-466.943
-463.884
-460.577
-456.912
-452.777
-448.126
-443.12
-438.265
-434.529
-433.211
-435.629
-439.804
-444.798
-449.721
-454.207
-458.18
-461.716
-464.93
-467.929
-470.804
-473.631
-476.482
-479.419
-482.456
-485.622
-489.047
-492.904
-497.555
-503.361
-510.1
-533.152
-590.026
-600.189
-592.918
-590.709
-591.045
-596.87
-599.142
-563.135
-523.272
-507.497
-501.464
-495.944
-491.602
-487.894
-484.567
-481.448
-478.44
-475.529
-472.69
-331.366
-327.453
-323.379
-319.001
-314.18
-308.821
-302.947
-296.841
-291.166
-287.03
-285.602
-288.149
-292.856
-298.774
-304.856
-310.582
-315.766
-320.432
-324.698
-328.705
-332.594
-336.501
-340.589
-345.024
-349.847
-355.128
-361.092
-368.017
-376.471
-386.685
-399.477
-426.499
-492.08
-506.475
-502.118
-502.575
-502.245
-503.074
-504.452
-471.4
-415.749
-393.808
-383.107
-373.448
-365.651
-359.085
-353.387
-348.278
-343.585
-339.269
-335.255
-195.407
-189.975
-184.431
-178.581
-172.254
-165.351
-157.94
-150.399
-143.536
-138.629
-136.947
-139.841
-145.462
-152.662
-160.232
-167.512
-174.236
-180.401
-186.137
-191.626
-197.066
-202.657
-208.648
-215.285
-222.593
-230.63
-239.589
-249.288
-259.26
-267.497
-283.441
-319.031
-382.965
-402.466
-410.184
-415.353
-414.153
-407.382
-399.323
-362.993
-301.739
-276.082
-265.528
-256.107
-246.207
-236.668
-228.034
-220.262
-213.175
-206.758
-200.927
-68.12
-60.2389
-52.1336
-43.6411
-34.6314
-25.0609
-15.0806
-5.18286
3.66877
9.97934
12.1569
8.53484
1.30994
-8.01067
-18.0242
-27.9236
-37.3356
-46.184
-54.5491
-62.5749
-70.4321
-78.3351
-86.8063
-96.5168
-107.104
-117.672
-127.655
-135.301
-140.957
-143.869
-157.549
-209.986
-275.607
-311.237
-333.285
-343.737
-341.359
-326.334
-300.297
-254.274
-185.736
-147.266
-144.139
-138.946
-133.401
-124.685
-114.461
-103.867
-93.4655
-84.1699
-75.969
23.5115
33.1334
42.874
52.9326
63.5785
75.0539
87.4035
100.194
112.199
121.16
124.39
119.169
109.054
96.5781
83.7986
71.6688
60.4448
49.9925
40.0447
30.3425
20.7312
11.3217
2.38469
-5.51375
-11.6518
-15.1494
-15.9171
-15.4345
-20.0636
-35.1853
-65.9279
-118.193
-169.581
-202.25
-223.555
-233.558
-231.297
-217.035
-191.929
-153.205
-96.7226
-53.2264
-29.3285
-17.5224
-15.88
-16.1652
-14.5875
-10.1597
-3.36791
4.92053
14.0286
74.0006
69.2137
63.4631
56.7532
48.9522
39.8767
29.4475
17.9478
6.44793
-2.80524
-5.87564
-0.63741
9.77804
21.5357
32.833
42.8801
51.5604
59.0143
65.4263
70.893
75.3716
78.9232
82.4439
85.9847
86.3736
81.9631
71.8123
53.6514
22.0251
-29.3116
-103.889
-193.198
-282.204
-353.819
-404.416
-428.729
-423.256
-388.959
-330.274
-251.951
-160.018
-76.0795
-9.43138
34.5928
60.6432
75.7561
83.835
86.6714
85.03
81.2024
77.804
)
;

boundaryField
{
    top
    {
        type            calculated;
        value           uniform -9.81;
    }
    bottom
    {
        type            calculated;
        value           nonuniform List<scalar> 
51
(
-1753.32
-1762.29
-1770.84
-1779.78
-1790.19
-1803.27
-1819.72
-1838.5
-1857.67
-1873.44
-1879.17
-1868.97
-1851.53
-1832.08
-1813.84
-1798.42
-1786.3
-1776.49
-1767.77
-1759.15
-1749.89
-1739.71
-1728.48
-1716.04
-1702.16
-1686.45
-1668.34
-1646.84
-1620.4
-1586.74
-1542.25
-1482.74
-1412.54
-1332.45
-1238.63
-1174.97
-1190.58
-1272.75
-1363.64
-1438.59
-1506.46
-1560.01
-1599.96
-1630.64
-1655.04
-1675.16
-1692.31
-1707.31
-1720.64
-1732.63
-1743.47
)
;
    }
    frontAndBack
    {
        type            empty;
    }
    left_cyc
    {
        type            cyclic;
    }
    right_cyc
    {
        type            cyclic;
    }
}


// ************************************************************************* //
