/*--------------------------------*- C++ -*----------------------------------*\
| =========                 |                                                 |
| \\      /  F ield         | OpenFOAM: The Open Source CFD Toolbox           |
|  \\    /   O peration     | Version:  2.3.0                                 |
|   \\  /    A nd           | Web:      www.OpenFOAM.org                      |
|    \\/     M anipulation  |                                                 |
\*---------------------------------------------------------------------------*/
FoamFile
{
    version     2.0;
    format      ascii;
    class       volScalarField;
    location    "12000";
    object      p;
}
// * * * * * * * * * * * * * * * * * * * * * * * * * * * * * * * * * * * * * //

dimensions      [0 2 -2 0 0 0 0];

internalField   nonuniform List<scalar> 
3060
(
0
-3.06714e-05
-8.81548e-05
-0.000172015
-0.000281809
-0.000417189
-0.000577915
-0.000763691
-0.000973872
-0.00120713
-0.00146119
-0.00173267
-0.00201682
-0.00230733
-0.00259596
-0.00287299
-0.00312857
-0.00335376
-0.00354114
-0.00368743
-0.00379474
-0.00386794
-0.00391431
-0.00394141
-0.00395522
-0.00395937
-0.00395508
-0.00394123
-0.00391428
-0.00386832
-0.00379583
-0.00368942
-0.0035441
-0.00335762
-0.00313302
-0.00287767
-0.00260063
-0.00231195
-0.00202156
-0.00173782
-0.00146719
-0.00121449
-0.000983187
-0.000775566
-0.000592964
-0.000436028
-0.000305055
-0.000200289
-0.000122063
-7.07834e-05
-4.6831e-05
-5.04343e-05
-8.15527e-05
-0.000139908
-0.000225103
-0.000336741
-0.000474517
-0.000638195
-0.00082742
-0.00104139
-0.00127856
-0.00153633
-0.00181092
-0.00209708
-0.00238792
-0.00267453
-0.00294683
-0.00319497
-0.0034102
-0.00358599
-0.00372079
-0.00381772
-0.00388253
-0.00392283
-0.00394588
-0.003957
-0.00395906
-0.00395259
-0.00393576
-0.00390429
-0.00385165
-0.00377018
-0.00365304
-0.00349602
-0.00329821
-0.00306426
-0.00280217
-0.00252112
-0.00223109
-0.00194153
-0.00166015
-0.00139282
-0.00114392
-0.000916527
-0.000712638
-0.000533378
-0.000379268
-0.000250562
-0.000147522
-7.05256e-05
-2.0027e-05
3.56236e-06
-0.326611
-0.326637
-0.326686
-0.326758
-0.326853
-0.326971
-0.327113
-0.327276
-0.327462
-0.327667
-0.327889
-0.328126
-0.328371
-0.328619
-0.328862
-0.329097
-0.32932
-0.329524
-0.329698
-0.329833
-0.329931
-0.329998
-0.330042
-0.330068
-0.330081
-0.330085
-0.330081
-0.330068
-0.330042
-0.329999
-0.329932
-0.329835
-0.329701
-0.329529
-0.329325
-0.329102
-0.328868
-0.328625
-0.328378
-0.328133
-0.327897
-0.327676
-0.327473
-0.32729
-0.32713
-0.326992
-0.326878
-0.326787
-0.32672
-0.326676
-0.326656
-0.326659
-0.326686
-0.326735
-0.326809
-0.326905
-0.327026
-0.327169
-0.327336
-0.327524
-0.327732
-0.327958
-0.328196
-0.328442
-0.328689
-0.32893
-0.329161
-0.32938
-0.329577
-0.32974
-0.329864
-0.329952
-0.330012
-0.33005
-0.330072
-0.330083
-0.330085
-0.330079
-0.330062
-0.330032
-0.329983
-0.329909
-0.329801
-0.329656
-0.329473
-0.329263
-0.329036
-0.328799
-0.328554
-0.328306
-0.328063
-0.327829
-0.327611
-0.327411
-0.327231
-0.327073
-0.326938
-0.326826
-0.326737
-0.326671
-0.326628
-0.326608
-0.653309
-0.653335
-0.653383
-0.653452
-0.653543
-0.653654
-0.653783
-0.653928
-0.654087
-0.654258
-0.654439
-0.654629
-0.654826
-0.65503
-0.655238
-0.655444
-0.655635
-0.655798
-0.655932
-0.656041
-0.656125
-0.656181
-0.656214
-0.656233
-0.656242
-0.656245
-0.656242
-0.656233
-0.656214
-0.656181
-0.656127
-0.656044
-0.655935
-0.655803
-0.65564
-0.655451
-0.655246
-0.655039
-0.654836
-0.65464
-0.654452
-0.654272
-0.654103
-0.653946
-0.653804
-0.653678
-0.653572
-0.653485
-0.65342
-0.653378
-0.653358
-0.653361
-0.653387
-0.653435
-0.653506
-0.653598
-0.653709
-0.65384
-0.653986
-0.654146
-0.654318
-0.6545
-0.654691
-0.654889
-0.655093
-0.6553
-0.655502
-0.655686
-0.65584
-0.655965
-0.656068
-0.656143
-0.656191
-0.65622
-0.656236
-0.656243
-0.656245
-0.65624
-0.656229
-0.656207
-0.656169
-0.656106
-0.656015
-0.6559
-0.655759
-0.655587
-0.655391
-0.655184
-0.654976
-0.654774
-0.654579
-0.654391
-0.654212
-0.654044
-0.653888
-0.653747
-0.653623
-0.653517
-0.653432
-0.653368
-0.653326
-0.653306
-0.979836
-0.979861
-0.979907
-0.979975
-0.980062
-0.980167
-0.980289
-0.980425
-0.980572
-0.980728
-0.980891
-0.981058
-0.981229
-0.981403
-0.981578
-0.981749
-0.98191
-0.982056
-0.982183
-0.982278
-0.982341
-0.982384
-0.982406
-0.982415
-0.982419
-0.98242
-0.982419
-0.982415
-0.982406
-0.982384
-0.982343
-0.982281
-0.982187
-0.982062
-0.981917
-0.981758
-0.981587
-0.981413
-0.981241
-0.981071
-0.980905
-0.980744
-0.98059
-0.980445
-0.980312
-0.980193
-0.980091
-0.980008
-0.979946
-0.979904
-0.979885
-0.979888
-0.979913
-0.97996
-0.980028
-0.980116
-0.980222
-0.980345
-0.980482
-0.98063
-0.980786
-0.980948
-0.981115
-0.981286
-0.981459
-0.981632
-0.981801
-0.981957
-0.982097
-0.982215
-0.982299
-0.982355
-0.982392
-0.982409
-0.982416
-0.982419
-0.982419
-0.982418
-0.982414
-0.982402
-0.982375
-0.982327
-0.982257
-0.982152
-0.982019
-0.981869
-0.981705
-0.981532
-0.981357
-0.981184
-0.981014
-0.980848
-0.980687
-0.980533
-0.980388
-0.980256
-0.980138
-0.980037
-0.979955
-0.979893
-0.979852
-0.979833
-1.30636
-1.30638
-1.30642
-1.30648
-1.30656
-1.30666
-1.30677
-1.30689
-1.30702
-1.30716
-1.30731
-1.30746
-1.30761
-1.30777
-1.30792
-1.30806
-1.30819
-1.30831
-1.30842
-1.30851
-1.30857
-1.3086
-1.30861
-1.30861
-1.30861
-1.30861
-1.30861
-1.30861
-1.30861
-1.3086
-1.30857
-1.30852
-1.30843
-1.30832
-1.3082
-1.30807
-1.30793
-1.30778
-1.30763
-1.30747
-1.30732
-1.30718
-1.30704
-1.30691
-1.30679
-1.30668
-1.30659
-1.30652
-1.30646
-1.30642
-1.30641
-1.30641
-1.30643
-1.30647
-1.30653
-1.30661
-1.30671
-1.30682
-1.30694
-1.30707
-1.30721
-1.30736
-1.30751
-1.30767
-1.30782
-1.30797
-1.30811
-1.30823
-1.30835
-1.30846
-1.30854
-1.30858
-1.3086
-1.30861
-1.30861
-1.30861
-1.30861
-1.30861
-1.30861
-1.30861
-1.3086
-1.30856
-1.30849
-1.3084
-1.30828
-1.30816
-1.30803
-1.30788
-1.30773
-1.30757
-1.30742
-1.30727
-1.30712
-1.30698
-1.30685
-1.30674
-1.30663
-1.30654
-1.30647
-1.30641
-1.30637
-1.30636
-1.63294
-1.63296
-1.633
-1.63305
-1.63312
-1.63321
-1.63331
-1.63341
-1.63353
-1.63366
-1.63379
-1.63392
-1.63406
-1.63419
-1.63432
-1.63444
-1.63455
-1.63465
-1.63473
-1.63479
-1.63483
-1.63484
-1.63483
-1.63481
-1.6348
-1.6348
-1.6348
-1.63481
-1.63483
-1.63484
-1.63483
-1.63479
-1.63473
-1.63465
-1.63456
-1.63445
-1.63433
-1.6342
-1.63407
-1.63393
-1.6338
-1.63367
-1.63355
-1.63343
-1.63333
-1.63323
-1.63315
-1.63308
-1.63303
-1.633
-1.63298
-1.63298
-1.63301
-1.63304
-1.6331
-1.63317
-1.63325
-1.63335
-1.63346
-1.63358
-1.6337
-1.63383
-1.63397
-1.6341
-1.63423
-1.63436
-1.63448
-1.63458
-1.63468
-1.63475
-1.63481
-1.63484
-1.63484
-1.63483
-1.63481
-1.6348
-1.6348
-1.6348
-1.63482
-1.63483
-1.63484
-1.63482
-1.63477
-1.63471
-1.63462
-1.63452
-1.63441
-1.63428
-1.63415
-1.63402
-1.63389
-1.63375
-1.63362
-1.6335
-1.63338
-1.63328
-1.63318
-1.6331
-1.63304
-1.63299
-1.63295
-1.63294
-1.95955
-1.95957
-1.9596
-1.95965
-1.95971
-1.95979
-1.95988
-1.95997
-1.96008
-1.96019
-1.9603
-1.96042
-1.96053
-1.96065
-1.96076
-1.96086
-1.96095
-1.96103
-1.96109
-1.96113
-1.96115
-1.96113
-1.96109
-1.96105
-1.96102
-1.96101
-1.96102
-1.96105
-1.96109
-1.96113
-1.96115
-1.96114
-1.9611
-1.96103
-1.96096
-1.96087
-1.96077
-1.96066
-1.96054
-1.96043
-1.96031
-1.9602
-1.96009
-1.95999
-1.9599
-1.95981
-1.95974
-1.95968
-1.95963
-1.9596
-1.95959
-1.95959
-1.95961
-1.95964
-1.95969
-1.95976
-1.95983
-1.95992
-1.96002
-1.96012
-1.96023
-1.96034
-1.96046
-1.96057
-1.96069
-1.96079
-1.96089
-1.96098
-1.96105
-1.96111
-1.96114
-1.96115
-1.96112
-1.96108
-1.96104
-1.96101
-1.96101
-1.96102
-1.96106
-1.9611
-1.96114
-1.96115
-1.96112
-1.96108
-1.96101
-1.96093
-1.96083
-1.96073
-1.96062
-1.9605
-1.96039
-1.96027
-1.96016
-1.96005
-1.95995
-1.95985
-1.95977
-1.9597
-1.95964
-1.95959
-1.95956
-1.95955
-2.28618
-2.2862
-2.28623
-2.28628
-2.28633
-2.2864
-2.28648
-2.28656
-2.28665
-2.28675
-2.28685
-2.28695
-2.28705
-2.28714
-2.28723
-2.28732
-2.28739
-2.28745
-2.28749
-2.28752
-2.28752
-2.28749
-2.28742
-2.28734
-2.28728
-2.28726
-2.28728
-2.28733
-2.28741
-2.28749
-2.28752
-2.28752
-2.2875
-2.28745
-2.28739
-2.28732
-2.28724
-2.28715
-2.28706
-2.28696
-2.28686
-2.28676
-2.28667
-2.28658
-2.28649
-2.28642
-2.28635
-2.2863
-2.28626
-2.28623
-2.28622
-2.28622
-2.28624
-2.28627
-2.28631
-2.28637
-2.28644
-2.28651
-2.2866
-2.28669
-2.28679
-2.28688
-2.28698
-2.28708
-2.28717
-2.28726
-2.28734
-2.28741
-2.28747
-2.28751
-2.28753
-2.28752
-2.28747
-2.28739
-2.28732
-2.28727
-2.28726
-2.28729
-2.28736
-2.28744
-2.2875
-2.28752
-2.28752
-2.28748
-2.28744
-2.28737
-2.2873
-2.28721
-2.28712
-2.28702
-2.28692
-2.28682
-2.28672
-2.28663
-2.28654
-2.28646
-2.28638
-2.28632
-2.28626
-2.28622
-2.2862
-2.28618
-2.61284
-2.61285
-2.61288
-2.61292
-2.61297
-2.61303
-2.6131
-2.61317
-2.61325
-2.61333
-2.61342
-2.6135
-2.61359
-2.61366
-2.61374
-2.6138
-2.61386
-2.6139
-2.61393
-2.61394
-2.61393
-2.61389
-2.61381
-2.61371
-2.61363
-2.6136
-2.61363
-2.61371
-2.61381
-2.61389
-2.61393
-2.61394
-2.61393
-2.61391
-2.61386
-2.61381
-2.61374
-2.61367
-2.61359
-2.61351
-2.61343
-2.61334
-2.61326
-2.61318
-2.61311
-2.61304
-2.61299
-2.61294
-2.6129
-2.61288
-2.61287
-2.61287
-2.61288
-2.61291
-2.61295
-2.613
-2.61306
-2.61313
-2.6132
-2.61328
-2.61336
-2.61345
-2.61353
-2.61361
-2.61369
-2.61376
-2.61382
-2.61388
-2.61391
-2.61394
-2.61394
-2.61393
-2.61387
-2.61378
-2.61368
-2.61362
-2.61361
-2.61365
-2.61374
-2.61384
-2.61391
-2.61394
-2.61394
-2.61393
-2.61389
-2.61385
-2.61379
-2.61372
-2.61364
-2.61356
-2.61348
-2.6134
-2.61331
-2.61323
-2.61315
-2.61308
-2.61301
-2.61295
-2.61291
-2.61287
-2.61285
-2.61283
-2.9395
-2.93951
-2.93954
-2.93957
-2.93961
-2.93967
-2.93973
-2.93979
-2.93986
-2.93993
-2.94
-2.94007
-2.94014
-2.94021
-2.94026
-2.94031
-2.94035
-2.94038
-2.9404
-2.9404
-2.94038
-2.94034
-2.94026
-2.94017
-2.94008
-2.94005
-2.94008
-2.94016
-2.94026
-2.94034
-2.94038
-2.9404
-2.9404
-2.94038
-2.94036
-2.94032
-2.94027
-2.94021
-2.94015
-2.94008
-2.94001
-2.93994
-2.93987
-2.9398
-2.93974
-2.93968
-2.93963
-2.93959
-2.93956
-2.93953
-2.93952
-2.93953
-2.93954
-2.93956
-2.9396
-2.93964
-2.9397
-2.93976
-2.93982
-2.93989
-2.93996
-2.94003
-2.9401
-2.94016
-2.94023
-2.94028
-2.94033
-2.94036
-2.94039
-2.9404
-2.9404
-2.94037
-2.94032
-2.94024
-2.94014
-2.94007
-2.94005
-2.9401
-2.94019
-2.94029
-2.94035
-2.94039
-2.9404
-2.9404
-2.94038
-2.94034
-2.9403
-2.94025
-2.94019
-2.94013
-2.94006
-2.93999
-2.93991
-2.93984
-2.93978
-2.93971
-2.93965
-2.9396
-2.93956
-2.93953
-2.93951
-2.9395
-3.26617
-3.26618
-3.2662
-3.26623
-3.26627
-3.26632
-3.26637
-3.26642
-3.26648
-3.26654
-3.2666
-3.26666
-3.26671
-3.26676
-3.26681
-3.26684
-3.26687
-3.26688
-3.26689
-3.26688
-3.26685
-3.26681
-3.26675
-3.26667
-3.2666
-3.26657
-3.2666
-3.26667
-3.26675
-3.26681
-3.26685
-3.26688
-3.26689
-3.26689
-3.26687
-3.26684
-3.26681
-3.26677
-3.26672
-3.26666
-3.26661
-3.26655
-3.26649
-3.26643
-3.26638
-3.26633
-3.26628
-3.26624
-3.26622
-3.2662
-3.26619
-3.26619
-3.2662
-3.26622
-3.26625
-3.26629
-3.26634
-3.26639
-3.26645
-3.2665
-3.26656
-3.26662
-3.26668
-3.26673
-3.26678
-3.26682
-3.26685
-3.26687
-3.26689
-3.26689
-3.26687
-3.26684
-3.2668
-3.26673
-3.26665
-3.26659
-3.26657
-3.26662
-3.26669
-3.26677
-3.26683
-3.26686
-3.26688
-3.26689
-3.26688
-3.26686
-3.26683
-3.26679
-3.26675
-3.2667
-3.26664
-3.26659
-3.26653
-3.26647
-3.26641
-3.26635
-3.2663
-3.26626
-3.26622
-3.26619
-3.26617
-3.26616
-3.59284
-3.59285
-3.59287
-3.59289
-3.59293
-3.59297
-3.59301
-3.59306
-3.59311
-3.59316
-3.59321
-3.59325
-3.59329
-3.59333
-3.59336
-3.59338
-3.5934
-3.5934
-3.5934
-3.59338
-3.59335
-3.59331
-3.59326
-3.5932
-3.59315
-3.59312
-3.59314
-3.5932
-3.59326
-3.59331
-3.59335
-3.59338
-3.5934
-3.5934
-3.5934
-3.59338
-3.59336
-3.59333
-3.59329
-3.59325
-3.59321
-3.59316
-3.59311
-3.59306
-3.59302
-3.59297
-3.59294
-3.5929
-3.59288
-3.59286
-3.59286
-3.59286
-3.59287
-3.59289
-3.59291
-3.59295
-3.59299
-3.59303
-3.59308
-3.59313
-3.59317
-3.59322
-3.59326
-3.5933
-3.59334
-3.59337
-3.59339
-3.5934
-3.5934
-3.59339
-3.59337
-3.59334
-3.5933
-3.59324
-3.59318
-3.59313
-3.59312
-3.59316
-3.59321
-3.59327
-3.59332
-3.59336
-3.59339
-3.5934
-3.5934
-3.59339
-3.59338
-3.59335
-3.59332
-3.59328
-3.59324
-3.59319
-3.59314
-3.5931
-3.59305
-3.593
-3.59296
-3.59292
-3.59289
-3.59286
-3.59284
-3.59284
-3.91951
-3.91952
-3.91953
-3.91956
-3.91959
-3.91962
-3.91966
-3.9197
-3.91974
-3.91978
-3.91981
-3.91985
-3.91988
-3.9199
-3.91992
-3.91993
-3.91994
-3.91993
-3.91992
-3.9199
-3.91987
-3.91983
-3.91978
-3.91974
-3.9197
-3.91968
-3.9197
-3.91973
-3.91978
-3.91983
-3.91987
-3.9199
-3.91992
-3.91993
-3.91994
-3.91993
-3.91992
-3.9199
-3.91988
-3.91985
-3.91982
-3.91978
-3.91974
-3.9197
-3.91966
-3.91963
-3.91959
-3.91957
-3.91955
-3.91953
-3.91952
-3.91953
-3.91953
-3.91955
-3.91957
-3.9196
-3.91963
-3.91967
-3.91971
-3.91975
-3.91979
-3.91982
-3.91986
-3.91989
-3.91991
-3.91993
-3.91993
-3.91994
-3.91993
-3.91991
-3.91989
-3.91986
-3.91982
-3.91977
-3.91972
-3.91969
-3.91968
-3.91971
-3.91975
-3.9198
-3.91984
-3.91988
-3.9199
-3.91992
-3.91993
-3.91994
-3.91993
-3.91992
-3.9199
-3.91987
-3.91984
-3.9198
-3.91977
-3.91973
-3.91969
-3.91965
-3.91961
-3.91958
-3.91955
-3.91953
-3.91952
-3.91951
-4.24618
-4.24619
-4.2462
-4.24622
-4.24625
-4.24628
-4.24631
-4.24634
-4.24637
-4.2464
-4.24642
-4.24645
-4.24647
-4.24648
-4.24649
-4.24649
-4.24648
-4.24647
-4.24645
-4.24643
-4.24639
-4.24636
-4.24632
-4.24628
-4.24625
-4.24624
-4.24625
-4.24628
-4.24631
-4.24635
-4.24639
-4.24642
-4.24645
-4.24647
-4.24648
-4.24649
-4.24649
-4.24648
-4.24647
-4.24645
-4.24642
-4.2464
-4.24637
-4.24634
-4.24631
-4.24628
-4.24625
-4.24623
-4.24621
-4.2462
-4.24619
-4.2462
-4.2462
-4.24622
-4.24623
-4.24626
-4.24629
-4.24631
-4.24634
-4.24638
-4.2464
-4.24643
-4.24645
-4.24647
-4.24648
-4.24649
-4.24649
-4.24648
-4.24647
-4.24644
-4.24642
-4.24638
-4.24634
-4.2463
-4.24627
-4.24624
-4.24624
-4.24626
-4.24629
-4.24633
-4.24637
-4.2464
-4.24643
-4.24646
-4.24648
-4.24649
-4.24649
-4.24649
-4.24648
-4.24646
-4.24644
-4.24642
-4.24639
-4.24636
-4.24633
-4.2463
-4.24627
-4.24624
-4.24622
-4.2462
-4.24619
-4.24618
-4.57286
-4.57287
-4.57288
-4.57289
-4.57291
-4.57293
-4.57295
-4.57298
-4.573
-4.57302
-4.57303
-4.57305
-4.57306
-4.57306
-4.57306
-4.57305
-4.57304
-4.57302
-4.57299
-4.57296
-4.57293
-4.57289
-4.57285
-4.57282
-4.5728
-4.57279
-4.5728
-4.57282
-4.57285
-4.57289
-4.57292
-4.57296
-4.57299
-4.57301
-4.57303
-4.57305
-4.57306
-4.57306
-4.57306
-4.57305
-4.57303
-4.57302
-4.573
-4.57297
-4.57295
-4.57293
-4.57291
-4.57289
-4.57288
-4.57287
-4.57287
-4.57287
-4.57287
-4.57288
-4.5729
-4.57292
-4.57294
-4.57296
-4.57298
-4.573
-4.57302
-4.57304
-4.57305
-4.57306
-4.57306
-4.57306
-4.57305
-4.57303
-4.57301
-4.57298
-4.57295
-4.57291
-4.57288
-4.57284
-4.57281
-4.5728
-4.57279
-4.5728
-4.57283
-4.57286
-4.5729
-4.57294
-4.57297
-4.573
-4.57302
-4.57304
-4.57305
-4.57306
-4.57306
-4.57306
-4.57305
-4.57303
-4.57301
-4.57299
-4.57297
-4.57295
-4.57292
-4.5729
-4.57289
-4.57287
-4.57286
-4.57286
-4.89954
-4.89954
-4.89955
-4.89956
-4.89957
-4.89959
-4.8996
-4.89962
-4.89963
-4.89964
-4.89965
-4.89965
-4.89965
-4.89964
-4.89963
-4.89961
-4.89959
-4.89956
-4.89953
-4.8995
-4.89946
-4.89943
-4.89939
-4.89937
-4.89935
-4.89934
-4.89935
-4.89937
-4.89939
-4.89943
-4.89946
-4.8995
-4.89953
-4.89956
-4.89959
-4.89961
-4.89963
-4.89964
-4.89964
-4.89965
-4.89964
-4.89964
-4.89963
-4.89961
-4.8996
-4.89959
-4.89957
-4.89956
-4.89955
-4.89954
-4.89954
-4.89954
-4.89955
-4.89955
-4.89956
-4.89958
-4.89959
-4.8996
-4.89962
-4.89963
-4.89964
-4.89964
-4.89965
-4.89964
-4.89964
-4.89962
-4.89961
-4.89958
-4.89955
-4.89952
-4.89949
-4.89945
-4.89942
-4.89939
-4.89936
-4.89934
-4.89934
-4.89935
-4.89937
-4.8994
-4.89944
-4.89947
-4.89951
-4.89954
-4.89957
-4.8996
-4.89962
-4.89963
-4.89964
-4.89965
-4.89965
-4.89964
-4.89964
-4.89962
-4.89961
-4.8996
-4.89958
-4.89957
-4.89956
-4.89955
-4.89954
-4.89954
-5.22622
-5.22622
-5.22623
-5.22623
-5.22624
-5.22625
-5.22625
-5.22626
-5.22626
-5.22626
-5.22626
-5.22625
-5.22624
-5.22622
-5.2262
-5.22618
-5.22615
-5.22612
-5.22608
-5.22604
-5.226
-5.22597
-5.22594
-5.22591
-5.22589
-5.22589
-5.22589
-5.22591
-5.22593
-5.22597
-5.226
-5.22604
-5.22608
-5.22611
-5.22614
-5.22617
-5.2262
-5.22622
-5.22623
-5.22625
-5.22625
-5.22626
-5.22626
-5.22625
-5.22625
-5.22624
-5.22624
-5.22623
-5.22622
-5.22622
-5.22622
-5.22622
-5.22622
-5.22623
-5.22623
-5.22624
-5.22624
-5.22625
-5.22625
-5.22626
-5.22626
-5.22625
-5.22624
-5.22623
-5.22621
-5.22619
-5.22617
-5.22614
-5.2261
-5.22607
-5.22603
-5.22599
-5.22596
-5.22593
-5.2259
-5.22589
-5.22589
-5.2259
-5.22592
-5.22594
-5.22598
-5.22601
-5.22605
-5.22609
-5.22612
-5.22616
-5.22618
-5.22621
-5.22623
-5.22624
-5.22625
-5.22626
-5.22626
-5.22626
-5.22626
-5.22625
-5.22624
-5.22624
-5.22623
-5.22623
-5.22622
-5.22622
-5.55291
-5.55291
-5.55291
-5.55291
-5.55291
-5.55291
-5.5529
-5.5529
-5.55289
-5.55288
-5.55287
-5.55285
-5.55283
-5.5528
-5.55278
-5.55274
-5.55271
-5.55267
-5.55263
-5.55259
-5.55255
-5.55251
-5.55248
-5.55245
-5.55244
-5.55243
-5.55244
-5.55245
-5.55248
-5.55251
-5.55254
-5.55258
-5.55262
-5.55266
-5.5527
-5.55274
-5.55277
-5.5528
-5.55283
-5.55285
-5.55286
-5.55288
-5.55289
-5.5529
-5.5529
-5.5529
-5.5529
-5.5529
-5.5529
-5.5529
-5.5529
-5.5529
-5.5529
-5.5529
-5.5529
-5.5529
-5.5529
-5.5529
-5.55289
-5.55289
-5.55287
-5.55286
-5.55284
-5.55282
-5.55279
-5.55276
-5.55273
-5.55269
-5.55265
-5.55261
-5.55257
-5.55253
-5.5525
-5.55247
-5.55245
-5.55244
-5.55243
-5.55244
-5.55246
-5.55249
-5.55252
-5.55256
-5.5526
-5.55264
-5.55268
-5.55272
-5.55275
-5.55278
-5.55281
-5.55284
-5.55286
-5.55287
-5.55289
-5.55289
-5.5529
-5.55291
-5.55291
-5.55291
-5.55291
-5.55291
-5.55291
-5.55291
-5.8796
-5.8796
-5.8796
-5.87959
-5.87959
-5.87958
-5.87956
-5.87955
-5.87953
-5.87951
-5.87948
-5.87946
-5.87942
-5.87939
-5.87935
-5.87931
-5.87927
-5.87922
-5.87918
-5.87913
-5.87909
-5.87905
-5.87902
-5.879
-5.87898
-5.87898
-5.87898
-5.87899
-5.87902
-5.87905
-5.87909
-5.87913
-5.87917
-5.87922
-5.87926
-5.87931
-5.87935
-5.87938
-5.87942
-5.87945
-5.87948
-5.8795
-5.87952
-5.87954
-5.87956
-5.87957
-5.87958
-5.87959
-5.87959
-5.87959
-5.8796
-5.8796
-5.87959
-5.87959
-5.87959
-5.87958
-5.87957
-5.87955
-5.87954
-5.87952
-5.8795
-5.87947
-5.87944
-5.87941
-5.87938
-5.87934
-5.87929
-5.87925
-5.87921
-5.87916
-5.87912
-5.87908
-5.87904
-5.87901
-5.87899
-5.87898
-5.87898
-5.87898
-5.879
-5.87903
-5.87906
-5.8791
-5.87914
-5.87919
-5.87923
-5.87928
-5.87932
-5.87936
-5.8794
-5.87943
-5.87946
-5.87949
-5.87951
-5.87953
-5.87955
-5.87957
-5.87958
-5.87959
-5.87959
-5.8796
-5.8796
-5.8796
-6.20631
-6.2063
-6.2063
-6.20629
-6.20627
-6.20625
-6.20623
-6.2062
-6.20617
-6.20614
-6.2061
-6.20606
-6.20602
-6.20598
-6.20593
-6.20588
-6.20583
-6.20578
-6.20573
-6.20568
-6.20563
-6.2056
-6.20556
-6.20554
-6.20552
-6.20552
-6.20552
-6.20554
-6.20556
-6.20559
-6.20563
-6.20568
-6.20572
-6.20577
-6.20583
-6.20588
-6.20593
-6.20597
-6.20602
-6.20606
-6.2061
-6.20614
-6.20617
-6.2062
-6.20622
-6.20625
-6.20626
-6.20628
-6.20629
-6.2063
-6.2063
-6.2063
-6.20629
-6.20629
-6.20627
-6.20626
-6.20624
-6.20622
-6.20619
-6.20616
-6.20613
-6.20609
-6.20605
-6.20601
-6.20596
-6.20591
-6.20586
-6.20581
-6.20576
-6.20571
-6.20566
-6.20562
-6.20558
-6.20555
-6.20553
-6.20552
-6.20552
-6.20553
-6.20554
-6.20557
-6.20561
-6.20565
-6.20569
-6.20574
-6.20579
-6.20584
-6.20589
-6.20594
-6.20599
-6.20603
-6.20607
-6.20611
-6.20615
-6.20618
-6.20621
-6.20624
-6.20626
-6.20627
-6.20629
-6.2063
-6.20631
-6.20631
-6.53303
-6.53302
-6.53301
-6.53299
-6.53297
-6.53294
-6.53291
-6.53287
-6.53283
-6.53278
-6.53273
-6.53268
-6.53263
-6.53257
-6.53251
-6.53245
-6.5324
-6.53234
-6.53228
-6.53223
-6.53218
-6.53214
-6.53211
-6.53208
-6.53207
-6.53206
-6.53207
-6.53208
-6.53211
-6.53214
-6.53218
-6.53223
-6.53228
-6.53234
-6.53239
-6.53245
-6.53251
-6.53257
-6.53262
-6.53268
-6.53273
-6.53278
-6.53282
-6.53286
-6.5329
-6.53293
-6.53296
-6.53298
-6.533
-6.53301
-6.53301
-6.53301
-6.53301
-6.53299
-6.53298
-6.53295
-6.53292
-6.53289
-6.53285
-6.53281
-6.53276
-6.53271
-6.53266
-6.53261
-6.53255
-6.53249
-6.53244
-6.53238
-6.53232
-6.53227
-6.53222
-6.53217
-6.53213
-6.5321
-6.53208
-6.53207
-6.53206
-6.53207
-6.53209
-6.53212
-6.53215
-6.5322
-6.53224
-6.5323
-6.53235
-6.53241
-6.53247
-6.53253
-6.53258
-6.53264
-6.53269
-6.53274
-6.53279
-6.53284
-6.53288
-6.53291
-6.53295
-6.53297
-6.533
-6.53301
-6.53302
-6.53303
-6.85976
-6.85975
-6.85974
-6.85971
-6.85968
-6.85964
-6.8596
-6.85955
-6.85949
-6.85943
-6.85937
-6.85931
-6.85924
-6.85917
-6.85911
-6.85904
-6.85897
-6.85891
-6.85885
-6.85879
-6.85874
-6.8587
-6.85866
-6.85864
-6.85862
-6.85861
-6.85862
-6.85864
-6.85866
-6.8587
-6.85874
-6.85879
-6.85885
-6.85891
-6.85897
-6.85904
-6.8591
-6.85917
-6.85924
-6.8593
-6.85937
-6.85943
-6.85949
-6.85954
-6.85959
-6.85963
-6.85967
-6.8597
-6.85972
-6.85974
-6.85975
-6.85975
-6.85974
-6.85972
-6.85969
-6.85966
-6.85962
-6.85958
-6.85953
-6.85947
-6.85941
-6.85935
-6.85929
-6.85922
-6.85915
-6.85909
-6.85902
-6.85895
-6.85889
-6.85883
-6.85878
-6.85873
-6.85869
-6.85865
-6.85863
-6.85862
-6.85861
-6.85862
-6.85864
-6.85867
-6.85871
-6.85875
-6.85881
-6.85886
-6.85893
-6.85899
-6.85906
-6.85912
-6.85919
-6.85926
-6.85932
-6.85939
-6.85945
-6.85951
-6.85956
-6.85961
-6.85965
-6.85969
-6.85972
-6.85974
-6.85976
-6.85976
-7.18651
-7.1865
-7.18648
-7.18645
-7.18641
-7.18636
-7.1863
-7.18624
-7.18617
-7.1861
-7.18603
-7.18595
-7.18587
-7.18579
-7.18571
-7.18564
-7.18556
-7.18549
-7.18542
-7.18536
-7.18531
-7.18526
-7.18522
-7.1852
-7.18518
-7.18518
-7.18518
-7.1852
-7.18522
-7.18526
-7.18531
-7.18536
-7.18542
-7.18549
-7.18556
-7.18564
-7.18571
-7.18579
-7.18587
-7.18595
-7.18603
-7.1861
-7.18617
-7.18624
-7.1863
-7.18635
-7.1864
-7.18644
-7.18647
-7.18649
-7.1865
-7.1865
-7.18648
-7.18646
-7.18643
-7.18639
-7.18634
-7.18628
-7.18622
-7.18615
-7.18608
-7.18601
-7.18593
-7.18585
-7.18577
-7.18569
-7.18562
-7.18554
-7.18547
-7.18541
-7.18535
-7.18529
-7.18525
-7.18522
-7.18519
-7.18518
-7.18518
-7.18518
-7.1852
-7.18523
-7.18527
-7.18532
-7.18538
-7.18544
-7.18551
-7.18558
-7.18566
-7.18574
-7.18581
-7.18589
-7.18597
-7.18605
-7.18612
-7.18619
-7.18626
-7.18632
-7.18637
-7.18642
-7.18646
-7.18649
-7.18651
-7.18652
-7.51329
-7.51327
-7.51325
-7.51321
-7.51316
-7.5131
-7.51303
-7.51296
-7.51288
-7.51279
-7.51271
-7.51261
-7.51252
-7.51243
-7.51234
-7.51226
-7.51217
-7.51209
-7.51202
-7.51195
-7.51189
-7.51184
-7.5118
-7.51178
-7.51176
-7.51175
-7.51176
-7.51177
-7.5118
-7.51184
-7.51189
-7.51195
-7.51202
-7.51209
-7.51217
-7.51226
-7.51234
-7.51243
-7.51252
-7.51262
-7.51271
-7.51279
-7.51288
-7.51296
-7.51303
-7.5131
-7.51315
-7.5132
-7.51323
-7.51326
-7.51327
-7.51327
-7.51325
-7.51323
-7.51319
-7.51314
-7.51308
-7.51301
-7.51294
-7.51286
-7.51277
-7.51268
-7.51259
-7.5125
-7.51241
-7.51232
-7.51223
-7.51215
-7.51207
-7.512
-7.51194
-7.51188
-7.51183
-7.5118
-7.51177
-7.51175
-7.51175
-7.51176
-7.51178
-7.51181
-7.51186
-7.51191
-7.51197
-7.51204
-7.51211
-7.51219
-7.51228
-7.51237
-7.51246
-7.51255
-7.51264
-7.51273
-7.51282
-7.5129
-7.51298
-7.51305
-7.51312
-7.51317
-7.51322
-7.51326
-7.51328
-7.51329
-7.84009
-7.84007
-7.84004
-7.83999
-7.83994
-7.83987
-7.83979
-7.8397
-7.83961
-7.83951
-7.83941
-7.83931
-7.8392
-7.8391
-7.839
-7.8389
-7.83881
-7.83872
-7.83864
-7.83857
-7.8385
-7.83845
-7.83841
-7.83838
-7.83836
-7.83835
-7.83836
-7.83838
-7.83841
-7.83845
-7.8385
-7.83857
-7.83864
-7.83872
-7.83881
-7.8389
-7.839
-7.8391
-7.83921
-7.83931
-7.83941
-7.83951
-7.83961
-7.8397
-7.83979
-7.83986
-7.83993
-7.83998
-7.84003
-7.84005
-7.84007
-7.84007
-7.84005
-7.84002
-7.83997
-7.83991
-7.83984
-7.83977
-7.83968
-7.83959
-7.83949
-7.83939
-7.83928
-7.83918
-7.83908
-7.83898
-7.83888
-7.83879
-7.8387
-7.83862
-7.83855
-7.83849
-7.83844
-7.8384
-7.83837
-7.83835
-7.83835
-7.83836
-7.83838
-7.83842
-7.83846
-7.83852
-7.83859
-7.83866
-7.83874
-7.83883
-7.83893
-7.83903
-7.83913
-7.83923
-7.83933
-7.83944
-7.83954
-7.83964
-7.83973
-7.83981
-7.83989
-7.83995
-7.84001
-7.84005
-7.84008
-7.84009
-8.16692
-8.1669
-8.16686
-8.16681
-8.16674
-8.16667
-8.16658
-8.16648
-8.16638
-8.16626
-8.16615
-8.16604
-8.16592
-8.1658
-8.16569
-8.16558
-8.16548
-8.16539
-8.1653
-8.16522
-8.16515
-8.16509
-8.16505
-8.16501
-8.16499
-8.16499
-8.16499
-8.16501
-8.16505
-8.16509
-8.16515
-8.16522
-8.1653
-8.16539
-8.16548
-8.16559
-8.1657
-8.16581
-8.16592
-8.16604
-8.16615
-8.16627
-8.16638
-8.16648
-8.16658
-8.16666
-8.16674
-8.1668
-8.16685
-8.16688
-8.16689
-8.16689
-8.16687
-8.16684
-8.16679
-8.16672
-8.16664
-8.16655
-8.16645
-8.16635
-8.16624
-8.16612
-8.16601
-8.16589
-8.16578
-8.16567
-8.16556
-8.16546
-8.16536
-8.16528
-8.1652
-8.16513
-8.16508
-8.16504
-8.16501
-8.16499
-8.16499
-8.165
-8.16502
-8.16506
-8.16511
-8.16517
-8.16524
-8.16532
-8.16541
-8.16551
-8.16561
-8.16572
-8.16583
-8.16595
-8.16607
-8.16618
-8.16629
-8.1664
-8.16651
-8.1666
-8.16669
-8.16676
-8.16682
-8.16687
-8.1669
-8.16692
-8.49377
-8.49375
-8.49371
-8.49366
-8.49359
-8.4935
-8.4934
-8.49329
-8.49318
-8.49306
-8.49293
-8.49281
-8.49268
-8.49255
-8.49243
-8.49231
-8.4922
-8.4921
-8.492
-8.49192
-8.49184
-8.49178
-8.49173
-8.49169
-8.49167
-8.49167
-8.49167
-8.49169
-8.49173
-8.49178
-8.49184
-8.49192
-8.492
-8.4921
-8.4922
-8.49232
-8.49243
-8.49256
-8.49268
-8.49281
-8.49294
-8.49306
-8.49318
-8.4933
-8.4934
-8.4935
-8.49358
-8.49365
-8.4937
-8.49374
-8.49375
-8.49375
-8.49373
-8.49369
-8.49363
-8.49356
-8.49347
-8.49337
-8.49327
-8.49315
-8.49303
-8.4929
-8.49278
-8.49265
-8.49252
-8.4924
-8.49229
-8.49218
-8.49207
-8.49198
-8.4919
-8.49183
-8.49177
-8.49172
-8.49169
-8.49167
-8.49167
-8.49168
-8.4917
-8.49174
-8.49179
-8.49186
-8.49194
-8.49203
-8.49212
-8.49223
-8.49234
-8.49246
-8.49259
-8.49271
-8.49284
-8.49297
-8.49309
-8.49321
-8.49332
-8.49343
-8.49352
-8.49361
-8.49367
-8.49373
-8.49376
-8.49378
-8.82067
-8.82064
-8.8206
-8.82054
-8.82046
-8.82037
-8.82027
-8.82015
-8.82003
-8.8199
-8.81976
-8.81962
-8.81949
-8.81935
-8.81922
-8.8191
-8.81898
-8.81887
-8.81876
-8.81867
-8.81859
-8.81853
-8.81847
-8.81844
-8.81841
-8.81841
-8.81841
-8.81844
-8.81848
-8.81853
-8.8186
-8.81868
-8.81877
-8.81887
-8.81898
-8.8191
-8.81923
-8.81936
-8.81949
-8.81963
-8.81977
-8.8199
-8.82003
-8.82015
-8.82027
-8.82037
-8.82046
-8.82053
-8.82059
-8.82063
-8.82064
-8.82064
-8.82062
-8.82057
-8.82051
-8.82044
-8.82034
-8.82024
-8.82012
-8.82
-8.81987
-8.81973
-8.8196
-8.81946
-8.81932
-8.81919
-8.81907
-8.81895
-8.81884
-8.81874
-8.81865
-8.81858
-8.81851
-8.81846
-8.81843
-8.81841
-8.81841
-8.81842
-8.81844
-8.81849
-8.81854
-8.81861
-8.8187
-8.81879
-8.81889
-8.81901
-8.81913
-8.81926
-8.81939
-8.81952
-8.81966
-8.8198
-8.81993
-8.82006
-8.82018
-8.82029
-8.8204
-8.82049
-8.82056
-8.82061
-8.82065
-8.82067
-9.1476
-9.14757
-9.14753
-9.14746
-9.14738
-9.14728
-9.14717
-9.14705
-9.14692
-9.14678
-9.14664
-9.1465
-9.14636
-9.14622
-9.14608
-9.14595
-9.14582
-9.1457
-9.1456
-9.1455
-9.14542
-9.14535
-9.14529
-9.14525
-9.14523
-9.14522
-9.14523
-9.14525
-9.14529
-9.14535
-9.14542
-9.1455
-9.1456
-9.14571
-9.14582
-9.14595
-9.14608
-9.14622
-9.14636
-9.14651
-9.14665
-9.14679
-9.14693
-9.14705
-9.14717
-9.14728
-9.14738
-9.14745
-9.14751
-9.14755
-9.14757
-9.14757
-9.14754
-9.1475
-9.14743
-9.14735
-9.14725
-9.14714
-9.14702
-9.14689
-9.14675
-9.14661
-9.14647
-9.14633
-9.14619
-9.14605
-9.14592
-9.14579
-9.14568
-9.14557
-9.14548
-9.1454
-9.14533
-9.14528
-9.14525
-9.14522
-9.14522
-9.14523
-9.14526
-9.14531
-9.14536
-9.14544
-9.14552
-9.14562
-9.14573
-9.14585
-9.14598
-9.14611
-9.14625
-9.14639
-9.14654
-9.14668
-9.14682
-9.14696
-9.14708
-9.1472
-9.14731
-9.1474
-9.14748
-9.14754
-9.14758
-9.1476
-9.47456
-9.47454
-9.47449
-9.47443
-9.47434
-9.47424
-9.47413
-9.474
-9.47387
-9.47373
-9.47358
-9.47344
-9.47329
-9.47314
-9.473
-9.47287
-9.47274
-9.47262
-9.47251
-9.47241
-9.47232
-9.47225
-9.4722
-9.47215
-9.47213
-9.47212
-9.47213
-9.47216
-9.4722
-9.47225
-9.47233
-9.47241
-9.47251
-9.47262
-9.47274
-9.47287
-9.47301
-9.47315
-9.4733
-9.47344
-9.47359
-9.47373
-9.47387
-9.47401
-9.47413
-9.47424
-9.47434
-9.47442
-9.47448
-9.47452
-9.47454
-9.47453
-9.47451
-9.47446
-9.4744
-9.47431
-9.47421
-9.4741
-9.47397
-9.47384
-9.4737
-9.47355
-9.47341
-9.47326
-9.47311
-9.47297
-9.47284
-9.47271
-9.47259
-9.47248
-9.47239
-9.47231
-9.47224
-9.47218
-9.47215
-9.47213
-9.47212
-9.47213
-9.47216
-9.47221
-9.47227
-9.47234
-9.47243
-9.47254
-9.47265
-9.47277
-9.4729
-9.47304
-9.47318
-9.47333
-9.47348
-9.47362
-9.47377
-9.4739
-9.47404
-9.47416
-9.47427
-9.47436
-9.47444
-9.47451
-9.47455
-9.47456
)
;

boundaryField
{
    top
    {
        type            calculated;
        value           nonuniform List<scalar> 
102
(
-9.63806
-9.63803
-9.63799
-9.63792
-9.63783
-9.63773
-9.63762
-9.63749
-9.63736
-9.63722
-9.63707
-9.63692
-9.63677
-9.63663
-9.63648
-9.63635
-9.63621
-9.63609
-9.63598
-9.63588
-9.6358
-9.63572
-9.63567
-9.63563
-9.6356
-9.63559
-9.6356
-9.63563
-9.63567
-9.63573
-9.6358
-9.63589
-9.63599
-9.6361
-9.63622
-9.63635
-9.63649
-9.63663
-9.63678
-9.63693
-9.63708
-9.63722
-9.63736
-9.6375
-9.63762
-9.63773
-9.63783
-9.63791
-9.63797
-9.63801
-9.63803
-9.63803
-9.638
-9.63796
-9.63789
-9.63781
-9.6377
-9.63759
-9.63746
-9.63733
-9.63718
-9.63704
-9.63689
-9.63674
-9.6366
-9.63645
-9.63632
-9.63619
-9.63607
-9.63596
-9.63586
-9.63578
-9.63571
-9.63566
-9.63562
-9.6356
-9.63559
-9.63561
-9.63563
-9.63568
-9.63574
-9.63582
-9.63591
-9.63601
-9.63612
-9.63625
-9.63638
-9.63652
-9.63666
-9.63681
-9.63696
-9.63711
-9.63725
-9.63739
-9.63753
-9.63765
-9.63776
-9.63786
-9.63794
-9.638
-9.63804
-9.63806
)
;
    }
    bottom
    {
        type            calculated;
        value           nonuniform List<scalar> 
102
(
0.16311
0.163079
0.163021
0.162937
0.162827
0.162691
0.16253
0.162343
0.162132
0.161898
0.161643
0.161371
0.161085
0.160794
0.160504
0.160226
0.159969
0.159742
0.159554