/*--------------------------------*- C++ -*----------------------------------*\
| =========                 |                                                 |
| \\      /  F ield         | OpenFOAM: The Open Source CFD Toolbox           |
|  \\    /   O peration     | Version:  2.3.0                                 |
|   \\  /    A nd           | Web:      www.OpenFOAM.org                      |
|    \\/     M anipulation  |                                                 |
\*---------------------------------------------------------------------------*/
FoamFile
{
    version     2.0;
    format      ascii;
    class       volScalarField;
    location    "12000";
    object      p;
}
// * * * * * * * * * * * * * * * * * * * * * * * * * * * * * * * * * * * * * //

dimensions      [0 2 -2 0 0 0 0];

internalField   nonuniform List<scalar> 
3060
(
0
-3.19523
-9.17417
-17.8754
-29.2296
-43.176
-59.6692
-78.6695
-100.112
-123.869
-149.725
-177.351
-206.292
-235.927
-265.421
-293.743
-319.829
-342.77
-361.827
-376.589
-387.274
-394.406
-398.781
-401.237
-402.439
-402.784
-402.406
-401.175
-398.699
-394.318
-387.194
-376.523
-361.774
-342.721
-319.763
-293.641
-265.276
-235.754
-206.124
-177.232
-149.705
-124.009
-100.471
-79.3109
-60.6537
-44.5645
-31.0847
-20.2606
-12.1526
-6.82606
-4.33585
-4.71223
-7.95008
-14.0118
-22.8382
-34.3639
-48.5319
-65.2989
-84.6209
-106.421
-130.55
-156.764
-184.7
-213.854
-243.547
-272.871
-300.748
-326.119
-348.117
-366.054
-379.696
-389.369
-395.691
-399.496
-401.592
-402.572
-402.758
-402.211
-400.729
-397.843
-392.828
-384.834
-373.117
-357.226
-337.088
-313.242
-286.473
-257.736
-228.109
-198.586
-169.937
-142.737
-117.406
-94.2401
-73.4306
-55.085
-39.2579
-25.9885
-15.3257
-7.33403
-2.08229
0.372724
34.2975
31.7663
26.9936
19.9644
10.6522
-0.974202
-14.9328
-31.2009
-49.6885
-70.2248
-92.5491
-116.29
-140.929
-165.776
-190.153
-213.753
-236.44
-257.404
-275.214
-288.907
-298.793
-305.519
-309.835
-312.417
-313.764
-314.173
-313.741
-312.374
-309.78
-305.462
-298.746
-288.881
-275.217
-257.436
-236.484
-213.8
-190.206
-165.849
-141.047
-116.49
-92.8731
-70.7226
-50.4128
-32.2052
-16.2688
-2.68881
8.51727
17.3716
23.908
28.1549
30.1271
29.8296
27.2618
22.4167
15.2757
5.80789
-6.01968
-20.2218
-36.7654
-55.5444
-76.3666
-98.9435
-122.865
-147.562
-172.304
-196.468
-219.85
-242.196
-262.46
-279.199
-291.807
-300.775
-306.792
-310.598
-312.83
-313.932
-314.141
-313.503
-311.868
-308.888
-304.009
-296.527
-285.698
-270.912
-252.136
-230.591
-207.625
-183.817
-159.263
-134.398
-109.935
-86.5227
-64.6373
-44.6182
-26.701
-11.0347
2.31048
13.3254
22.0339
28.4672
32.6494
34.5917
63.2517
60.6807
55.8626
48.8414
39.6915
28.5331
15.5412
0.941388
-15.0167
-32.094
-50.0857
-68.8273
-88.2029
-108.161
-128.646
-149.132
-168.221
-184.677
-198.56
-210.263
-219.16
-224.764
-227.983
-229.756
-230.632
-230.887
-230.609
-229.713
-227.929
-224.715
-219.144
-210.294
-198.622
-184.781
-168.389
-149.376
-128.975
-108.59
-88.7459
-69.5004
-50.9039
-33.0784
-16.1975
-0.476426
13.8368
26.4879
37.2523
45.9585
52.4911
56.7797
58.7829
58.4802
55.8749
50.993
43.882
34.6228
23.3446
10.234
-4.47349
-20.5218
-37.6697
-55.7124
-74.4881
-93.8928
-113.888
-134.366
-154.565
-172.962
-188.629
-201.895
-212.933
-220.887
-225.737
-228.501
-230.013
-230.73
-230.866
-230.463
-229.387
-227.303
-223.559
-217.152
-207.409
-195.122
-180.622
-163.424
-143.811
-123.221
-102.858
-83.0493
-63.8329
-45.2747
-27.5056
-10.701
4.92427
19.1251
31.6549
42.2996
50.899
57.3463
61.5765
63.5514
110.952
108.467
103.824
97.0922
88.3745
77.821
65.6297
52.0415
37.3172
21.7061
5.41635
-11.4007
-28.6503
-46.2618
-64.03
-81.2831
-96.987
-110.842
-123.125
-132.895
-139.876
-144.771
-147.181
-148.081
-148.376
-148.434
-148.352
-148.038
-147.137
-144.763
-139.921
-133.003
-123.33
-111.137
-97.3682
-81.7509
-64.5839
-46.9086
-29.4032
-12.2747
4.40478
20.5352
35.9573
50.4541
63.7685
75.6354
85.8131
94.1054
100.366
104.496
106.43
106.137
103.623
98.9274
92.1223
83.3195
72.6777
60.4064
46.7558
31.9926
16.366
0.0789658
-16.7252
-33.9591
-51.5402
-69.1786
-86.0339
-101.145
-114.501
-126.158
-135.037
-141.404
-145.6
-147.462
-148.15
-148.384
-148.427
-148.323
-147.922
-146.741
-143.715
-138.242
-130.624
-120.079
-107.35
-93.045
-76.8551
-59.3661
-41.6016
-24.0749
-6.93205
9.75792
25.8865
41.2869
55.7377
68.9835
80.7658
90.8536
99.0614
105.252
109.332
111.242
158.105
155.879
151.724
145.704
137.92
128.501
117.613
105.446
92.2082
78.1095
63.3531
48.1354
32.6588
17.1608
1.96985
-12.4339
-25.6193
-37.7191
-48.8269
-57.5672
-63.1905
-66.2506
-67.3592
-67.4177
-67.1666
-67.0382
-67.1434
-67.3795
-67.3338
-66.2742
-63.3052
-57.7964
-49.1732
-38.1387
-26.0903
-12.9558
1.39333
16.5174
31.9305
47.3016
62.3914
76.9935
90.9068
103.923
115.827
126.41
135.479
142.871
148.458
152.147
153.875
153.614
151.367
147.174
141.102
133.257
123.774
112.825
100.608
87.3363
73.2225
58.4731
43.2889
27.8811
12.5062
-2.46985
-16.5274
-29.3396
-41.1608
-51.7388
-59.52
-64.3132
-66.6861
-67.4106
-67.3133
-67.0911
-67.0444
-67.2222
-67.456
-67.1904
-65.6715
-61.9751
-55.5774
-46.053
-34.616
-22.2717
-8.75169
5.91223
21.2238
36.7434
52.1729
67.2884
81.891
95.7834
108.76
120.61
131.13
140.133
147.464
153.001
156.654
158.365
199.508
197.484
193.708
188.252
181.217
172.732
162.958
152.076
140.278
127.765
114.731
101.37
87.8823
74.4918
61.4788
49.2126
38.111
28.4533
20.4384
14.216
10.1392
9.12767
10.3131
12.2218
13.4242
13.7763
13.4478
12.2703
10.3419
9.07281
9.95624
13.9284
20.0982
28.0662
37.6767
48.7266
60.9341
73.8772
87.1833
100.569
113.808
126.695
139.033
150.622
161.259
170.748
178.907
185.58
190.637
193.983
195.552
195.315
193.275
189.473
183.982
176.906
168.381
158.573
147.667
135.862
123.361
110.362
97.0645
83.6753
70.4334
57.6417
45.6994
35.008
25.8049
18.3112
12.6177
9.43421
9.27052
10.852
12.6843
13.6073
13.7563
13.2113
11.7494
9.88273
9.12034
10.9293
15.6913
22.3747
30.8471
40.9015
52.3445
64.8486
77.9922
91.4325
104.907
118.201
131.117
143.461
155.036
165.646
175.097
183.215
189.846
194.868
198.188
199.745
237.997
236.17
232.767
227.859
221.546
213.956
205.241
195.571
185.129
174.101
162.676
151.046
139.408
127.978
117.002
106.772
97.5957
89.7385
83.4981
79.3006
77.6785
79.3466
83.8051
88.7414
92.1521
93.1909
92.1989
88.824
83.8551
79.2943
77.5104
79.0549
83.1993
89.3922
97.2039
106.332
116.508
127.419
138.772
150.317
161.835
173.124
183.99
194.24
203.683
212.135
219.426
225.406
229.949
232.96
234.373
234.159
232.323
228.903
223.973
217.636
210.025
201.295
191.623
181.193
170.197
158.829
147.284
135.767
124.503
113.754
103.824
95.0174
87.5945
81.899
78.3648
77.6453
80.3067
85.2248
89.9327
92.6753
93.1254
91.4959
87.5341
82.4893
78.5843
77.8124
80.1898
84.9628
91.6676
99.8951
109.377
119.834
130.954
142.461
154.117
165.711
177.05
187.942
198.199
207.635
216.069
223.337
229.291
233.812
236.806
238.211
274
272.354
269.294
264.89
259.242
252.476
244.741
236.199
227.025
217.398
207.497
197.506
187.612
178.015
168.93
160.603
153.291
147.245
142.744
140.166
140.03
143.324
150.588
159.175
165.517
167.814
165.605
159.308
150.685
143.305
139.899
139.969
142.497
146.956
152.961
160.229
168.507
177.534
187.063
196.874
206.765
216.544
226.025
235.024
243.359
250.855
257.348
262.692
266.763
269.467
270.738
270.545
268.894
265.825
261.41
255.752
248.981
241.248
232.722
223.578
214.001
204.175
194.287
184.53
175.11
166.254
158.215
151.254
145.624
141.633
139.684
140.406
144.916
153
161.294
166.619
167.651
164.208
157.027
148.4
142.059
139.79
140.64
143.763
148.703
155.106
162.71
171.262
180.503
190.198
200.135
210.12
219.966
229.492
238.516
246.862
254.357
260.842
266.174
270.233
272.927
274.193
308.362
306.883
304.138
300.198
295.162
289.155
282.322
274.822
266.823
258.495
250.01
241.542
233.264
225.355
218.006
211.423
205.822
201.428
198.493
197.346
198.412
202.398
210.249
220.679
229.262
232.54
229.38
220.852
210.369
202.399
198.326
197.204
198.308
201.205
205.564
211.128
217.669
224.97
232.82
241.027
249.408
257.787
265.985
273.829
281.144
287.761
293.521
298.281
301.919
304.34
305.48
305.308
303.828
301.08
297.137
292.102
286.103
279.287
271.817
263.864
255.601
247.205
238.852
230.721
222.996
215.874
209.567
204.297
200.294
197.833
197.264
199.072
204.1
213.041
223.466
230.812
232.299
227.433
217.932
207.814
201.014
197.892
197.459
199.111
202.458
207.193
213.073
219.878
227.393
235.416
243.761
252.25
260.71
268.968
276.852
284.193
290.823
296.587
301.346
304.98
307.398
308.535
341.687
340.363
337.911
334.4
329.93
324.625
318.627
312.09
305.176
298.048
290.871
283.805
277.01
270.646
264.876
259.874
255.815
252.884
251.288
251.283
253.187
257.436
264.589
274.168
282.745
286.197
282.864
274.331
264.695
257.456
253.145
251.197
251.168
252.734
255.636
259.665
264.635
270.366
276.683
283.42
290.414
297.501
304.517
311.295
317.669
323.474
328.558
332.779
336.017
338.177
339.196
339.042
337.72
335.269
331.764
327.304
322.017
316.047
309.551
302.695
295.645
288.566
281.624
274.982
268.802
263.254
258.513
254.761
252.187
251.013
251.51
254.029
259.058
267.084
276.874
284.364
285.94
280.858
271.567
262.418
256.066
252.486
251.119
251.57
253.539
256.785
261.109
266.33
272.272
278.765
285.647
292.757
299.937
307.024
313.855
320.265
326.095
331.193
335.422
338.663
340.824
341.841
374.411
373.235
371.058
367.951
364.013
359.366
354.147
348.508
342.602
336.586
330.615
324.837
319.398
314.437
310.094
306.509
303.819
302.163
301.691
302.574
305.009
309.215
315.375
323.065
330.033
332.927
330.128
323.19
315.463
309.252
305.006
302.541
301.634
302.085
303.721
306.391
309.953
314.268
319.194
324.589
330.309
336.207
342.128
347.918
353.416
358.465
362.916
366.632
369.494
371.409
372.313
372.177
371.003
368.833
365.737
361.816
357.194
352.012
346.423
340.584
334.654
328.788
323.14
317.854
313.075
308.944
305.603
303.19
301.849
301.737
303.032
305.942
310.693
317.402
325.231
331.38
332.71
328.475
320.99
313.574
307.931
304.211
302.205
301.696
302.494
304.436
307.374
311.172
315.691
320.791
326.333
332.176
338.173
344.174
350.025
355.569
360.651
365.124
368.854
371.724
373.643
374.549
406.817
405.782
403.872
401.156
397.729
393.71
389.234
384.443
379.486
374.51
369.66
365.07
360.872
357.187
354.129
351.808
350.323
349.767
350.232
351.809
354.582
358.606
363.829
369.781
374.957
377.098
375.025
369.873
363.906
358.66
354.616
351.826
350.236
349.76
350.305
351.779
354.087
357.128
360.79
364.957
369.504
374.297
379.197
384.056
388.726
393.057
396.904
400.136
402.636
404.314
405.108
404.988
403.958
402.058
399.356
395.951
391.964
387.53
382.796
377.912
373.026
368.284
363.825
359.779
356.269
353.411
351.312
350.072
349.786
350.546
352.443
355.558
359.931
365.445
371.397
375.952
376.938
373.805
368.213
362.358
357.432
353.738
351.286
350.01
349.822
350.631
352.345
354.869
358.103
361.934
366.247
370.918
375.815
380.8
385.727
390.449
394.819
398.694
401.944
404.457
406.142
406.938
439.056
438.163
436.519
434.189
431.267
427.866
424.113
420.143
416.096
412.108
408.311
404.83
401.777
399.257
397.361
396.169
395.744
396.138
397.389
399.521
402.527
406.348
410.807
415.442
419.231
420.757
419.279
415.514
410.882
406.419
402.594
399.584
397.45
396.196
395.801
396.224
397.413
399.302
401.811
404.845
408.297
412.052
415.981
419.95
423.82
427.45
430.706
433.459
435.601
437.044
437.728
437.625
436.738
435.105
432.793
429.897
426.531
422.824
418.915
414.943
411.047
407.36
404.007
401.101
398.746
397.034
396.04
395.827
396.445
397.928
400.294
403.526
407.543
412.114
416.646
419.943
420.644
418.402
414.256
409.595
405.276
401.658
398.879
396.979
395.956
395.781
396.413
397.797
399.865
402.535
405.711
409.287
413.146
417.162
421.202
425.128
428.802
432.088
434.864
437.021
438.473
439.161
471.179
470.432
469.061
467.127
464.718
461.939
458.91
455.754
452.599
449.569
446.783
444.35
442.369
440.924
440.087
439.91
440.425
441.647
443.57
446.162
449.352
453.01
456.903
460.619
463.459
464.562
463.496
460.682
456.98
453.097
449.447
446.264
443.679
441.763
440.548
440.039
440.222
441.061
442.505
444.479
446.896
449.654
452.642
455.737
458.814
461.744
464.402
466.671
468.447
469.65
470.221
470.134
469.394
468.035
466.121
463.74
460.999
458.018
454.924
451.845
448.906
446.227
443.918
442.075
440.784
440.112
440.108
440.802
442.202
444.298
447.049
450.37
454.109
457.995
461.544
463.977
464.481
462.85
459.696
455.879
452.017
448.465
445.422
443.001
441.26
440.224
439.893
440.248
441.25
442.843
444.952
447.488
450.349
453.423
456.59
459.725
462.701
465.393
467.686
469.479
470.692
471.267
503.161
502.567
501.482
499.962
498.088
495.954
493.667
491.337
489.078
486.999
485.202
483.782
482.821
482.387
482.529
483.276
484.636
486.591
489.101
492.092
495.449
499.004
502.51
505.617
507.844
508.679
507.877
505.676
502.592
499.105
495.568
492.226
489.25
486.755
484.813
483.467
482.732
482.601
483.043
484.007
485.422
487.204
489.257
491.474
493.745
495.957
497.997
499.76
501.154
502.104
502.557
502.488
501.902
500.83
499.332
497.486
495.391
493.153
490.885
488.701
486.709
485.015
483.71
482.877
482.581
482.869
483.764
485.269
487.362
489.992
493.076
496.488
500.04
503.46
506.363
508.242
508.618
507.377
504.866
501.613
498.065
494.542
491.267
488.394
486.024
484.222
483.022
482.435
482.448
483.027
484.116
485.644
487.524
489.661
491.949
494.278
496.536
498.611
500.4
501.813
502.773
503.231
534.913
534.484
533.706
532.628
531.322
529.869
528.359
526.887
525.547
524.431
523.625
523.205
523.236
523.769
524.834
526.44
528.572
531.19
534.225
537.575
541.1
544.613
547.876
550.599
552.451
553.123
552.481
550.658
547.962
544.724
541.235
537.732
534.403
531.387
528.788
526.675
525.088
524.04
523.522
523.502
523.927
524.731
525.834
527.149
528.584
530.043
531.43
532.657
533.643
534.322
534.648
534.599
534.177
533.413
532.357
531.08
529.665
528.204
526.791
525.523
524.49
523.779
523.465
523.611
524.266
525.455
527.183
529.429
532.145
535.254
538.644
542.163
545.611
548.737
551.237
552.775
553.074
552.069
549.955
547.06
543.705
540.168
536.673
533.394
530.459
527.963
525.967
524.503
523.579
523.183
523.276
523.804
524.7
525.883
527.266
528.757
530.261
531.684
532.938
533.942
534.633
534.964
566.303
566.053
565.607
565.008
564.313
563.587
562.903
562.334
561.953
561.832
562.036
562.623
563.639
565.117
567.071
569.492
572.348
575.58
579.1
582.788
586.491
590.018
593.151
595.651
597.284
597.863
597.314
595.71
593.24
590.135
586.634
582.957
579.293
575.796
572.587
569.754
567.355
565.423
563.964
562.966
562.392
562.195
562.317
562.691
563.244
563.902
564.591
565.24
565.784
566.17
566.359
566.33
566.088
565.656
565.079
564.413
563.725
563.088
562.575
562.261
562.216
562.506
563.187
564.304
565.886
567.943
570.46
573.399
576.693
580.247
583.93
587.581
590.999
593.96
596.225
597.566
597.821
596.951
595.07
592.38
589.121
585.527
581.811
578.154
574.699
571.559
568.813
566.513
564.684
563.329
562.43
561.949
561.836
562.032
562.469
563.076
563.778
564.502
565.178
565.741
566.139
566.333
597.157
597.102
597.019
596.94
596.906
596.963
597.161
597.55
598.181
599.099
600.348
601.965
603.978
606.402
609.234
612.449
616.002
619.821
623.806
627.826
631.725
635.318
638.406
640.794
642.312
642.842
642.341
640.852
638.493
635.433
631.868
627.996
624
620.04
616.245
612.716
609.524
606.716
604.315
602.324
600.726
599.494
598.589
597.968
597.583
597.385
597.323
597.346
597.411
597.477
597.516
597.51
597.462
597.394
597.336
597.33
597.424
597.666
598.108
598.799
599.786
601.111
602.81
604.907
607.416
610.328
613.614
617.221
621.071
625.054
629.033
632.843
636.294
639.188
641.333
642.572
642.803
642.006
640.245
637.655
634.415
630.722
626.775
622.749
618.797
615.039
611.569
608.452
605.726
603.411
601.504
599.986
598.828
597.989
597.427
597.093
596.936
596.908
596.958
597.042
597.121
597.164
627.268
627.425
627.736
628.219
628.898
629.796
630.938
632.349
634.05
636.063
638.406
641.093
644.133
647.521
651.239
655.25
659.496
663.896
668.343
672.704
676.823
680.525
683.635
685.99
687.461
687.968
687.487
686.043
683.715
680.632
676.955
672.861
668.524
664.1
659.723
655.499
651.511
647.817
644.452
641.436
638.773
636.455
634.467
632.792
631.407
630.292
629.421
628.77
628.315
628.034
627.908
627.927
628.093
628.418
628.922
629.629
630.562
631.746
633.204
634.96
637.033
639.441
642.196
645.303
648.757
652.533
656.59
660.863
665.264
669.679
673.967
677.969
681.506
684.405
686.511
687.708
687.93
687.165
685.452
682.885
679.602
675.773
671.574
667.176
662.73
658.361
654.17
650.232
646.598
643.3
640.353
637.757
635.502
633.573
631.95
630.613
629.537
628.699
628.074
627.639
627.37
627.25
656.394
656.781
657.516
658.602
660.044
661.841
663.989
666.485
669.322
672.491
675.986
679.795
683.905
688.293
692.925
697.751
702.706
707.7
712.624
717.344
721.712
725.566
728.749
731.126
732.594
733.097
732.616
731.17
728.816
725.655
721.822
717.476
712.775
707.871
702.895
697.96
693.153
688.542
684.176
680.091
676.309
672.846
669.713
666.918
664.471
662.377
660.641
659.268
658.255
657.599
657.297
657.343
657.737
658.486
659.594
661.063
662.893
665.081
667.62
670.505
673.726
677.274
681.137
685.298
689.732
694.4
699.248
704.203
709.171
714.035
718.658
722.885
726.556
729.517
731.64
732.837
733.059
732.299
730.585
727.985
724.61
720.606
716.13
711.342
706.388
701.394
696.466
691.685
687.114
682.796
678.763
675.036
671.625
668.542
665.795
663.39
661.333
659.63
658.282
657.288
656.646
656.349
684.271
684.902
686.086
687.812
690.062
692.808
696.02
699.661
703.695
708.084
712.792
717.781
723.014
728.449
734.036
739.714
745.409
751.026
756.454
761.565
766.216
770.261
773.563
776.004
777.501
778.009
777.517
776.035
773.611
770.325
766.295
761.658
756.56
751.145
745.54
739.859
734.194
728.623
723.207
717.998
713.038
708.369
704.026
700.051
696.48
693.351
690.702
688.562
686.957
685.905
685.415
685.489
686.127
687.326
689.073
691.35
694.129
697.377
701.058
705.134
709.566
714.316
719.345
724.613
730.075
735.677
741.353
747.024
752.59
757.935
762.925
767.417
771.264
774.334
776.517
777.741
777.971
777.2
775.449
772.772
769.263
765.044
760.258
755.051
749.561
743.913
738.215
732.554
727.002
721.615
716.442
711.524
706.896
702.597
698.663
695.131
692.038
689.42
687.306
685.721
684.682
684.198
710.612
711.497
713.15
715.542
718.633
722.368
726.687
731.524
736.808
742.472
748.449
754.674
761.086
767.622
774.214
780.791
787.269
793.55
799.523
805.064
810.04
814.319
817.778
820.318
821.868
822.391
821.876
820.333
817.801
814.348
810.076
805.105
799.569
793.599
787.322
780.849
774.278
767.696
761.174
754.784
748.589
742.655
737.048
731.838
727.095
722.889
719.287
716.349
714.127
712.661
711.974
712.078
712.971
714.639
717.053
720.171
723.938
728.292
733.165
738.486
744.185
750.194
756.447
762.879
769.422
776.009
782.562
788.994
795.201
801.069
806.47
811.269
815.337
818.557
820.834
822.109
822.352
821.557
819.741
816.952
813.266
808.792
803.654
797.987
791.921
785.578
779.065
772.477
765.892
759.383
753.014
746.848
740.947
735.376
730.203
725.497
721.325
717.753
714.842
712.641
711.189
710.509
735.114
736.259
738.389
741.461
745.41
750.155
755.607
761.667
768.235
775.212
782.501
790.009
797.649
805.334
812.982
820.509
827.82
834.815
841.382
847.401
852.749
857.306
860.964
863.635
865.26
865.804
865.258
863.631
860.956
857.294
852.732
847.378
841.353
834.779
827.777
820.46
812.931
805.284
797.607
789.986
782.508
775.267
768.358
761.88
755.936
750.628
746.052
742.3
739.449
737.56
736.673
736.807
737.96
740.106
743.2
747.177
751.954
757.439
763.533
770.135
777.141
784.453
791.978
799.623
807.299
814.924
822.406
829.65
836.55
842.992
848.853
854.01
858.345
861.755
864.159
865.504
865.763
864.934
863.03
860.091
856.188
851.411
845.875
839.7
833.009
825.92
818.543
810.976
803.309
795.628
788.014
780.555
773.339
766.46
760.016
754.107
748.832
744.288
740.564
737.734
735.86
734.981
757.467
758.869
761.474
765.221
770.022
775.772
782.353
789.637
797.493
805.793
814.411
823.225
832.122
840.993
849.738
858.259
866.452
874.211
881.424
887.974
893.745
898.629
902.528
905.365
907.084
907.656
907.07
905.337
902.485
898.57
893.668
887.878
881.309
874.077
866.298
858.088
849.554
840.801
831.932
823.049
814.267
805.702
797.48
789.73
782.585
776.177
770.632
766.071
762.594
760.285
759.199
759.363
760.774
763.396
767.166
771.996
777.779
784.394
791.711
799.597
807.922
816.556
825.377
834.266
843.115
851.82
860.278
868.386
876.032
883.101
889.476
895.043
899.694
903.336
905.899
907.333
907.614
906.739
904.722
901.6
897.433
892.306
886.318
879.583
872.215
864.331
856.041
847.451
838.663
829.775
820.889
812.115
803.57
795.375
787.656
780.546
774.172
768.66
764.128
760.674
758.381
757.303
777.359
779.008
782.07
786.464
792.086
798.804
806.475
814.944
824.053
833.646
843.57
853.676
863.827
873.892
883.752
893.293
902.403
910.968
918.872
926.002
932.247
937.504
941.685
944.718
946.552
947.158
946.525
944.664
941.602
937.392
932.103
925.826
918.663
910.726
902.129
892.99
883.424
873.548
863.478
853.338
843.263
833.398
823.893
814.906
806.597
799.127
792.649
787.309
783.231
780.518
779.24
779.434
781.092
784.172
788.591
794.243
800.996
808.701
817.204
826.342
835.957
845.892
855.998
866.132
876.162
885.968
895.433
904.441
912.876
920.621
927.561
933.588
938.602
942.517
945.267
946.807
947.114
946.184
944.031
940.691
936.219
930.692
924.204
916.86
908.77
900.051
890.816
881.179
871.254
861.154
851.002
840.93
831.08
821.599
812.644
804.37
796.936
790.493
785.183
781.13
778.434
777.166
794.486
796.363
799.845
804.837
811.215
818.828
827.507
837.077
847.355
858.159
869.314
880.65
892.005
903.226
914.179
924.734
934.765
944.151
952.772
960.514
967.267
972.934
977.428
980.682
982.646
983.29
982.605
980.6
977.304
972.765
967.054
960.254
952.465
943.797
934.367
924.294
913.705
902.727
891.494
880.148
868.846
857.753
847.047
836.906
827.517
819.064
811.724
805.664
801.032
797.947
796.493
796.713
798.6
802.101
807.12
813.53
821.179
829.895
839.499
849.806
860.631
871.796
883.125
894.457
905.636
916.525
926.991
936.907
946.149
954.597
962.136
968.659
974.07
978.288
981.249
982.909
983.245
982.252
979.945
976.36
971.55
965.589
958.565
950.581
941.747
932.18
921.998
911.326
900.289
889.018
877.654
866.35
855.271
844.588
834.479
825.127
816.711
809.409
803.382
798.776
795.71
794.266
808.561
810.637
814.485
819.998
827.036
835.43
844.992
855.527
866.832
878.709
890.961
903.4
915.845
928.129
940.096
951.604
962.513
972.692
982.016
990.366
997.632
1003.72
1008.54
1012.02
1014.12
1014.81
1014.07
1011.91
1008.37
1003.49
997.35
990.024
981.614
972.231
961.995
951.034
939.483
927.483
915.184
902.745
890.341
878.157
866.388
855.233
844.896
835.583
827.49
820.803
815.687
812.277
810.669
810.912
812.999
816.867
822.409
829.482
837.913
847.514
858.085
869.421
881.318
893.579
906.009
918.428
930.664
942.56
953.97
964.754
974.778
983.917
992.052
999.077
1004.9
1009.43
1012.61
1014.39
1014.76
1013.7
1011.23
1007.39
1002.23
995.827
988.266
979.649
970.088
959.704
948.624
936.982
924.916
912.574
900.114
887.707
875.535
863.79
852.669
842.371
833.098
825.044
818.392
813.304
809.915
808.317
819.335
821.572
825.715
831.648
839.216
848.237
858.509
869.821
881.957
894.702
907.849
921.194
934.547
947.724
960.557
972.886
984.561
995.44
1005.39
1014.29
1022.03
1028.5
1033.62
1037.32
1039.55
1040.28
1039.48
1037.19
1033.42
1028.23
1021.69
1013.88
1004.91
994.884
983.938
972.203
959.823
946.953
933.758
920.412
907.103
894.029
881.398
869.423
858.324
848.319
839.62
832.429
826.923
823.252
821.52
821.782
824.03
828.194
834.157
841.761
850.822
861.135
872.485
884.653
897.42
910.575
923.913
937.238
950.364
963.121
975.347
986.889
997.605
1007.36
1016.04
1023.52
1029.72
1034.54
1037.93
1039.83
1040.23
1039.1
1036.48
1032.4
1026.92
1020.11
1012.06
1002.87
992.659
981.557
969.695
957.219
944.279
931.039
917.67
904.358
891.298
878.692
866.753
855.694
845.731
837.074
829.919
824.444
820.794
819.073
826.542
828.893
833.245
839.476
847.421
856.886
867.66
879.521
892.243
905.603
919.386
933.381
947.39
961.224
974.7
987.648
999.905
1011.32
1021.76
1031.09
1039.2
1045.98
1051.34
1055.22
1057.55
1058.31
1057.48
1055.07
1051.11
1045.67
1038.81
1030.62
1021.21
1010.7
999.203
986.879
973.877
960.36
946.508
932.505
918.548
904.842
891.601
879.047
867.409
856.914
847.787
840.238
834.456
830.598
828.777
829.053
831.415
835.79
842.052
850.034
859.541
870.357
882.257
895.012
908.396
922.189
936.177
950.159
963.942
977.34
990.181
1002.3
1013.55
1023.79
1032.89
1040.74
1047.24
1052.29
1055.85
1057.84
1058.26
1057.09
1054.34
1050.07
1044.33
1037.19
1028.75
1019.11
1008.41
996.752
984.298
971.196
957.608
943.711
929.686
915.727
902.035
888.821
876.304
864.708
854.258
845.173
837.662
831.911
828.075
826.266
830.131
832.541
837.002
843.387
851.524
861.215
872.242
884.377
897.391
911.056
925.152
939.467
953.802
967.967
981.769
995.031
1007.59
1019.28
1029.97
1039.52
1047.82
1054.75
1060.24
1064.21
1066.59
1067.36
1066.51
1064.04
1060
1054.42
1047.4
1039.02
1029.38
1018.61
1006.84
994.218
980.899
967.055
952.872
938.544
924.268
910.25
896.707
883.866
871.958
861.216
851.87
844.138
838.213
834.259
832.393
832.675
835.097
839.581
845.996
854.171
863.904
874.974
887.149
900.197
913.885
927.992
942.301
956.61
970.723
984.447
997.6
1010.02
1021.54
1032.02
1041.34
1049.38
1056.03
1061.2
1064.84
1066.89
1067.31
1066.11
1063.31
1058.94
1053.06
1045.76
1037.12
1027.26
1016.29
1004.36
991.601
978.18
964.265
950.038
935.689
921.411
907.407
893.892
881.087
869.221
858.524
849.222
841.528
835.635
831.703
829.848
)
;

boundaryField
{
    top
    {
        type            calculated;
        value           nonuniform List<scalar> 
102
(
830.401
832.845
837.366
843.831
852.067
861.87
873.019
885.284
898.43
912.23
926.462
940.915
955.388
969.696
983.641
997.041
1009.73
1021.54
1032.34
1042
1050.39
1057.4
1062.95
1066.96
1069.37
1070.15
1069.29
1066.79
1062.7
1057.06
1049.97
1041.49
1031.75
1020.87
1008.97
996.212
982.753
968.766
954.438
939.971
925.557
911.402
897.723
884.749
872.712
861.849
852.394
844.566
838.564
834.557
832.664
832.951
835.406
839.95
846.447
854.722
864.568
875.761
888.066
901.248
915.073
929.317
943.765
958.213
972.471
986.338
999.63
1012.18
1023.82
1034.42
1043.84
1051.96
1058.68
1063.92
1067.6
1069.67
1070.1
1068.89
1066.05
1061.63
1055.69
1048.3
1039.57
1029.61
1018.52
1006.46
993.575
980.015
965.957
951.587
937.1
922.686
908.546
894.896
881.959
869.966
859.149
849.737
841.949
835.98
831.995
830.115
)
;
    }
    bottom
    {
        type            calculated;
        value           nonuniform List<scalar> 
102
(
-38.8536
-42.0615
-48.0638
-56.7985
-68.1959
-82.1944
-98.7484
-117.818
-139.337
-163.18
-189.128
-216.857
-245.907
-275.658
-305.27
-333.713
-359.924
-382.992
-402.174
-417.061
-427.862
-435.1
-439.566
-442.094
-443.341
-443.703
-443.309
-442.033
-439.487
-435.015
-427.785
-416.997
-402.124
-382.944
-359.859
-333.612
-305.125
-275.484
-245.738
-216.735
-189.106
-163.316
-139.694
-118.457
-99.7312
-83.5823
-70.0517
-59.1862
-51.0468
-45.6993
-43.1991
-43.577
-46.8277
-52.9132
-61.7737
-73.3433
-87.5645
-104.393
-123.786
-145.665
-169.881
-196.191
-224.231
-253.497
-283.308
-312.752
-340.751
-366.249
-388.374
-406.437
-420.201
-429.989
-436.414
-440.304
-442.464
-443.482
-443.676
-443.104
-441.57
-438.607
-433.496
-425.392
-413.556
-397.54
-377.276
-353.304
-326.411
-297.554
-267.809
-238.171
-209.415
-182.115
-156.693
-133.444
-112.56
-94.1473
-78.2617
-64.9424
-54.239
-46.2165
-40.9442
-38.4793
)
;
    }
    frontAndBack
    {
        type            empty;
    }
    left_cyc
    {
        type            cyclic;
    }
    right_cyc
    {
        type            cyclic;
    }
}


// ************************************************************************* //
