/*--------------------------------*- C++ -*----------------------------------*\
| =========                 |                                                 |
| \\      /  F ield         | OpenFOAM: The Open Source CFD Toolbox           |
|  \\    /   O peration     | Version:  2.3.0                                 |
|   \\  /    A nd           | Web:      www.OpenFOAM.org                      |
|    \\/     M anipulation  |                                                 |
\*---------------------------------------------------------------------------*/
FoamFile
{
    version     2.0;
    format      ascii;
    class       volScalarField;
    location    "12000";
    object      p;
}
// * * * * * * * * * * * * * * * * * * * * * * * * * * * * * * * * * * * * * //

dimensions      [0 2 -2 0 0 0 0];

internalField   nonuniform List<scalar> 
3060
(
-924.89
-929.021
-936.576
-947.152
-960.178
-975.012
-991.198
-1008.93
-1029.39
-1054.26
-1084.42
-1119.11
-1156.65
-1195.35
-1233.47
-1269.39
-1301.77
-1329.78
-1352.59
-1369.24
-1379.99
-1385.81
-1388.08
-1388.34
-1387.88
-1387.51
-1387.55
-1387.79
-1387.52
-1385.56
-1380.37
-1370.5
-1354.9
-1333.05
-1305.73
-1273.88
-1238.33
-1200.38
-1161.74
-1124.21
-1089.49
-1059.21
-1034.12
-1013.52
-995.912
-980.125
-965.9
-953.631
-943.915
-937.291
-934.13
-934.611
-938.705
-946.183
-956.625
-969.462
-984.116
-1000.31
-1018.55
-1040.2
-1066.66
-1098.24
-1133.85
-1171.85
-1210.49
-1247.96
-1282.65
-1313.37
-1339.36
-1359.6
-1373.6
-1382.12
-1386.3
-1387.68
-1387.71
-1387.47
-1387.54
-1387.99
-1388.36
-1387.71
-1384.64
-1377.64
-1365.41
-1347.09
-1322.79
-1293.56
-1260.14
-1223.49
-1185.05
-1146.5
-1109.55
-1075.9
-1047.13
-1023.6
-1004.02
-986.767
-970.92
-956.506
-944.069
-934.248
-927.573
-924.399
-987.128
-986.952
-986.627
-986.193
-985.836
-986.065
-987.978
-993.406
-1004.49
-1022.4
-1046.37
-1074.26
-1103.96
-1133.82
-1162.32
-1188.47
-1213.15
-1237.34
-1259.07
-1275.37
-1286.03
-1292.21
-1295.26
-1296.44
-1296.72
-1296.68
-1296.54
-1296.17
-1295.05
-1292.3
-1286.7
-1276.9
-1261.7
-1240.79
-1216.74
-1192.05
-1166.25
-1138.2
-1108.7
-1079.29
-1051.64
-1027.81
-1009.82
-998.489
-992.825
-990.783
-990.526
-990.914
-991.395
-991.755
-991.929
-991.901
-991.675
-991.271
-990.782
-990.488
-991.071
-993.858
-1000.83
-1013.88
-1033.57
-1058.62
-1086.91
-1116.5
-1145.76
-1173.22
-1198.57
-1223.17
-1246.73
-1266.28
-1279.93
-1288.5
-1293.22
-1295.43
-1296.29
-1296.56
-1296.67
-1296.66
-1296.22
-1294.65
-1290.9
-1283.66
-1271.62
-1253.72
-1231.01
-1206.63
-1181.73
-1154.96
-1125.96
-1095.99
-1066.6
-1039.52
-1016.98
-1000.91
-991.511
-987.229
-985.911
-985.914
-986.321
-986.733
-987.017
-987.15
-948.991
-949.598
-950.809
-952.772
-955.75
-960.143
-966.5
-975.445
-987.464
-1002.56
-1020.05
-1038.92
-1058.4
-1078.23
-1098.69
-1120.41
-1143.36
-1164.81
-1181.79
-1194.61
-1203.97
-1209.04
-1210.9
-1211.16
-1210.91
-1210.69
-1210.7
-1210.81
-1210.56
-1209.03
-1204.67
-1196.08
-1183.9
-1167.9
-1147.32
-1124.59
-1102.86
-1082.56
-1063.03
-1043.91
-1025.37
-1008.13
-993.159
-981.133
-972.126
-965.707
-961.282
-958.31
-956.387
-955.247
-954.744
-954.818
-955.477
-956.802
-958.968
-962.274
-967.163
-974.204
-983.976
-996.812
-1012.47
-1030.14
-1048.88
-1068.11
-1087.78
-1108.4
-1130.55
-1153.09
-1172.55
-1187.41
-1198.73
-1206.16
-1209.61
-1210.68
-1210.76
-1210.65
-1210.71
-1210.96
-1211.15
-1210.59
-1208.05
-1201.86
-1191.51
-1177.74
-1159.46
-1137.24
-1114.49
-1093.17
-1072.93
-1053.19
-1033.83
-1015.24
-998.282
-983.968
-972.794
-964.595
-958.819
-954.849
-952.172
-950.426
-949.384
-948.922
-892.237
-893.258
-895.238
-898.297
-902.634
-908.54
-916.365
-926.419
-938.772
-953.058
-968.531
-984.423
-1000.31
-1016.09
-1031.93
-1048.16
-1065.07
-1081.79
-1097.36
-1110.87
-1119.71
-1124.7
-1126.16
-1125.57
-1124.68
-1124.22
-1124.41
-1125.12
-1125.79
-1124.93
-1120.68
-1112.89
-1100.4
-1085.32
-1069.04
-1052.25
-1036.08
-1020.42
-1004.88
-989.28
-973.672
-958.439
-944.297
-931.979
-921.901
-914.046
-908.136
-903.837
-900.864
-899.017
-898.179
-898.304
-899.397
-901.523
-904.819
-909.508
-915.894
-924.312
-934.992
-947.848
-962.355
-977.744
-993.371
-1008.95
-1024.49
-1040.25
-1056.61
-1073.41
-1089.38
-1104.06
-1115.36
-1122.1
-1125.41
-1125.65
-1124.88
-1124.28
-1124.26
-1124.86
-1125.78
-1126.04
-1123.68
-1117.81
-1107.65
-1093.33
-1077.45
-1060.54
-1043.79
-1027.71
-1011.91
-996.107
-980.199
-964.361
-949.118
-935.286
-923.528
-914.088
-906.807
-901.349
-897.375
-894.617
-892.899
-892.119
-845.707
-846.75
-848.756
-851.807
-856.033
-861.606
-868.717
-877.522
-888.058
-900.142
-913.382
-927.299
-941.493
-955.662
-969.571
-982.988
-995.74
-1007.88
-1019.8
-1030.58
-1038.01
-1041.81
-1041.91
-1040.18
-1038.54
-1037.84
-1038.22
-1039.61
-1041.43
-1042
-1039.26
-1032.83
-1022.86
-1011.09
-999.085
-986.513
-973.284
-959.569
-945.598
-931.604
-917.872
-904.785
-892.802
-882.317
-873.534
-866.445
-860.912
-856.755
-853.811
-851.953
-851.105
-851.231
-852.337
-854.468
-857.715
-862.214
-868.137
-875.659
-884.895
-895.802
-908.119
-921.418
-935.251
-949.261
-963.185
-976.796
-989.863
-1002.26
-1014.18
-1025.77
-1034.83
-1040.34
-1042.07
-1040.96
-1039.13
-1037.99
-1037.89
-1038.87
-1040.66
-1042.12
-1041.18
-1036.36
-1028
-1016.64
-1004.7
-992.419
-979.484
-965.917
-951.918
-937.719
-923.567
-909.786
-896.806
-885.103
-875.02
-866.675
-859.99
-854.793
-850.892
-848.128
-846.384
-845.587
-802.973
-804.071
-806.164
-809.304
-813.562
-819.028
-825.788
-833.885
-843.276
-853.786
-865.124
-876.954
-888.979
-900.958
-912.696
-923.988
-934.563
-944.016
-951.946
-958.163
-962.475
-963.208
-960.499
-955.985
-952.665
-951.553
-952.214
-954.983
-959.614
-963.135
-963.515
-959.993
-954.134
-946.552
-937.403
-927.058
-915.951
-904.385
-892.573
-880.711
-869.029
-857.815
-847.398
-838.069
-830.018
-823.307
-817.905
-813.739
-810.727
-808.8
-807.913
-808.046
-809.2
-811.405
-814.71
-819.19
-824.928
-831.99
-840.386
-850.023
-860.681
-872.047
-883.801
-895.669
-907.433
-918.902
-929.843
-939.92
-948.683
-955.809
-961.212
-963.774
-962.412
-958.352
-953.984
-951.84
-951.644
-953.279
-957.179
-961.441
-963.373
-961.604
-956.657
-949.994
-941.636
-931.841
-921.045
-909.613
-897.794
-885.783
-873.786
-862.055
-850.904
-840.668
-831.609
-823.867
-817.458
-812.321
-808.367
-805.511
-803.685
-802.845
-763.709
-764.805
-766.879
-769.951
-774.049
-779.201
-785.425
-792.704
-800.961
-810.044
-819.73
-829.765
-839.905
-849.932
-859.644
-868.835
-877.269
-884.644
-890.586
-894.57
-895.81
-892.781
-885.367
-876.46
-869.745
-867.422
-868.859
-874.725
-883.668
-892.043
-896.266
-895.839
-892.334
-886.741
-879.631
-871.406
-862.389
-852.832
-842.948
-832.94
-823.023
-813.438
-804.437
-796.245
-789.026
-782.868
-777.799
-773.811
-770.881
-768.985
-768.106
-768.238
-769.38
-771.543
-774.747
-779.015
-784.368
-790.808
-798.293
-806.715
-815.892
-825.588
-835.549
-845.544
-855.36
-864.797
-873.632
-881.599
-888.352
-893.457
-896.293
-895.606
-890.109
-881.167
-872.718
-868.076
-867.623
-871.09
-878.707
-887.619
-894.026
-895.815
-893.724
-889.164
-882.802
-875.114
-866.455
-857.105
-847.291
-837.215
-827.082
-817.116
-807.566
-798.683
-790.674
-783.671
-777.732
-772.861
-769.038
-766.233
-764.42
-763.581
-726.736
-727.808
-729.823
-732.777
-736.662
-741.462
-747.146
-753.657
-760.897
-768.723
-776.95
-785.375
-793.795
-802.019
-809.857
-817.113
-823.563
-828.936
-832.905
-835.016
-834.593
-829.998
-819.253
-805.279
-794.298
-789.917
-792.756
-802.616
-816.708
-828.825
-834.751
-835.865
-834.192
-830.545
-825.42
-819.168
-812.075
-804.377
-796.278
-787.968
-779.64
-771.498
-763.746
-756.573
-750.131
-744.524
-739.821
-736.058
-733.256
-731.425
-730.572
-730.7
-731.808
-733.892
-736.946
-740.956
-745.899
-751.732
-758.377
-765.717
-773.59
-781.8
-790.141
-798.413
-806.424
-813.984
-820.879
-826.865
-831.639
-834.82
-835.868
-833.749
-826.127
-812.875
-799.395
-791.274
-790.346
-796.61
-808.899
-822.604
-831.753
-834.998
-834.653
-831.999
-827.624
-821.937
-815.251
-807.821
-799.863
-791.57
-783.13
-774.738
-766.598
-758.912
-751.854
-745.555
-740.101
-735.542
-731.903
-729.197
-727.432
-726.611
-691.184
-692.215
-694.143
-696.943
-700.581
-705.009
-710.161
-715.954
-722.276
-728.988
-735.928
-742.924
-749.801
-756.392
-762.528
-768.032
-772.705
-776.31
-778.553
-779.032
-777.174
-771.879
-760.937
-744.866
-730.595
-724.474
-728.536
-741.595
-758.203
-770.701
-777.033
-779.472
-779.394
-777.448
-774.072
-769.581
-764.226
-758.215
-751.732
-744.948
-738.035
-731.168
-724.524
-718.269
-712.548
-707.48
-703.158
-699.649
-697.006
-695.266
-694.451
-694.573
-695.63
-697.609
-700.481
-704.207
-708.731
-713.978
-719.851
-726.222
-732.941
-739.836
-746.731
-753.451
-759.827
-765.683
-770.832
-775.055
-778.089
-779.592
-779.083
-775.807
-768.039
-753.924
-737.47
-726.465
-725.106
-733.725
-749.259
-764.458
-773.705
-777.921
-779.09
-778.099
-775.463
-771.55
-766.637
-760.948
-754.676
-747.993
-741.069
-734.072
-727.176
-720.553
-714.359
-708.727
-703.759
-699.536
-696.116
-693.544
-691.853
-691.063
-656.447
-657.425
-659.244
-661.866
-665.235
-669.281
-673.917
-679.038
-684.525
-690.241
-696.038
-701.764
-707.267
-712.4
-717.016
-720.961
-724.068
-726.142
-726.94
-726.137
-723.271
-717.614
-707.8
-693.333
-679.126
-672.514
-676.978
-690.267
-705.48
-716.471
-722.881
-726.231
-727.381
-726.843
-724.972
-722.028
-718.215
-713.71
-708.67
-703.247
-697.591
-691.858
-686.204
-680.782
-675.734
-671.187
-667.249
-664.013
-661.55
-659.916
-659.149
-659.264
-660.259
-662.113
-664.783
-668.21
-672.315
-677.003
-682.161
-687.658
-693.347
-699.074
-704.683
-710.019
-714.933
-719.271
-722.873
-725.556
-727.103
-727.236
-725.564
-721.516
-714.06
-701.706
-686.224
-674.735
-673.215
-682.386
-697.425
-710.87
-719.427
-724.248
-726.514
-726.856
-725.694
-723.327
-719.981
-715.843
-711.076
-705.831
-700.255
-694.496
-688.706
-683.037
-677.635
-672.632
-668.144
-664.27
-661.093
-658.68
-657.081
-656.332
-622.128
-623.041
-624.732
-627.153
-630.234
-633.889
-638.017
-642.501
-647.216
-652.028
-656.8
-661.392
-665.672
-669.512
-672.785
-675.365
-677.12
-677.899
-677.522
-675.756
-672.286
-666.668
-658.242
-646.797
-635.271
-629.596
-633.491
-644.431
-656.426
-665.586
-671.727
-675.57
-677.614
-678.207
-677.6
-675.985
-673.52
-670.342
-666.582
-662.369
-657.837
-653.121
-648.365
-643.71
-639.298
-635.259
-631.712
-628.763
-626.498
-624.987
-624.274
-624.381
-625.305
-627.017
-629.467
-632.581
-636.266
-640.414
-644.902
-649.596
-654.355
-659.035
-663.496
-667.602
-671.221
-674.224
-676.479
-677.844
-678.155
-677.208
-674.728
-670.337
-663.475
-653.444
-641.179
-631.558
-630.211
-637.985
-650.017
-660.767
-668.38
-673.378
-676.361
-677.734
-677.785
-676.733
-674.746
-671.971
-668.536
-664.567
-660.192
-655.54
-650.744
-645.945
-641.279
-636.878
-632.866
-629.354
-626.441
-624.208
-622.72
-622.02
-587.996
-588.832
-590.376
-592.571
-595.34
-598.588
-602.205
-606.069
-610.053
-614.028
-617.863
-621.433
-624.619
-627.311
-629.403
-630.797
-631.397
-631.099
-629.785
-627.317
-623.521
-618.191
-611.118
-602.462
-594.084
-589.929
-592.818
-600.791
-609.716
-617.192
-622.852
-626.907
-629.581
-631.062
-631.498
-631.013
-629.713
-627.701
-625.075
-621.946
-618.427
-614.639
-610.714
-606.785
-602.989
-599.457
-596.313
-593.67
-591.624
-590.25
-589.6
-589.698
-590.54
-592.094
-594.303
-597.086
-600.342
-603.955
-607.798
-611.738
-615.639
-619.368
-622.796
-625.803
-628.277
-630.111
-631.206
-631.459
-630.761
-628.981
-625.963
-621.508
-615.386
-607.439
-598.427
-591.393
-590.379
-596.057
-604.832
-613.151
-619.75
-624.653
-628.08
-630.227
-631.26
-631.311
-630.491
-628.902
-626.641
-623.809
-620.51
-616.859
-612.975
-608.986
-605.021
-601.211
-597.681
-594.551
-591.926
-589.898
-588.538
-587.897
-553.946
-554.692
-556.065
-558.005
-560.432
-563.246
-566.335
-569.578
-572.85
-576.027
-578.987
-581.617
-583.812
-585.478
-586.529
-586.895
-586.513
-585.322
-583.265
-580.288
-576.336
-571.382
-565.476
-558.967
-553.101
-550.278
-552.261
-557.806
-564.379
-570.46
-575.59
-579.699
-582.812
-584.987
-586.281
-586.752
-586.461
-585.474
-583.862
-581.713
-579.124
-576.203
-573.069
-569.845
-566.663
-563.651
-560.933
-558.623
-556.82
-555.602
-555.024
-555.111
-555.859
-557.235
-559.178
-561.605
-564.41
-567.478
-570.683
-573.894
-576.984
-579.829
-582.312
-584.328
-585.783
-586.593
-586.69
-586.007
-584.487
-582.071
-578.7
-574.323
-568.929
-562.645
-556.14
-551.283
-550.578
-554.458
-560.69
-567.109
-572.778
-577.468
-581.158
-583.886
-585.708
-586.68
-586.858
-586.304
-585.083
-583.269
-580.949
-578.221
-575.192
-571.979
-568.703
-565.489
-562.462
-559.741
-557.436
-555.64
-554.43
-553.857
-519.961
-520.604
-521.779
-523.43
-525.475
-527.817
-530.347
-532.949
-535.505
-537.9
-540.021
-541.767
-543.047
-543.782
-543.906
-543.372
-542.149
-540.214
-537.563
-534.209
-530.191
-525.597
-520.616
-515.644
-511.519
-509.631
-510.966
-514.816
-519.727
-524.734
-529.387
-533.476
-536.904
-539.628
-541.631
-542.918
-543.507
-543.432
-542.739
-541.495
-539.78
-537.69
-535.329
-532.814
-530.263
-527.799
-525.54
-523.598
-522.068
-521.028
-520.533
-520.607
-521.248
-522.421
-524.067
-526.101
-528.424
-530.921
-533.474
-535.96
-538.26
-540.261
-541.86
-542.966
-543.502
-543.406
-542.636
-541.161
-538.968
-536.057
-532.449
-528.198
-523.426
-518.386
-513.635
-510.306
-509.827
-512.448
-516.914
-521.946
-526.851
-531.305
-535.154
-538.324
-540.786
-542.531
-543.569
-543.925
-543.634
-542.748
-541.336
-539.481
-537.278
-534.83
-532.25
-529.656
-527.166
-524.893
-522.945
-521.415
-520.378
-519.885
-486.094
-486.615
-487.564
-488.884
-490.499
-492.32
-494.246
-496.17
-497.987
-499.591
-500.884
-501.777
-502.191
-502.062
-501.344
-500.011
-498.056
-495.491
-492.354
-488.709
-484.659
-480.365
-476.072
-472.15
-469.16
-467.866
-468.78
-471.527
-475.316
-479.54
-483.809
-487.861
-491.527
-494.697
-497.299
-499.293
-500.664
-501.416
-501.575
-501.186
-500.316
-499.045
-497.466
-495.68
-493.796
-491.922
-490.168
-488.636
-487.415
-486.578
-486.178
-486.239
-486.756
-487.698
-489.008
-490.607
-492.401
-494.288
-496.156
-497.898
-499.405
-500.579
-501.329
-501.579
-501.268
-500.355
-498.82
-496.662
-493.906
-490.598
-486.817
-482.688
-478.402
-474.248
-470.665
-468.327
-467.997
-469.814
-473.118
-477.182
-481.505
-485.754
-489.709
-493.228
-496.218
-498.624
-500.415
-501.584
-502.142
-502.121
-501.573
-500.566
-499.182
-497.512
-495.657
-493.723
-491.816
-490.041
-488.496
-487.27
-486.432
-486.032
-452.446
-452.827
-453.514
-454.457
-455.588
-456.829
-458.092
-459.286
-460.32
-461.105
-461.558
-461.603
-461.175
-460.226
-458.724
-456.663
-454.056
-450.944
-447.394
-443.509
-439.432
-435.36
-431.552
-428.322
-426.037
-425.1
-425.755
-427.816
-430.876
-434.558
-438.545
-442.573
-446.436
-449.983
-453.105
-455.729
-457.811
-459.334
-460.302
-460.745
-460.715
-460.276
-459.506
-458.49
-457.322
-456.095
-454.901
-453.83
-452.959
-452.355
-452.063
-452.107
-452.483
-453.162
-454.092
-455.203
-456.414
-457.634
-458.771
-459.73
-460.421
-460.76
-460.671
-460.094
-458.982
-457.312
-455.084
-452.323
-449.081
-445.438
-441.515
-437.476
-433.541
-429.991
-427.156
-425.429
-425.194
-426.523
-429.097
-432.512
-436.418
-440.513
-444.555
-448.363
-451.805
-454.788
-457.253
-459.167
-460.52
-461.327
-461.623
-461.464
-460.916
-460.057
-458.972
-457.752
-456.487
-455.268
-454.181
-453.301
-452.692
-452.4
-419.157
-419.378
-419.766
-420.281
-420.866
-421.46
-421.992
-422.391
-422.586
-422.507
-422.087
-421.267
-419.999
-418.246
-415.994
-413.249
-410.044
-406.439
-402.522
-398.421
-394.302
-390.374
-386.883
-384.087
-382.222
-381.49
-381.993
-383.646
-386.253
-389.583
-393.387
-397.42
-401.465
-405.351
-408.943
-412.147
-414.897
-417.157
-418.919
-420.195
-421.02
-421.444
-421.528
-421.339
-420.95
-420.434
-419.864
-419.311
-418.837
-418.497
-418.329
-418.355
-418.57
-418.949
-419.449
-420.013
-420.575
-421.065
-421.409
-421.533
-421.366
-420.841
-419.902
-418.501
-416.609
-414.217
-411.343
-408.03
-404.349
-400.407
-396.347
-392.352
-388.648
-385.485
-383.108
-381.741
-381.564
-382.612
-384.743
-387.747
-391.377
-395.378
-399.51
-403.576
-407.42
-410.926
-414.013
-416.629
-418.748
-420.37
-421.516
-422.224
-422.548
-422.549
-422.293
-421.853
-421.298
-420.702
-420.13
-419.645
-419.299
-419.13
-386.406
-386.443
-386.493
-386.525
-386.499
-386.373
-386.1
-385.631
-384.919
-383.916
-382.576
-380.857
-378.726
-376.163
-373.168
-369.76
-365.983
-361.912
-357.65
-353.337
-349.148
-345.29
-341.986
-339.442
-337.813
-337.19
-337.609
-339.034
-341.38
-344.506
-348.216
-352.293
-356.526
-360.735
-364.774
-368.533
-371.934
-374.928
-377.49
-379.62
-381.336
-382.672
-383.669
-384.373
-384.834
-385.101
-385.224
-385.251
-385.224
-385.183
-385.157
-385.161
-385.193
-385.234
-385.25
-385.203
-385.047
-384.734
-384.214
-383.437
-382.355
-380.923
-379.101
-376.859
-374.182
-371.078
-367.577
-363.735
-359.639
-355.408
-351.197
-347.196
-343.619
-340.682
-338.567
-337.4
-337.256
-338.15
-340.031
-342.793
-346.264
-350.23
-354.469
-358.784
-363.006
-367.007
-370.692
-373.993
-376.875
-379.322
-381.341
-382.956
-384.204
-385.126
-385.769
-386.182
-386.413
-386.509
-386.516
-386.477
-386.429
-386.4
-354.402
-354.235
-353.907
-353.401
-352.698
-351.778
-350.62
-349.204
-347.509
-345.51
-343.185
-340.515
-337.482
-334.083
-330.329
-326.251
-321.905
-317.373
-312.766
-308.229
-303.935
-300.082
-296.865
-294.448
-292.936
-292.367
-292.744
-294.058
-296.275
-299.306
-302.999
-307.164
-311.604
-316.142
-320.628
-324.945
-329.004
-332.747
-336.138
-339.163
-341.823
-344.134
-346.115
-347.789
-349.178
-350.305
-351.192
-351.861
-352.332
-352.625
-352.756
-352.737
-352.565
-352.227
-351.706
-350.983
-350.035
-348.841
-347.38
-345.628
-343.562
-341.161
-338.406
-335.285
-331.799
-327.969
-323.835
-319.465
-314.952
-310.424
-306.037
-301.977
-298.441
-295.612
-293.627
-292.557
-292.429
-293.248
-295.005
-297.645
-301.047
-305.035
-309.41
-313.981
-318.58
-323.072
-327.352
-331.348
-335.009
-338.312
-341.248
-343.825
-346.062
-347.979
-349.599
-350.945
-352.038
-352.9
-353.55
-354.008
-354.293
-354.421
-323.389
-322.995
-322.251
-321.155
-319.71
-317.924
-315.803
-313.358
-310.596
-307.523
-304.141
-300.452
-296.461
-292.179
-287.631
-282.859
-277.925
-272.915
-267.946
-263.16
-258.725
-254.819
-251.613
-249.239
-247.77
-247.22
-247.584
-248.859
-251.037
-254.056
-257.797
-262.096
-266.774
-271.664
-276.616
-281.512
-286.258
-290.788
-295.056
-299.032
-302.704
-306.064
-309.108
-311.832
-314.23
-316.294
-318.016
-319.387
-320.404
-321.065
-321.371
-321.325
-320.927
-320.174
-319.064
-317.601
-315.789
-313.637
-311.153
-308.344
-305.217
-301.775
-298.022
-293.967
-289.628
-285.036
-280.243
-275.322
-270.373
-265.524
-260.928
-256.759
-253.193
-250.386
-248.442
-247.407
-247.283
-248.075
-249.785
-252.388
-255.793
-259.855
-264.399
-269.247
-274.239
-279.238
-284.136
-288.853
-293.333
-297.54
-301.452
-305.06
-308.361
-311.353
-314.032
-316.393
-318.426
-320.124
-321.477
-322.481
-323.132
-323.434
-293.631
-292.994
-291.801
-290.069
-287.825
-285.105
-281.948
-278.395
-274.486
-270.256
-265.737
-260.956
-255.939
-250.714
-245.321
-239.81
-234.251
-228.732
-223.37
-218.303
-213.684
-209.676
-206.423
-204.034
-202.562
-202.014
-202.381
-203.665
-205.864
-208.934
-212.778
-217.257
-222.213
-227.489
-232.945
-238.46
-243.939
-249.309
-254.514
-259.512
-264.27
-268.759
-272.947
-276.803
-280.287
-283.36
-285.981
-288.111
-289.717
-290.774
-291.268
-291.194
-290.553
-289.351
-287.606
-285.345
-282.602
-279.418
-275.832
-271.887
-267.616
-263.054
-258.23
-253.174
-247.921
-242.517
-237.021
-231.511
-226.09
-220.884
-216.037
-211.71
-208.057
-205.208
-203.248
-202.205
-202.079
-202.87
-204.585
-207.209
-210.673
-214.856
-219.608
-224.767
-230.182
-235.72
-241.274
-246.759
-252.111
-257.284
-262.242
-266.957
-271.403
-275.551
-279.37
-282.823
-285.868
-288.466
-290.578
-292.169
-293.217
-293.706
-265.42
-264.524
-262.857
-260.453
-257.366
-253.659
-249.404
-244.675
-239.546
-234.084
-228.351
-222.4
-216.284
-210.049
-203.749
-197.444
-191.208
-185.136
-179.339
-173.948
-169.103
-164.946
-161.601
-159.154
-157.651
-157.093
-157.475
-158.798
-161.063
-164.234
-168.232
-172.939
-178.219
-183.928
-189.934
-196.121
-202.392
-208.666
-214.879
-220.973
-226.894
-232.589
-237.998
-243.057
-247.695
-251.837
-255.409
-258.34
-260.568
-262.045
-262.738
-262.634
-261.735
-260.059
-257.643
-254.538
-250.811
-246.532
-241.778
-236.621
-231.131
-225.371
-219.399
-213.269
-207.035
-200.755
-194.498
-188.348
-182.407
-176.798
-171.654
-167.12
-163.329
-160.39
-158.371
-157.296
-157.161
-157.967
-159.72
-162.409
-165.978
-170.329
-175.331
-180.842
-186.723
-192.848
-199.109
-205.419
-211.707
-217.916
-223.994
-229.892
-235.56
-240.94
-245.97
-250.581
-254.698
-258.247
-261.159
-263.372
-264.838
-265.525
-239.059
-237.898
-235.742
-232.647
-228.689
-223.962
-218.569
-212.618
-206.215
-199.461
-192.449
-185.262
-177.976
-170.663
-163.39
-156.228
-149.259
-142.578
-136.294
-130.528
-125.408
-121.055
-117.574
-115.036
-113.477
-112.902
-113.307
-114.694
-117.061
-120.378
-124.581
-129.57
-135.227
-141.425
-148.041
-154.961
-162.088
-169.334
-176.624
-183.884
-191.037
-198.003
-204.693
-211.009
-216.847
-222.098
-226.654
-230.411
-233.281
-235.189
-236.088
-235.953
-234.788
-232.624
-229.515
-225.54
-220.794
-215.379
-209.407
-202.984
-196.213
-189.19
-182.001
-174.727
-167.441
-160.219
-153.137
-146.286
-139.768
-133.7
-128.206
-123.412
-119.434
-116.361
-114.25
-113.122
-112.974
-113.807
-115.625
-118.416
-122.135
-126.701
-132.003
-137.917
-144.317
-151.084
-158.112
-165.311
-172.602
-179.914
-187.181
-194.33
-201.282
-207.953
-214.246
-220.06
-225.287
-229.819
-233.557
-236.409
-238.305
-239.196
-214.857
-213.43
-210.788
-207.001
-202.173
-196.422
-189.883
-182.696
-174.997
-166.921
-158.592
-150.123
-141.618
-133.172
-124.867
-116.788
-109.025
-101.675
-94.8444
-88.6457
-83.1925
-78.5901
-74.9258
-72.2601
-70.6244
-70.026
-70.4628
-71.9361
-74.4414
-77.9526
-82.4148
-87.7455
-93.8419
-100.591
-107.879
-115.596
-123.642
-131.921
-140.344
-148.822
-157.253
-165.529
-173.528
-181.123
-188.175
-194.543
-200.086
-204.672
-208.182
-210.522
-211.625
-211.459
-210.03
-207.377
-203.577
-198.73
-192.959
-186.4
-179.193
-171.481
-163.397
-155.071
-146.618
-138.145
-129.751
-121.524
-113.555
-105.94
-98.7821
-92.1927
-86.2863
-81.1741
-76.9544
-73.7031
-71.4673
-70.2664
-70.1016
-70.9727
-72.8808
-75.8133
-79.7315
-84.5671
-90.2273
-96.6035
-103.582
-111.051
-118.907
-127.054
-135.405
-143.876
-152.381
-160.823
-169.097
-177.085
-184.661
-191.69
-198.033
-203.551
-208.114
-211.605
-213.931
-215.025
-193.164
-191.483
-188.372
-183.919
-178.249
-171.507
-163.852
-155.454
-146.48
-137.093
-127.448
-117.686
-107.938
-98.3239
-88.9445
-79.8984
-71.2842
-63.2035
-55.7609
-49.0624
-43.2104
-38.2971
-34.3976
-31.5646
-29.8279
-29.1975
-29.6744
-31.2584
-33.9422
-37.7005
-42.4849
-48.2244
-54.829
-62.1969
-70.221
-78.7939
-87.8101
-97.1661
-106.758
-116.477
-126.198
-135.783
-145.083
-153.937
-162.177
-169.632
-176.133
-181.519
-185.647
-188.403
-189.703
-189.507
-187.822
-184.7
-180.231
-174.541
-167.776
-160.101
-151.685
-142.7
-133.312
-123.678
-113.946
-104.249
-94.7081
-85.4306
-76.52
-68.0803
-60.2175
-53.0393
-46.652
-41.1548
-36.6336
-33.1536
-30.757
-29.4635
-29.2777
-30.1992
-32.2259
-35.3433
-39.5157
-44.6842
-50.7687
-57.6735
-65.2948
-73.5267
-82.2651
-91.4096
-100.862
-110.523
-120.286
-130.03
-139.621
-148.914
-157.751
-165.968
-173.396
-179.868
-185.228
-189.335
-192.073
-193.363
-174.187
-172.275
-168.737
-163.68
-157.242
-149.593
-140.914
-131.397
-121.236
-110.62
-99.7283
-88.7299
-77.7804
-67.0216
-56.5741
-46.5519
-37.0644
-28.2189
-20.121
-12.8726
-6.56889
-1.29356
2.88549
5.91923
7.77748
8.44649
7.92256
6.20747
3.31204
-0.737318
-5.89532
-12.0972
-19.2612
-27.2926
-36.0883
-45.5401
-55.5368
-65.9639
-76.7013
-87.6218
-98.5758
-109.4
-119.918
-129.944
-139.282
-147.736
-155.112
-161.227
-165.918
-169.051
-170.53
-170.307
-168.39
-164.841
-159.765
-153.305
-145.63
-136.928
-127.392
-117.221
-106.607
-95.7337
-84.7745
-73.8888
-63.22
-52.8938
-43.0285
-33.7376
-25.1317
-17.3178
-10.3972
-4.4618
0.410844
4.16092
6.74826
8.15102
8.36138
7.37901
5.20963
1.87083
-2.60239
-8.15591
-14.7173
-22.1994
-30.5048
-39.5305
-49.1703
-59.3164
-69.8584
-80.6808
-91.6575
-102.643
-113.479
-123.992
-134
-143.312
-151.736
-159.081
-165.167
-169.832
-172.946
-174.413
-157.971
-155.868
-151.98
-146.422
-139.35
-130.947
-121.412
-110.957
-99.7921
-88.1266
-76.1603
-64.0825
-52.0694
-40.282
-28.8596
-17.9318
-7.61978
1.96156
10.7035
18.5044
25.2721
30.9265
35.4023
38.6506
40.6388
41.3492
40.7755
38.9213
35.801
31.444
25.896
19.2196
11.4934
2.8095
-6.72931
-17.0116
-27.9185
-39.3234
-51.0905
-63.0736
-75.1033
-86.9954
-98.553
-109.569
-119.829
-129.116
-137.22
-143.939
-149.094
-152.538
-154.165
-153.92
-151.812
-147.91
-142.332
-135.234
-126.803
-117.242
-106.765
-95.5888
-83.9256
-71.9804
-59.9469
-48.0055
-36.3191
-25.0316
-14.2761
-4.17723
5.14811
13.5906
21.0499
27.4374
32.6783
36.7144
39.5043
41.0231
41.2592
40.2117
37.8897
34.3145
29.5229
23.5682
16.5197
8.4611
-0.512728
-10.2981
-20.7847
-31.8559
-43.3884
-55.2502
-67.2969
-79.3627
-91.2679
-102.82
-113.817
-124.048
-133.302
-141.371
-148.057
-153.184
-156.606
-158.22
-149.922
-147.583
-143.259
-137.076
-129.207
-119.852
-109.232
-97.5768
-85.121
-72.0948
-58.721
-45.2114
-31.7649
-18.566
-5.77839
6.4464
17.9684
28.6582
38.3963
47.074
54.5943
60.8735
65.8428
69.4491
71.6549
72.4377
71.7885
69.7129
66.23
61.3739
55.1951
47.76
39.1513
29.4659
18.8143
7.31871
-4.88701
-17.6573
-30.8338
-44.2451
-57.6986
-70.9866
-83.8891
-96.176
-107.61
-117.954
-126.974
-134.449
-140.184
-144.014
-145.824
-145.551
-143.207
-138.867
-132.661
-124.764
-115.378
-104.728
-93.0489
-80.5799
-67.5561
-54.2053
-40.7445
-27.3777
-14.2916
-1.65449
10.3788
21.6657
32.0754
41.4886
49.7983
56.9111
62.7486
67.2483
70.3642
72.0662
72.3389
71.1804
68.6033
64.6339
59.3137
52.7001
44.866
35.8985
25.898
14.9762
3.25525
-9.13268
-22.0446
-35.3257
-48.8076
-62.3012
-75.6039
-88.5007
-100.766
-112.169
-122.475
-131.456
-138.895
-144.598
-148.404
-150.199
-110.71
-108.868
-105.465
-100.603
-94.4175
-87.0672
-78.725
-69.5714
-59.7887
-49.5562
-39.0473
-28.4266
-17.8494
-7.46027
2.60853
12.2352
21.3079
29.724
37.3896
44.22
50.1397
55.0836
58.9975
61.839
63.577
64.1921
63.6758
62.0334
59.282
55.45
50.578
44.7183
37.9355
30.3052
21.9134
12.8564
3.24009
-6.81916
-17.1943
-27.747
-38.3263
-48.7707
-58.9088
-68.5617
-77.5448
-85.6722
-92.7615
-98.6398
-103.152
-106.167
-107.592
-107.378
-105.531
-102.115
-97.2337
-91.0242
-83.6476
-75.2798
-66.1047
-56.3084
-46.0741
-35.5792
-24.9923
-14.4726
-4.1677
5.78713
15.2676
24.1601
32.3611
39.7771
46.3246
51.9309
56.5345
60.0862
62.5485
63.8962
64.115
63.2033
61.1725
58.0452
53.8553
48.6486
42.4819
35.4234
27.5509
18.9519
9.72235
-0.0325356
-10.1983
-20.6505
-31.2539
-41.8606
-52.3127
-62.4431
-72.0764
-81.0321
-89.128
-96.1848
-102.033
-106.519
-109.515
-110.928
-241.894
-237.363
-228.975
-216.971
-201.669
-183.448
-162.726
-139.94
-115.538
-89.9607
-63.6365
-36.974
-10.3593
15.8437
41.2828
65.633
88.5973
109.906
129.317
146.611
161.598
174.114
184.023
191.214
195.609
197.157
195.835
191.66
184.674
174.954
162.602
147.754
130.572
111.249
90.0047
67.0892
42.7801
17.3852
-8.75802
-35.2835
-61.8126
-87.9446
-113.256
-137.306
-159.64
-179.806
-197.36
-211.886
-223.014
-230.439
-233.943
-233.416
-228.874
-220.459
-208.414
-193.061
-174.785
-154.012
-131.187
-106.766
-81.2002
-54.9259
-28.3612
-1.90147
24.078
49.2182
73.1895
95.6918
116.455
135.236
151.823
166.03
177.702
186.713
192.967
196.395
196.962
194.662
189.525
181.609
171.002
157.82
142.207
124.335
104.401
82.6303
59.2727
34.6051
8.93198
-17.4145
-44.0784
-70.6899
-96.8569
-122.165
-146.181
-168.462
-188.561
-206.045
-220.504
-231.574
-238.954
-242.431
)
;

boundaryField
{
    top
    {
        type            calculated;
        value           nonuniform List<scalar> 
102
(
-9.81
-9.81
-9.81
-9.81
-9.81
-9.81
-9.81
-9.81
-9.81
-9.81
-9.81
-9.81
-9.81
-9.81
-9.81
-9.81
-9.81
-9.81
-9.81
-9.81
-9.81
-9.81
-9.81
-9.81
-9.81
-9.81
-9.81
-9.81
-9.81
-9.81
-9.81
-9.81
-9.81
-9.81
-9.81
-9.81
-9.81
-9.81
-9.81
-9.81
-9.81
-9.81
-9.81
-9.81
-9.81
-9.81
-9.81
-9.81
-9.81
-9.81
-9.81
-9.81
-9.81
-9.81
-9.81
-9.81
-9.81
-9.81
-9.81
-9.81
-9.81
-9.81
-9.81
-9.81
-9.81
-9.81
-9.81
-9.81
-9.81
-9.81
-9.81
-9.81
-9.81
-9.81
-9.81
-9.81
-9.81
-9.81
-9.81
-9.81
-9.81
-9.81
-9.81
-9.81
-9.81
-9.81
-9.81
-9.81
-9.81
-9.81
-9.81
-9.81
-9.81
-9.81
-9.81
-9.81
-9.81
-9.81
-9.81
-9.81
-9.81
-9.81
)
;
    }
    bottom
    {
        type            calculated;
        value           nonuniform List<scalar> 
102
(
-963.048
-967.211
-974.822
-985.477
-998.603
-1013.55
-1029.87
-1047.73
-1068.33
-1093.33
-1123.63
-1158.44
-1196.11
-1234.94
-1273.2
-1309.26
-1341.77
-1369.92
-1392.88
-1409.66
-1420.54
-1426.48
-1428.85
-1429.19
-1428.78
-1428.43
-1428.46
-1428.65
-1428.31
-1426.25
-1420.95
-1410.95
-1395.21
-1373.22
-1345.76
-1313.77
-1278.08
-1240
-1201.22
-1163.56
-1128.71
-1098.3
-1073.08
-1052.34
-1034.6
-1018.69
-1004.36
-991.994
-982.205
-975.53
-972.345
-972.83
-976.955
-984.49
-995.011
-1007.95
-1022.72
-1039.04
-1057.41
-1079.2
-1105.79
-1137.49
-1173.24
-1211.37
-1250.15
-1287.75
-1322.58
-1353.44
-1379.57
-1399.95
-1414.09
-1422.73
-1427.02
-1428.49
-1428.59
-1428.39
-1428.47
-1428.88
-1429.19
-1428.45
-1425.28
-1418.15
-1405.79
-1387.33
-1362.89
-1333.52
-1299.97
-1263.18
-1224.61
-1185.92
-1148.85
-1115.07
-1086.17
-1062.5
-1042.78
-1025.4
-1009.43
-994.903
-982.371
-972.476
-965.752
-962.553
)
;
    }
    frontAndBack
    {
        type            empty;
    }
    left_cyc
    {
        type            cyclic;
    }
    right_cyc
    {
        type            cyclic;
    }
}


// ************************************************************************* //
