/*--------------------------------*- C++ -*----------------------------------*\
| =========                 |                                                 |
| \\      /  F ield         | OpenFOAM: The Open Source CFD Toolbox           |
|  \\    /   O peration     | Version:  2.3.0                                 |
|   \\  /    A nd           | Web:      www.OpenFOAM.org                      |
|    \\/     M anipulation  |                                                 |
\*---------------------------------------------------------------------------*/
FoamFile
{
    version     2.0;
    format      ascii;
    class       volScalarField;
    location    "12000";
    object      p_rgh;
}
// * * * * * * * * * * * * * * * * * * * * * * * * * * * * * * * * * * * * * //

dimensions      [0 2 -2 0 0 0 0];

internalField   nonuniform List<scalar> 
3060
(
-963.048
-967.211
-974.822
-985.477
-998.603
-1013.55
-1029.87
-1047.73
-1068.33
-1093.33
-1123.63
-1158.44
-1196.11
-1234.94
-1273.2
-1309.26
-1341.77
-1369.92
-1392.88
-1409.66
-1420.54
-1426.48
-1428.85
-1429.19
-1428.78
-1428.43
-1428.46
-1428.65
-1428.31
-1426.25
-1420.95
-1410.95
-1395.21
-1373.22
-1345.76
-1313.77
-1278.08
-1240
-1201.22
-1163.56
-1128.71
-1098.3
-1073.08
-1052.34
-1034.6
-1018.69
-1004.36
-991.994
-982.205
-975.53
-972.345
-972.83
-976.955
-984.49
-995.011
-1007.95
-1022.72
-1039.04
-1057.41
-1079.2
-1105.79
-1137.49
-1173.24
-1211.37
-1250.15
-1287.75
-1322.58
-1353.44
-1379.57
-1399.95
-1414.09
-1422.73
-1427.02
-1428.49
-1428.59
-1428.39
-1428.47
-1428.88
-1429.19
-1428.45
-1425.28
-1418.15
-1405.79
-1387.33
-1362.89
-1333.52
-1299.97
-1263.18
-1224.61
-1185.92
-1148.85
-1115.07
-1086.17
-1062.5
-1042.78
-1025.4
-1009.43
-994.903
-982.371
-972.476
-965.752
-962.553
-1083.08
-1083.13
-1083.23
-1083.38
-1083.76
-1084.85
-1087.72
-1094.16
-1106.3
-1125.3
-1150.39
-1179.42
-1210.29
-1241.33
-1271.02
-1298.38
-1324.31
-1349.76
-1372.74
-1390.26
-1402.08
-1409.31
-1413.27
-1415.17
-1415.93
-1416.09
-1415.83
-1415.04
-1413.24
-1409.62
-1402.99
-1392.05
-1375.64
-1353.47
-1328.15
-1302.2
-1275.16
-1245.91
-1215.2
-1184.6
-1155.81
-1130.86
-1111.79
-1099.43
-1092.77
-1089.8
-1088.72
-1088.41
-1088.35
-1088.34
-1088.34
-1088.34
-1088.34
-1088.35
-1088.45
-1088.89
-1090.33
-1094.06
-1102.03
-1116.14
-1136.91
-1163.08
-1192.53
-1223.32
-1253.78
-1282.46
-1309.05
-1334.92
-1359.74
-1380.54
-1395.4
-1405.08
-1410.79
-1413.83
-1415.29
-1415.91
-1416.06
-1415.78
-1414.78
-1412.44
-1407.73
-1399.41
-1386.19
-1367.06
-1343.09
-1317.45
-1291.32
-1263.34
-1233.15
-1202
-1171.46
-1143.25
-1119.59
-1102.44
-1091.99
-1086.71
-1084.46
-1083.63
-1083.34
-1083.2
-1083.12
-1083.07
-1082.02
-1083.15
-1085.33
-1088.64
-1093.32
-1099.71
-1108.3
-1119.66
-1134.23
-1152
-1172.27
-1194.02
-1216.52
-1239.54
-1263.25
-1288.3
-1314.65
-1339.54
-1359.95
-1376.08
-1388.58
-1396.52
-1400.86
-1403.1
-1404.19
-1404.52
-1404.19
-1403.13
-1401.03
-1397.11
-1389.96
-1378.28
-1362.79
-1343.36
-1319.31
-1293.13
-1268.01
-1244.41
-1221.65
-1199.47
-1178.02
-1158
-1140.38
-1125.84
-1114.46
-1105.88
-1099.54
-1094.95
-1091.77
-1089.78
-1088.87
-1089.01
-1090.19
-1092.48
-1096
-1101
-1107.88
-1117.15
-1129.33
-1144.72
-1163.06
-1183.54
-1205.23
-1227.56
-1250.49
-1274.43
-1299.99
-1325.99
-1348.92
-1367.18
-1381.76
-1392.22
-1398.37
-1401.69
-1403.46
-1404.31
-1404.47
-1403.96
-1402.62
-1399.94
-1394.8
-1385.66
-1372.12
-1354.99
-1333.29
-1307.63
-1281.48
-1256.85
-1233.37
-1210.5
-1188.15
-1166.7
-1147
-1130.05
-1116.35
-1105.78
-1097.83
-1091.94
-1087.65
-1084.65
-1082.76
-1081.88
-1047.33
-1049.21
-1052.74
-1058
-1065.11
-1074.28
-1085.79
-1099.89
-1116.57
-1135.45
-1155.76
-1176.75
-1198.02
-1219.49
-1241.28
-1263.69
-1286.97
-1310.17
-1332.22
-1352.04
-1366.86
-1377.3
-1383.5
-1386.7
-1388.39
-1389
-1388.53
-1386.99
-1384.11
-1378.7
-1369.13
-1355.44
-1336.66
-1315.08
-1292.25
-1269.02
-1246.58
-1224.85
-1203.55
-1182.5
-1161.75
-1141.66
-1122.94
-1106.33
-1092.29
-1080.83
-1071.77
-1064.84
-1059.82
-1056.59
-1055.09
-1055.32
-1057.27
-1060.96
-1066.46
-1073.92
-1083.58
-1095.7
-1110.44
-1127.66
-1146.82
-1167.14
-1187.99
-1209.11
-1230.52
-1252.38
-1275.06
-1298.35
-1320.86
-1342
-1359.5
-1372.01
-1380.46
-1385.02
-1387.48
-1388.73
-1388.92
-1388.03
-1386.01
-1382.21
-1374.9
-1363.42
-1347.18
-1326.49
-1304.11
-1280.73
-1257.66
-1235.47
-1213.77
-1192.37
-1171.15
-1150.28
-1130.26
-1111.91
-1095.89
-1082.5
-1071.63
-1063.03
-1056.43
-1051.64
-1048.55
-1047.11
-1013.47
-1015.69
-1019.84
-1025.93
-1033.99
-1044.11
-1056.39
-1070.9
-1087.61
-1106.31
-1126.6
-1148.01
-1170.16
-1192.78
-1215.64
-1238.46
-1260.98
-1283.14
-1305.17
-1325.88
-1342.77
-1355.24
-1362.87
-1367.18
-1369.67
-1370.69
-1370.01
-1367.8
-1363.97
-1357.31
-1346.1
-1330.32
-1310.45
-1288.53
-1266.4
-1243.92
-1221.15
-1198.32
-1175.77
-1153.71
-1132.41
-1112.23
-1093.63
-1077
-1062.59
-1050.44
-1040.5
-1032.68
-1026.9
-1023.13
-1021.36
-1021.63
-1023.92
-1028.22
-1034.52
-1042.89
-1053.4
-1066.13
-1081.14
-1098.32
-1117.38
-1137.89
-1159.42
-1181.64
-1204.29
-1227.13
-1249.85
-1272.23
-1294.3
-1316
-1334.86
-1349.52
-1359.42
-1365.16
-1368.49
-1370.32
-1370.55
-1369.13
-1366.24
-1361.22
-1352.41
-1338.69
-1320.71
-1299.34
-1277.3
-1255.05
-1232.43
-1209.58
-1186.75
-1164.23
-1142.25
-1121.1
-1101.18
-1082.98
-1066.83
-1052.92
-1041.23
-1031.66
-1024.13
-1018.56
-1014.91
-1013.2
-978.619
-981.222
-986.054
-993.065
-1002.22
-1013.5
-1026.88
-1042.32
-1059.7
-1078.82
-1099.38
-1121.06
-1143.6
-1166.81
-1190.54
-1214.54
-1238.44
-1261.66
-1283.56
-1303.62
-1321.23
-1334.21
-1342.18
-1346.24
-1348.76
-1350.09
-1349.24
-1346.92
-1343.56
-1336.82
-1325.23
-1308.56
-1288.88
-1267.24
-1244.17
-1220.31
-1196.28
-1172.51
-1149.27
-1126.73
-1105.07
-1084.56
-1065.5
-1048.19
-1032.86
-1019.63
-1008.58
-999.713
-993.074
-988.696
-986.631
-986.944
-989.619
-994.591
-1001.81
-1011.25
-1022.88
-1036.66
-1052.53
-1070.32
-1089.79
-1110.63
-1132.55
-1155.29
-1178.69
-1202.56
-1226.6
-1250.32
-1273.07
-1294.23
-1313.32
-1328.78
-1338.99
-1344.65
-1347.57
-1349.64
-1349.9
-1348.14
-1345.41
-1340.49
-1331.27
-1316.93
-1298.5
-1277.92
-1255.61
-1232.15
-1208.18
-1184.22
-1160.61
-1137.56
-1115.22
-1093.81
-1073.6
-1054.91
-1038.03
-1023.13
-1010.3
-999.586
-990.997
-984.559
-980.312
-978.309
-945.699
-948.648
-954.091
-961.921
-972.028
-984.299
-998.622
-1014.87
-1032.9
-1052.51
-1073.49
-1095.6
-1118.68
-1142.58
-1167.18
-1192.28
-1217.49
-1242.33
-1266.09
-1287.85
-1306.26
-1319.15
-1325.68
-1327.95
-1328.84
-1329.67
-1329.16
-1328.42
-1326.95
-1321.94
-1310.59
-1293.16
-1271.89
-1248.36
-1223.58
-1198.31
-1173.1
-1148.36
-1124.34
-1101.17
-1078.98
-1057.98
-1038.37
-1020.38
-1004.23
-990.071
-978.046
-968.275
-960.873
-955.952
-953.619
-953.974
-956.991
-962.569
-970.6
-980.971
-993.564
-1008.26
-1024.91
-1043.34
-1063.34
-1084.67
-1107.13
-1130.54
-1154.76
-1179.66
-1204.93
-1230.14
-1254.67
-1277.73
-1298.19
-1314.2
-1323.77
-1327.51
-1328.56
-1329.38
-1329.52
-1328.57
-1327.56
-1324.48
-1316.35
-1301.82
-1282.34
-1259.95
-1235.82
-1210.83
-1185.61
-1160.61
-1136.18
-1112.48
-1089.64
-1067.81
-1047.18
-1027.96
-1010.39
-994.633
-980.842
-969.133
-959.619
-952.41
-947.617
-945.348
-915.414
-918.74
-924.852
-933.578
-944.724
-958.087
-973.465
-990.659
-1009.47
-1029.72
-1051.22
-1073.81
-1097.41
-1121.93
-1147.33
-1173.43
-1199.88
-1226.16
-1251.58
-1275.19
-1295.63
-1310.47
-1316.79
-1316.5
-1314.78
-1314.22
-1314.72
-1316.54
-1317.9
-1313.64
-1300.56
-1280.99
-1257.81
-1232.55
-1206.25
-1179.66
-1153.35
-1127.72
-1102.98
-1079.19
-1056.43
-1034.81
-1014.51
-995.691
-978.573
-963.36
-950.262
-939.492
-931.253
-925.737
-923.113
-923.512
-926.904
-933.146
-942.064
-953.462
-967.131
-982.861
-1000.44
-1019.67
-1040.33
-1062.26
-1085.3
-1109.34
-1134.31
-1160.16
-1186.6
-1213.18
-1239.29
-1264.13
-1286.54
-1304.75
-1315.55
-1317.82
-1315.93
-1314.44
-1314.22
-1315.13
-1316.89
-1315.92
-1307.28
-1290.63
-1269.18
-1244.98
-1219.25
-1192.87
-1166.48
-1140.53
-1115.35
-1091.07
-1067.73
-1045.41
-1024.23
-1004.34
-985.937
-969.204
-954.34
-941.544
-931.02
-922.968
-917.579
-915.017
-887.701
-891.474
-898.379
-908.168
-920.554
-935.232
-951.898
-970.273
-990.107
-1011.19
-1033.37
-1056.55
-1080.68
-1105.77
-1131.88
-1158.86
-1186.39
-1213.98
-1240.94
-1266.27
-1288.62
-1305.92
-1314.84
-1314.67
-1311.12
-1309.38
-1310.76
-1314.55
-1316.38
-1309.82
-1294.05
-1272.49
-1247.53
-1220.67
-1192.97
-1165.21
-1137.92
-1111.48
-1086.05
-1061.62
-1038.19
-1015.81
-994.589
-974.703
-956.374
-939.866
-925.474
-913.508
-904.274
-898.054
-895.085
-895.536
-899.372
-906.402
-916.376
-929.004
-943.977
-960.986
-979.745
-999.998
-1021.54
-1044.2
-1067.89
-1092.58
-1118.26
-1144.96
-1172.42
-1200.24
-1227.81
-1254.3
-1278.53
-1298.86
-1312.52
-1316.46
-1313.45
-1310.07
-1309.52
-1311.99
-1315.32
-1313.45
-1302
-1283.09
-1259.8
-1233.92
-1206.71
-1179.08
-1151.66
-1124.88
-1099.04
-1074.2
-1050.32
-1027.4
-1005.5
-984.723
-965.252
-947.303
-931.134
-917.033
-905.305
-896.253
-890.157
-887.25
-862.042
-866.358
-874.232
-885.328
-899.249
-915.569
-933.868
-953.764
-974.937
-997.145
-1020.23
-1044.14
-1068.88
-1094.56
-1121.3
-1149.02
-1177.44
-1206.15
-1234.46
-1261.38
-1285.58
-1305.19
-1317.58
-1320.85
-1318.53
-1316.73
-1318.26
-1321.29
-1320.05
-1309.75
-1291.43
-1267.96
-1241.34
-1213.05
-1184.15
-1155.39
-1127.27
-1100.08
-1073.97
-1048.82
-1024.55
-1001.17
-978.75
-957.466
-937.581
-919.435
-903.425
-889.978
-879.52
-872.439
-869.049
-869.564
-873.941
-881.935
-893.21
-907.366
-923.973
-942.608
-962.886
-984.488
-1007.17
-1030.79
-1055.28
-1080.68
-1107.05
-1134.51
-1162.85
-1191.71
-1220.54
-1248.52
-1274.48
-1296.82
-1313.32
-1321.13
-1320.6
-1317.53
-1316.89
-1319.29
-1320.77
-1315.17
-1300.58
-1279.54
-1254.47
-1227.06
-1198.57
-1169.88
-1141.61
-1114.13
-1087.68
-1062.26
-1037.74
-1014.04
-991.174
-969.219
-948.354
-928.845
-911.03
-895.303
-882.09
-871.811
-864.852
-861.525
-837.711
-842.686
-851.739
-864.435
-880.247
-898.606
-918.955
-940.79
-963.698
-987.382
-1011.67
-1036.53
-1062.02
-1088.33
-1115.66
-1143.99
-1173.13
-1202.73
-1232.14
-1260.43
-1286.3
-1308.07
-1323.66
-1331.33
-1332.53
-1331.98
-1332.75
-1332.72
-1327
-1313.15
-1292.51
-1267.27
-1239.22
-1209.74
-1179.86
-1150.29
-1121.45
-1093.57
-1066.72
-1040.71
-1015.39
-990.706
-966.726
-943.644
-921.784
-901.582
-883.562
-868.291
-856.335
-848.205
-844.305
-844.898
-849.931
-859.101
-871.972
-888.014
-906.655
-927.335
-949.55
-972.891
-997.067
-1021.92
-1047.41
-1073.63
-1100.74
-1128.89
-1157.95
-1187.66
-1217.52
-1246.74
-1274.22
-1298.44
-1317.52
-1329.25
-1333.05
-1332.42
-1332.02
-1332.57
-1330.06
-1320.26
-1302.82
-1279.78
-1253.13
-1224.43
-1194.9
-1165.37
-1136.42
-1108.34
-1081.29
-1055.21
-1029.89
-1005.19
-981.046
-957.542
-934.881
-913.393
-893.517
-875.776
-860.736
-848.958
-840.951
-837.115
-813.973
-819.729
-830.187
-844.796
-862.884
-883.716
-906.573
-930.806
-955.889
-981.448
-1007.28
-1033.36
-1059.79
-1086.83
-1114.74
-1143.58
-1173.26
-1203.5
-1233.73
-1263.06
-1290.29
-1313.87
-1332.06
-1343.43
-1348.31
-1349.46
-1349.11
-1345.67
-1336.06
-1319.34
-1296.75
-1270.06
-1240.88
-1210.51
-1179.91
-1149.71
-1120.26
-1091.7
-1064.01
-1036.95
-1010.3
-983.968
-958.024
-932.7
-908.403
-885.69
-865.234
-847.767
-834.017
-824.635
-820.131
-820.815
-826.629
-837.203
-851.988
-870.304
-891.416
-914.6
-939.211
-964.727
-990.786
-1017.2
-1043.94
-1071.15
-1099.06
-1127.86
-1157.52
-1187.88
-1218.5
-1248.68
-1277.35
-1303.13
-1324.35
-1339.26
-1347.04
-1349.35
-1349.31
-1347.51
-1341.11
-1327.87
-1308.09
-1283.38
-1255.47
-1225.79
-1195.49
-1165.36
-1135.88
-1107.28
-1079.6
-1052.75
-1026.43
-1000.42
-974.645
-949.181
-924.276
-900.348
-877.958
-857.78
-840.545
-826.976
-817.72
-813.283
-790.173
-796.833
-808.92
-825.758
-846.505
-870.244
-896.071
-923.171
-950.883
-978.739
-1006.49
-1034.09
-1061.69
-1089.59
-1118.1
-1147.37
-1177.43
-1208.07
-1238.8
-1268.81
-1296.95
-1321.83
-1341.9
-1355.88
-1363.51
-1366.05
-1364.75
-1358.67
-1346.29
-1327.52
-1303.52
-1275.82
-1245.9
-1214.96
-1183.88
-1153.23
-1123.25
-1094
-1065.34
-1037
-1008.71
-980.361
-952.027
-924.002
-896.798
-871.113
-847.793
-827.758
-811.918
-801.085
-795.881
-796.671
-803.388
-815.594
-832.61
-853.589
-877.609
-903.764
-931.24
-959.383
-987.738
-1016.07
-1044.35
-1072.75
-1101.55
-1130.99
-1161.16
-1191.97
-1223.09
-1253.87
-1283.34
-1310.22
-1333
-1350.17
-1360.81
-1365.46
-1365.75
-1362.05
-1352.81
-1337.15
-1315.66
-1289.78
-1261.02
-1230.72
-1199.95
-1169.43
-1139.56
-1110.49
-1082.15
-1054.37
-1026.79
-999.155
-971.36
-943.503
-915.895
-889.057
-863.697
-840.66
-820.862
-805.209
-794.508
-789.375
-765.781
-773.458
-787.383
-806.74
-830.503
-857.552
-886.782
-917.194
-947.973
-978.543
-1008.58
-1038.03
-1067.04
-1095.95
-1125.11
-1154.79
-1185.1
-1215.91
-1246.81
-1277.07
-1305.66
-1331.27
-1352.44
-1368
-1377.35
-1380.8
-1378.84
-1371.08
-1357
-1337
-1312.18
-1283.96
-1253.72
-1222.54
-1191.24
-1160.27
-1129.81
-1099.81
-1070.04
-1040.18
-1009.93
-979.184
-948.04
-916.873
-886.314
-857.225
-830.644
-807.695
-789.49
-777.017
-771.026
-771.934
-779.67
-793.72
-813.262
-837.265
-864.603
-894.166
-924.954
-956.162
-987.226
-1017.84
-1047.96
-1077.77
-1107.58
-1137.69
-1168.29
-1199.39
-1230.72
-1261.75
-1291.59
-1319.07
-1342.75
-1361.28
-1373.7
-1379.87
-1380.4
-1375.47
-1364.48
-1347.35
-1324.88
-1298.35
-1269.2
-1238.68
-1207.75
-1177.04
-1146.89
-1117.37
-1088.29
-1059.39
-1030.29
-1000.68
-970.48
-939.806
-909.052
-878.861
-850.104
-823.815
-801.115
-783.108
-770.777
-764.863
-740.388
-749.183
-765.127
-787.25
-814.329
-845.028
-878.032
-912.143
-946.384
-980.051
-1012.74
-1044.35
-1075.03
-1105.13
-1135.02
-1165.1
-1195.58
-1226.34
-1257.1
-1287.2
-1315.7
-1341.42
-1363.03
-1379.38
-1389.66
-1393.61
-1391.27
-1382.55
-1367.57
-1347.01
-1321.99
-1293.8
-1263.67
-1232.6
-1201.29
-1170.11
-1139.17
-1108.36
-1077.3
-1045.67
-1013.15
-979.641
-945.3
-910.596
-876.295
-843.43
-813.25
-787.094
-766.288
-752.012
-745.155
-746.194
-755.05
-771.128
-793.449
-820.782
-851.785
-885.133
-919.625
-954.292
-988.446
-1021.7
-1053.97
-1085.41
-1116.37
-1147.2
-1178.22
-1209.45
-1240.76
-1271.67
-1301.41
-1328.9
-1352.87
-1372.06
-1385.44
-1392.47
-1393.16
-1387.54
-1375.62
-1357.78
-1334.97
-1308.4
-1279.37
-1249.01
-1218.21
-1187.51
-1157.12
-1127.12
-1097.21
-1066.99
-1036.08
-1004.18
-971.201
-937.323
-903.03
-869.102
-836.584
-806.713
-780.823
-760.232
-746.109
-739.337
-713.69
-723.685
-741.791
-766.865
-797.476
-832.068
-869.122
-907.231
-945.244
-982.333
-1018
-1052.08
-1084.68
-1116.14
-1146.87
-1177.32
-1207.8
-1238.34
-1268.69
-1298.31
-1326.34
-1351.71
-1373.23
-1389.77
-1400.4
-1404.56
-1402.01
-1392.88
-1377.61
-1357.04
-1332.28
-1304.5
-1274.8
-1244.1
-1212.98
-1181.74
-1150.38
-1118.66
-1086.16
-1052.51
-1017.41
-980.819
-942.959
-904.405
-866.064
-829.147
-795.124
-765.546
-741.961
-725.749
-717.959
-719.139
-729.202
-747.452
-772.741
-803.628
-838.547
-875.965
-914.463
-952.905
-990.472
-1026.68
-1061.38
-1094.7
-1126.96
-1158.55
-1189.88
-1221.11
-1252.17
-1282.69
-1311.98
-1339.09
-1362.87
-1382.15
-1395.88
-1403.3
-1404.08
-1398.19
-1385.93
-1367.99
-1345.34
-1319.16
-1290.61
-1260.73
-1230.29
-1199.75
-1169.29
-1138.8
-1107.93
-1076.18
-1043.2
-1008.69
-972.608
-935.203
-897.064
-859.106
-822.56
-788.872
-759.583
-736.233
-720.191
-712.495
-685.46
-696.727
-717.088
-745.216
-779.464
-818.058
-859.256
-901.484
-943.437
-984.152
-1023.03
-1059.82
-1094.57
-1127.58
-1159.28
-1190.2
-1220.72
-1250.95
-1280.74
-1309.64
-1336.91
-1361.59
-1382.6
-1398.87
-1409.44
-1413.6
-1410.99
-1401.82
-1386.7
-1366.54
-1342.38
-1315.3
-1286.28
-1256.1
-1225.26
-1193.94
-1162.08
-1129.33
-1095.2
-1059.3
-1021.4
-981.498
-939.921
-897.354
-854.848
-813.785
-775.811
-742.701
-716.23
-697.991
-689.205
-690.539
-701.88
-722.401
-750.765
-785.314
-824.258
-865.841
-908.479
-950.87
-992.057
-1031.45
-1068.82
-1104.23
-1137.95
-1170.43
-1202.14
-1233.34
-1264.05
-1294
-1322.6
-1349.02
-1372.24
-1391.18
-1404.81
-1412.3
-1413.13
-1407.24
-1395.09
-1377.47
-1355.38
-1329.92
-1302.14
-1272.95
-1243
-1212.69
-1182.09
-1151
-1119.01
-1085.56
-1050.27
-1012.91
-973.492
-932.367
-890.226
-848.127
-807.456
-769.843
-737.051
-710.84
-692.79
-684.11
-655.483
-668.027
-690.627
-721.765
-759.59
-802.125
-847.441
-893.798
-939.751
-984.208
-1026.46
-1066.16
-1103.28
-1138.03
-1170.88
-1202.42
-1233.06
-1263
-1292.18
-1320.23
-1346.56
-1370.31
-1390.54
-1406.23
-1416.47
-1420.5
-1417.91
-1408.94
-1394.28
-1374.8
-1351.48
-1325.28
-1297.07
-1267.47
-1236.88
-1205.41
-1172.9
-1138.94
-1103
-1064.66
-1023.76
-980.399
-934.998
-888.366
-841.69
-796.508
-754.637
-718.049
-688.727
-668.468
-658.68
-660.169
-672.794
-695.571
-726.971
-765.126
-808.042
-853.773
-900.567
-946.972
-991.9
-1034.65
-1074.88
-1112.57
-1147.94
-1181.47
-1213.69
-1244.94
-1275.29
-1304.58
-1332.35
-1357.88
-1380.29
-1398.61
-1411.86
-1419.2
-1420.05
-1414.33
-1402.57
-1385.59
-1364.34
-1339.82
-1312.97
-1284.57
-1255.16
-1225.04
-1194.19
-1162.35
-1129.04
-1093.68
-1055.87
-1015.47
-972.575
-927.629
-881.441
-835.202
-790.443
-748.967
-712.731
-683.696
-663.646
-653.975
-623.591
-637.342
-662.044
-695.997
-737.166
-783.402
-832.621
-882.945
-932.802
-980.984
-1026.67
-1069.4
-1109.05
-1145.74
-1179.96
-1212.3
-1243.23
-1273
-1301.61
-1328.83
-1354.14
-1376.86
-1396.14
-1411.08
-1420.83
-1424.65
-1422.12
-1413.5
-1399.46
-1380.82
-1358.45
-1333.21
-1305.79
-1276.73
-1246.29
-1214.51
-1181.14
-1145.78
-1107.85
-1066.91
-1022.9
-976.029
-926.836
-876.245
-825.572
-776.487
-730.954
-691.111
-659.117
-636.956
-626.217
-627.855
-641.696
-666.593
-700.835
-742.369
-789.024
-838.696
-889.488
-939.819
-988.476
-1034.64
-1077.86
-1118.01
-1155.2
-1190
-1222.92
-1254.34
-1284.44
-1313.12
-1340.03
-1364.6
-1386.08
-1403.6
-1416.3
-1423.37
-1424.22
-1418.79
-1407.59
-1391.42
-1371.16
-1347.68
-1321.81
-1294.18
-1265.25
-1235.18
-1203.9
-1171.1
-1136.28
-1098.82
-1058.34
-1014.79
-968.375
-919.645
-869.526
-819.325
-770.704
-725.606
-686.149
-654.472
-632.542
-621.932
-589.668
-604.479
-631.013
-667.409
-711.485
-760.961
-813.64
-867.544
-921.002
-972.709
-1021.73
-1067.51
-1109.79
-1148.57
-1184.36
-1217.74
-1249.18
-1278.97
-1307.19
-1333.67
-1358.04
-1379.72
-1398.02
-1412.16
-1421.35
-1424.93
-1422.48
-1414.27
-1400.9
-1383.13
-1361.7
-1337.34
-1310.61
-1281.92
-1251.44
-1219.12
-1184.69
-1147.72
-1107.65
-1064.03
-1016.92
-966.652
-913.885
-859.655
-805.382
-752.84
-704.101
-661.424
-627.105
-603.282
-591.704
-593.475
-608.384
-635.133
-671.846
-716.323
-766.261
-819.436
-873.848
-927.81
-980.003
-1029.49
-1075.71
-1118.41
-1157.61
-1193.87
-1227.72
-1259.55
-1289.57
-1317.78
-1343.94
-1367.6
-1388.14
-1404.84
-1416.92
-1423.67
-1424.53
-1419.42
-1408.86
-1393.56
-1374.29
-1351.83
-1326.86
-1299.89
-1271.25
-1241.03
-1209.1
-1175.12
-1138.58
-1098.88
-1055.66
-1008.98
-959.164
-906.881
-853.158
-799.4
-747.368
-699.108
-656.855
-622.884
-599.312
-587.874
-553.645
-569.285
-597.232
-635.501
-681.811
-733.806
-789.23
-846.05
-902.54
-957.319
-1009.37
-1058.01
-1102.87
-1143.81
-1181.34
-1215.98
-1248.19
-1278.26
-1306.32
-1332.28
-1355.88
-1376.67
-1394.07
-1407.43
-1416.08
-1419.41
-1417.04
-1409.22
-1396.49
-1379.5
-1358.89
-1335.23
-1308.98
-1280.42
-1249.64
-1216.53
-1180.82
-1142.08
-1099.82
-1053.59
-1003.58
-950.25
-894.384
-837.105
-779.908
-724.628
-673.396
-628.536
-592.427
-567.315
-555.077
-556.953
-572.7
-600.88
-639.495
-686.244
-738.744
-794.711
-852.085
-909.114
-964.402
-1016.92
-1065.97
-1111.18
-1152.47
-1190.38
-1225.38
-1257.87
-1288.07
-1316.05
-1341.67
-1364.58
-1384.3
-1400.24
-1411.74
-1418.18
-1419.05
-1414.27
-1404.32
-1389.83
-1371.48
-1349.9
-1325.64
-1299.1
-1270.51
-1239.88
-1207.05
-1171.67
-1133.27
-1091.29
-1045.4
-995.804
-942.947
-887.596
-830.867
-774.235
-719.513
-668.805
-624.406
-588.673
-563.832
-551.745
-515.498
-531.644
-560.425
-599.783
-647.396
-700.896
-758.031
-816.774
-875.388
-932.463
-986.916
-1037.98
-1085.14
-1128.15
-1167.45
-1203.5
-1236.69
-1267.3
-1295.48
-1321.19
-1344.27
-1364.38
-1381.05
-1393.75
-1401.92
-1405.03
-1402.72
-1395.22
-1383.01
-1366.64
-1346.63
-1323.44
-1297.39
-1268.68
-1237.34
-1203.24
-1166.11
-1125.59
-1081.25
-1032.69
-980.256
-924.526
-866.366
-806.966
-747.853
-690.871
-638.147
-592.005
-554.845
-528.962
-516.315
-518.259
-534.519
-563.55
-603.28
-651.366
-705.413
-763.138
-822.482
-881.68
-939.295
-994.223
-1045.67
-1093.14
-1136.46
-1176.08
-1212.39
-1245.76
-1276.41
-1304.44
-1329.77
-1352.17
-1371.28
-1386.61
-1397.63
-1403.81
-1404.7
-1400.21
-1390.8
-1376.99
-1359.37
-1338.44
-1314.64
-1288.26
-1259.44
-1228.16
-1194.23
-1157.34
-1117.06
-1072.95
-1024.71
-972.697
-917.46
-859.855
-801.054
-742.556
-686.179
-634.019
-588.373
-551.615
-526.018
-513.53
-475.247
-491.48
-520.354
-559.792
-607.503
-661.178
-718.639
-777.928
-837.36
-895.542
-951.37
-1004.01
-1052.88
-1097.56
-1138.44
-1175.85
-1210.09
-1241.4
-1269.9
-1295.62
-1318.43
-1338.09
-1354.23
-1366.43
-1374.22
-1377.14
-1374.86
-1367.59
-1355.76
-1339.82
-1320.18
-1297.19
-1271.1
-1242.04
-1209.99
-1174.84
-1136.35
-1094.25
-1048.25
-998.016
-944.024
-886.948
-827.712
-767.522
-707.881
-650.582
-597.677
-551.423
-514.163
-488.175
-475.446
-477.407
-493.761
-522.897
-562.727
-610.938
-665.194
-723.285
-783.221
-843.282
-902.044
-958.375
-1011.42
-1060.56
-1105.55
-1146.7
-1184.3
-1218.63
-1249.9
-1278.19
-1303.49
-1325.63
-1344.34
-1359.24
-1369.92
-1375.92
-1376.84
-1372.59
-1363.59
-1350.31
-1333.2
-1312.69
-1289.09
-1262.62
-1233.38
-1201.3
-1166.24
-1127.92
-1086.02
-1040.21
-990.31
-936.758
-880.213
-821.579
-762.036
-703.056
-646.401
-594.094
-548.359
-511.518
-485.827
-473.262
-432.947
-448.758
-476.822
-515.116
-561.448
-613.646
-669.677
-727.721
-786.21
-843.826
-899.501
-952.393
-1001.85
-1047.4
-1089.27
-1127.63
-1162.69
-1194.59
-1223.44
-1249.25
-1271.93
-1291.29
-1307.06
-1318.88
-1326.38
-1329.15
-1326.87
-1319.76
-1308.19
-1292.53
-1273.11
-1250.21
-1224
-1194.57
-1161.92
-1125.96
-1086.54
-1043.49
-996.674
-945.898
-891.72
-834.862
-776.253
-717.057
-658.688
-602.82
-551.363
-506.426
-470.225
-444.944
-432.532
-434.448
-450.383
-478.715
-517.409
-564.255
-617.055
-673.745
-732.472
-791.629
-849.869
-906.088
-959.414
-1009.17
-1055.03
-1097.14
-1135.65
-1170.74
-1202.55
-1231.14
-1256.5
-1278.52
-1296.98
-1311.6
-1322.03
-1327.91
-1328.86
-1324.81
-1316.14
-1303.24
-1286.49
-1266.23
-1242.71
-1216.09
-1186.43
-1153.69
-1117.76
-1078.47
-1035.61
-989.011
-938.594
-884.895
-828.612
-770.648
-712.137
-654.462
-599.263
-548.421
-504.015
-468.238
-443.255
-431.007
-388.746
-403.545
-429.756
-465.481
-508.708
-557.471
-609.955
-664.544
-719.847
-774.689
-828.101
-879.292
-927.621
-972.62
-1014.3
-1052.67
-1087.8
-1119.75
-1148.56
-1174.21
-1196.62
-1215.62
-1231
-1242.46
-1249.68
-1252.31
-1250.04
-1243.08
-1231.78
-1216.43
-1197.31
-1174.64
-1148.56
-1119.18
-1086.5
-1050.49
-1011.11
-968.326
-922.15
-872.591
-820.213
-765.719
-709.973
-654.03
-599.15
-546.817
-498.733
-456.787
-422.99
-399.356
-387.725
-389.525
-404.447
-430.92
-467.04
-510.776
-560.142
-613.29
-668.575
-724.572
-780.074
-834.077
-885.759
-934.451
-979.787
-1021.7
-1060.2
-1095.34
-1127.16
-1155.69
-1180.88
-1202.64
-1220.8
-1235.11
-1245.31
-1251.06
-1252.04
-1248.17
-1239.8
-1227.28
-1210.92
-1191
-1167.71
-1141.22
-1111.57
-1078.78
-1042.79
-1003.53
-960.958
-915.062
-865.912
-814.057
-760.176
-705.104
-649.864
-595.686
-544.024
-496.549
-455.125
-421.741
-398.398
-386.925
-342.705
-355.842
-379.051
-410.639
-448.846
-491.982
-538.508
-587.072
-636.517
-685.872
-734.332
-781.233
-826.025
-868.327
-907.897
-944.598
-978.364
-1009.16
-1036.95
-1061.66
-1083.2
-1101.4
-1116.07
-1126.97
-1133.8
-1136.26
-1134.05
-1127.38
-1116.56
-1101.85
-1083.49
-1061.67
-1036.53
-1008.19
-976.7
-942.12
-904.495
-863.914
-820.549
-774.678
-726.735
-677.329
-627.184
-577.177
-528.354
-481.95
-439.394
-402.293
-372.382
-351.432
-341.095
-342.698
-355.95
-379.406
-411.364
-450.051
-493.758
-540.922
-590.163
-640.297
-690.323
-739.408
-786.861
-832.106
-874.774
-914.602
-951.442
-985.22
-1015.89
-1043.4
-1067.69
-1088.62
-1106.04
-1119.76
-1129.51
-1135.03
-1136.02
-1132.37
-1124.44
-1112.53
-1096.9
-1077.79
-1055.4
-1029.86
-1001.27
-969.679
-935.126
-897.652
-857.342
-814.37
-768.95
-721.563
-672.785
-623.312
-573.994
-525.847
-480.08
-438.098
-401.484
-371.958
-351.275
-341.084
-294.802
-305.597
-324.609
-350.425
-381.604
-416.793
-454.779
-494.518
-535.134
-575.905
-616.248
-655.697
-693.88
-730.554
-765.282
-797.793
-827.92
-855.543
-880.557
-902.852
-922.294
-938.725
-951.952
-961.759
-967.898
-970.09
-968.056
-962.006
-952.209
-938.901
-922.291
-902.562
-879.871
-854.349
-826.11
-795.267
-761.954
-726.36
-688.787
-649.71
-609.402
-568.276
-526.847
-485.754
-445.779
-407.862
-373.113
-342.801
-318.326
-301.14
-292.634
-293.956
-304.852
-324.079
-350.218
-381.819
-417.511
-456.066
-496.418
-537.67
-579.08
-620.044
-660.076
-698.789
-735.871
-770.889
-803.572
-833.746
-861.285
-886.078
-908.007
-926.934
-942.695
-955.101
-963.937
-968.958
-969.88
-966.617
-959.484
-948.752
-934.657
-917.412
-897.199
-874.17
-848.452
-820.152
-789.379
-756.263
-721.001
-683.911
-645.337
-605.595
-565.075
-524.273
-483.807
-444.437
-407.083
-372.835
-342.947
-318.803
-301.848
-293.465
-250.461
-258.141
-271.589
-289.747
-311.569
-336.091
-362.476
-390.028
-418.187
-446.518
-474.702
-502.527
-529.878
-556.729
-582.523
-606.933
-629.751
-650.826
-670.029
-687.231
-702.293
-715.061
-725.367
-733.022
-737.821
-739.527
-737.901
-733.126
-725.433
-715.023
-702.074
-686.753
-669.208
-649.58
-628
-604.605
-579.559
-553.087
-525.543
-497.516
-469.037
-440.248
-411.394
-382.834
-355.046
-328.638
-304.357
-283.086
-265.825
-253.638
-247.572
-248.519
-256.278
-269.893
-288.303
-310.453
-335.37
-362.206
-390.253
-418.936
-447.812
-476.553
-504.942
-532.865
-560.15
-586.267
-610.896
-633.829
-654.911
-674.006
-690.981
-705.695
-717.993
-727.707
-734.651
-738.621
-739.371
-736.823
-731.248
-722.873
-711.898
-698.506
-682.862
-665.115
-645.402
-623.851
-600.595
-575.801
-549.707
-522.701
-495.198
-467.248
-438.987
-410.657
-382.605
-355.299
-329.332
-305.441
-284.496
-267.488
-255.477
-249.504
-170.463
-175.073
-183.104
-193.892
-206.791
-221.223
-236.694
-252.809
-269.267
-285.855
-302.453
-319.037
-335.709
-352.659
-369.273
-385.225
-400.316
-414.397
-427.339
-439.017
-449.303
-458.063
-465.157
-470.439
-473.755
-474.931
-473.795
-470.482
-465.162
-457.986
-449.094
-438.625
-426.709
-413.478
-399.058
-383.585
-367.218
-350.167
-332.778
-315.691
-298.699
-281.719
-264.792
-248.063
-231.772
-216.25
-201.926
-189.322
-179.044
-171.75
-168.102
-168.673
-173.334
-181.472
-192.42
-205.529
-220.214
-235.976
-252.413
-269.22
-286.181
-303.179
-320.205
-337.385
-354.701
-371.587
-387.734
-402.944
-417.064
-429.963
-441.511
-451.579
-460.033
-466.735
-471.541
-474.298
-474.825
-473.065
-469.214
-463.438
-455.889
-446.711
-436.043
-424.017
-410.759
-396.398
-381.065
-364.921
-348.198
-331.292
-314.647
-298.053
-281.443
-264.867
-248.471
-232.49
-217.251
-203.174
-190.777
-180.659
-173.476
-169.886
-256.58
-254.339
-250.005
-243.538
-234.975
-224.427
-212.075
-198.154
-182.942
-166.752
-149.929
-132.866
-116.068
-100.214
-85.066
-70.7046
-57.275
-44.9249
-33.787
-23.9732
-15.5727
-8.65124
-3.25193
0.605066
2.9232
3.73407
3.09161
0.95101
-2.72345
-7.93787
-14.6739
-22.8899
-32.5204
-43.4762
-55.6444
-68.8901
-83.0628
-98.0139
-113.66
-130.235
-147.041
-163.562
-179.4
-194.208
-207.674
-219.524
-229.531
-237.528
-243.421
-247.19
-248.892
-248.644
-246.413
-242.094
-235.648
-227.116
-216.611
-204.318
-190.476
-175.372
-159.326
-142.7
-125.917
-109.563
-94.0785
-79.3131
-65.3673
-52.39
-40.5278
-29.9098
-20.6427
-12.8097
-6.46978
-1.65854
1.61185
3.35454
3.61494
2.41353
-0.306966
-4.56992
-10.3723
-17.6879
-26.4676
-36.6395
-48.1085
-60.7569
-74.4481
-89.0341
-104.384
-120.49
-137.413
-154.452
-171.139
-187.1
-201.996
-215.525
-227.417
-237.451
-245.464
-251.364
-255.134
-256.833
)
;

boundaryField
{
    top
    {
        type            fixedValue;
        value           uniform 0;
    }
    bottom
    {
        type            fixedFluxPressure;
        gradient        nonuniform List<scalar> 
102
(
0
0
0
0
0
0
0
0
0
0
0
0
0
0
0
0
0
0
0
0
0
0
0
0
0
0
0
0
0
0
0
0
0
0
0
0
0
0
0
0
0
0
0
0
0
0
0
0
0
0
0
0
0
0
0
0
0
0
0
0
0
0
0
0
0
0
0
0
0
0
0
0
0
0
0
0
0
0
0
0
0
0
0
0
0
0
0
0
0
0
0
0
0
0
0
0
0
0
0
0
0
-2.0912e-14
)
;
        value           nonuniform List<scalar> 
102
(
-963.048
-967.211
-974.822
-985.477
-998.603
-1013.55
-1029.87
-1047.73
-1068.33
-1093.33
-1123.63
-1158.44
-1196.11
-1234.94
-1273.2
-1309.26
-1341.77
-1369.92
-1392.88
-1409.66
-1420.54
-1426.48
-1428.85
-1429.19
-1428.78
-1428.43
-1428.46
-1428.65
-1428.31
-1426.25
-1420.95
-1410.95
-1395.21
-1373.22
-1345.76
-1313.77
-1278.08
-1240
-1201.22
-1163.56
-1128.71
-1098.3
-1073.08
-1052.34
-1034.6
-1018.69
-1004.36
-991.994
-982.205
-975.53
-972.345
-972.83
-976.955
-984.49
-995.011
-1007.95
-1022.72
-1039.04
-1057.41
-1079.2
-1105.79
-1137.49
-1173.24
-1211.37
-1250.15
-1287.75
-1322.58
-1353.44
-1379.57
-1399.95
-1414.09
-1422.73
-1427.02
-1428.49
-1428.59
-1428.39
-1428.47
-1428.88
-1429.19
-1428.45
-1425.28
-1418.15
-1405.79
-1387.33
-1362.89
-1333.52
-1299.97
-1263.18
-1224.61
-1185.92
-1148.85
-1115.07
-1086.17
-1062.5
-1042.78
-1025.4
-1009.43
-994.903
-982.371
-972.476
-965.752
-962.553
)
;
    }
    frontAndBack
    {
        type            empty;
    }
    left_cyc
    {
        type            cyclic;
    }
    right_cyc
    {
        type            cyclic;
    }
}


// ************************************************************************* //
