/*--------------------------------*- C++ -*----------------------------------*\
| =========                 |                                                 |
| \\      /  F ield         | OpenFOAM: The Open Source CFD Toolbox           |
|  \\    /   O peration     | Version:  2.3.0                                 |
|   \\  /    A nd           | Web:      www.OpenFOAM.org                      |
|    \\/     M anipulation  |                                                 |
\*---------------------------------------------------------------------------*/
FoamFile
{
    version     2.0;
    format      ascii;
    class       volScalarField;
    location    "12000";
    object      p_rgh;
}
// * * * * * * * * * * * * * * * * * * * * * * * * * * * * * * * * * * * * * //

dimensions      [0 2 -2 0 0 0 0];

internalField   nonuniform List<scalar> 
765
(
-71.5688
-85.5137
-111.031
-146.916
-191.494
-242.289
-295.45
-345.863
-389.743
-425.011
-447.032
-455.959
-458.284
-456.87
-449.898
-431.449
-398.374
-356.374
-307.126
-254.119
-202.361
-156.07
-117.976
-89.8879
-73.0996
-68.5
-76.4048
-96.3058
-127.197
-167.669
-215.722
-268.289
-320.745
-368.43
-408.183
-438.142
-452.826
-457.867
-458.318
-454.788
-443.25
-417.063
-379.524
-333.624
-282.056
-229.038
-179.521
-136.95
-103.551
-80.8567
-69.9778
-113.913
-124.721
-144.077
-170.798
-203.63
-241.18
-282.097
-325.765
-367.16
-398.022
-419.003
-430.681
-434.089
-431.951
-422.581
-403.428
-375.062
-335.629
-291.712
-249.968
-211.487
-177.4
-149.112
-127.894
-114.941
-111.32
-117.516
-132.782
-156
-185.957
-221.347
-260.748
-303.244
-347.051
-383.788
-409.437
-426.333
-433.295
-434.003
-428.989
-414.61
-391.414
-357.6
-314.621
-271.498
-231.331
-194.835
-163.423
-138.446
-121.139
-112.658
-61.2437
-72.7865
-93.2487
-121.259
-155.498
-194.796
-238.123
-284.718
-330.216
-365.902
-390.844
-403.694
-407.546
-405.01
-394.804
-372.284
-339.132
-295.168
-248.174
-204.013
-163.678
-128.151
-98.556
-76.1764
-62.3814
-58.469
-65.1374
-81.3565
-105.792
-137.086
-173.995
-215.431
-260.53
-307.558
-349.104
-379.453
-398.894
-406.426
-407.311
-401.835
-385.695
-358.039
-319.349
-272.777
-226.868
-184.465
-146.339
-113.554
-87.3177
-68.974
-59.8825
7.76042
-5.6353
-29.0989
-60.7619
-98.8806
-142.01
-188.942
-238.568
-287.416
-331.022
-362.246
-376.251
-380.331
-377.718
-366.671
-339.321
-297.543
-249.566
-199.634
-152.03
-107.942
-68.5523
-35.2324
-9.66181
6.3006
10.8726
3.09131
-15.6221
-43.4409
-78.5331
-119.301
-164.447
-212.82
-262.768
-309.488
-348.459
-371.104
-379.275
-380.168
-374.236
-356.173
-320.77
-275.473
-225.905
-176.823
-130.736
-88.7506
-52.1103
-22.3383
-1.23167
9.35278
65.5097
49.6632
22.3414
-13.7032
-56.0328
-102.953
-153.603
-207.762
-262.575
-313.072
-350.736
-368.556
-374.128
-370.454
-356.295
-322.918
-274.232
-219.884
-165.107
-113.788
-66.0195
-22.5368
15.1607
44.7846
63.6091
69.0437
59.7955
37.8083
5.76562
-33.6751
-78.423
-127.223
-179.573
-234.636
-288.027
-333.863
-361.901
-372.504
-373.781
-365.92
-343.206
-301.065
-248.938
-193.86
-140.541
-90.7782
-44.9016
-3.96112
30.1426
54.8427
67.4007
118.486
98.8808
65.5307
22.5913
-26.2745
-78.6938
-133.85
-192.241
-251.743
-308.145
-354.195
-380.686
-389.311
-383.821
-361.918
-319.534
-264.603
-205.351
-146.421
-90.6894
-37.6922
12.1031
56.6928
92.6715
115.912
122.639
111.175
84.1116
45.4323
-0.83644
-51.6252
-105.37
-162.016
-221.297
-279.888
-332.493
-369.918
-386.831
-388.676
-376.15
-344.141
-294.478
-236.813
-177.316
-119.757
-65.2726
-13.6098
34.0499
74.9664
105.26
120.821
168.224
143.478
101.783
49.1958
-8.88773
-68.9611
-129.796
-191.977
-254.412
-313.956
-364.501
-397.641
-409.76
-402.046
-373.576
-326.168
-267.967
-205.838
-143.524
-82.5264
-22.3286
36.3744
90.6353
135.436
164.739
173.214
158.744
124.689
76.7695
20.8974
-38.3939
-98.793
-160.128
-222.543
-284.049
-340.19
-383.314
-406.197
-408.777
-391.377
-353.05
-299.435
-238.756
-176.259
-114.484
-53.8253
5.94298
63.0667
113.491
151.506
171.158
218.367
187.222
135.173
70.5462
0.792104
-69.129
-137.062
-202.538
-266.12
-325.954
-377.135
-412.448
-426.453
-417.454
-386.565
-338.256
-279.83
-216.863
-151.869
-84.6837
-15.2305
54.7908
121.157
176.911
213.75
224.414
206.188
163.45
104.044
36.1053
-34.0338
-102.983
-169.437
-233.915
-295.997
-352.391
-396.817
-422.225
-425.253
-405.496
-365.408
-311.398
-250.317
-186.26
-120.322
-51.7668
18.379
87.4389
149.704
197.302
222.054
271.514
233.068
169.665
92.0051
9.55894
-70.9763
-145.995
-214.537
-278.363
-336.887
-386.576
-421.52
-435.959
-426.629
-395.823
-348.87
-291.943
-229.211
-161.894
-88.6035
-9.29595
73.0606
152.534
220.237
265.569
278.863
256.205
203.791
131.902
50.8764
-31.1186
-108.998
-180.426
-246.422
-307.807
-362.592
-405.927
-431.545
-434.699
-414.538
-375.187
-322.771
-262.736
-197.852
-127.975
-51.3646
30.1284
112.163
187.264
245.451
276.121
330.268
285
211.455
122.281
28.387
-62.196
-144.379
-216.456
-280.809
-337.795
-385.209
-418.571
-432.634
-423.521
-394.04
-349.348
-294.277
-231.605
-161.51
-81.9331
6.87752
100.468
191.549
269.866
323.024
338.905
311.958
250.742
167.81
75.1353
-17.792
-104.493
-181.157
-249.081
-309.808
-362.481
-403.69
-428.321
-431.411
-411.894
-374.421
-324.242
-265.344
-199.283
-125.146
-40.4001
51.6819
145.332
231.768
299.491
335.79
396.958
347.214
267.426
171.24
70.0289
-27.6209
-115.596
-191.389
-257.049
-313.256
-358.778
-390.454
-403.914
-395.184
-367.217
-324.516
-270.609
-207.183
-133.939
-49.0326
46.6707
147.587
245.786
330.587
388.783
406.475
376.586
309.805
220.161
120.262
20.0247
-73.3175
-154.712
-225.125
-286.019
-337.183
-376.406
-399.796
-402.761
-384.154
-348.543
-300.095
-241.519
-173.555
-95.1855
-4.16508
95.1421
196.079
289.391
363.053
403.131
473.449
423.714
344.835
250.059
149.884
52.2138
-36.9355
-114.481
-181.052
-236.857
-281.041
-311.351
-324.257
-315.889
-289.192
-247.953
-194.744
-130.722
-55.8609
30.4597
126.492
226.59
323.394
407.102
465.09
483.003
452.862
386.535
298.153
199.584
99.8959
5.89664
-77.1235
-148.965
-210.105
-260.295
-298.008
-320.324
-323.167
-305.371
-271.217
-223.936
-165.42
-96.2111
-15.963
75.8929
174.875
274.572
366.505
439.476
479.719
561.34
518.239
450.762
370.105
284.456
199.559
119.607
47.423
-15.3998
-67.9997
-109.297
-137.422
-149.43
-141.649
-116.917
-78.474
-28.4184
32.0237
102.01
180.208
264.179
349.998
432.393
503.856
553.923
569.647
543.298
486.245
410.932
326.988
241.218
158.438
82.3226
14.8389
-42.8995
-90.0173
-125.095
-145.763
-148.408
-131.886
-100.152
-55.8468
-0.596635
64.6577
138.997
220.502
306.006
391.012
469.258
531.834
566.863
661.791
633.515
590.347
539.771
486.503
432.997
380.014
328.653
282.403
242.958
211.669
190.199
180.922
186.94
205.841
235.002
272.632
317.342
367.583
420.408
473.726
527.129
578.618
624.083
656.723
667.232
649.723
612.785
565.16
512.886
459.447
406.385
353.738
304.777
261.83
226.304
199.644
183.809
181.761
194.475
218.654
252.156
293.451
341.22
393.606
446.545
500.014
552.855
602.099
642.363
665.498
776.6
771.438
765.318
760.347
757.111
754.808
750.995
744.048
736.671
729.636
723.431
718.685
716.383
717.904
722.17
728.075
734.926
742.216
749.279
754.002
756.314
759.173
763.708
769.67
775.325
777.502
774.001
767.999
762.326
758.307
755.841
753.444
747.562
740.323
733.11
726.466
720.919
717.242
716.714
719.771
724.964
731.425
738.592
745.995
752.758
755.594
757.866
761.462
766.81
772.948
777.388
)
;

boundaryField
{
    top
    {
        type            fixedFluxPressure;
        gradient        nonuniform List<scalar> 
51
(
1974.62
2418.78
3108.77
3930.95
4813.92
5729.99
6705.99
7746.69
8724.86
9578.81
10260.6
10723.9
10918.9
10793.2
10386.8
9751.34
8933.61
7980.83
6950.26
5949.29
5025.41
4134.71
3293.87
2563.97
2048.9
1886.01
2158.57
2744.09
3511.99
4369.51
5266.57
6198.35
7228.66
8246.31
9168.25
9942.44
10522.5
10861
10903.5
10633.9
10109.9
9379.65
8489.07
7486.72
6438.65
5491.73
4587.23
3716.66
2919.73
2278.99
1917.37
)
;
        value           nonuniform List<scalar> 
51
(
842.421
852.064
868.944
891.379
917.574
945.808
974.528
1002.27
1027.5
1048.93
1065.45
1076.15
1080.35
1077.68
1068.4
1053.12
1032.71
1008.24
980.955
952.312
923.828
896.996
873.504
855.136
843.621
840.369
845.953
859.469
879.393
903.958
931.394
960.056
988.517
1015.2
1038.72
1057.88
1071.67
1079.28
1080.16
1074.24
1061.96
1044.08
1021.56
995.552
967.38
938.652
910.774
885.351
864.134
848.914
841.301
)
;
    }
    bottom
    {
        type            fixedFluxPressure;
        gradient        uniform 0;
        value           nonuniform List<scalar> 
51
(
-71.5688
-85.5137
-111.031
-146.916
-191.494
-242.289
-295.45
-345.863
-389.743
-425.011
-447.032
-455.959
-458.284
-456.87
-449.898
-431.449
-398.374
-356.374
-307.126
-254.119
-202.361
-156.07
-117.976
-89.8879
-73.0996
-68.5
-76.4048
-96.3058
-127.197
-167.669
-215.722
-268.289
-320.745
-368.43
-408.183
-438.142
-452.826
-457.867
-458.318
-454.788
-443.25
-417.063
-379.524
-333.624
-282.056
-229.038
-179.521
-136.95
-103.551
-80.8567
-69.9778
)
;
    }
    frontAndBack
    {
        type            empty;
    }
    left_cyc
    {
        type            cyclic;
    }
    right_cyc
    {
        type            cyclic;
    }
}


// ************************************************************************* //
