/*--------------------------------*- C++ -*----------------------------------*\
| =========                 |                                                 |
| \\      /  F ield         | OpenFOAM: The Open Source CFD Toolbox           |
|  \\    /   O peration     | Version:  2.3.0                                 |
|   \\  /    A nd           | Web:      www.OpenFOAM.org                      |
|    \\/     M anipulation  |                                                 |
\*---------------------------------------------------------------------------*/
FoamFile
{
    version     2.0;
    format      ascii;
    class       volScalarField;
    location    "12000";
    object      p_rgh;
}
// * * * * * * * * * * * * * * * * * * * * * * * * * * * * * * * * * * * * * //

dimensions      [0 2 -2 0 0 0 0];

internalField   nonuniform List<scalar> 
3060
(
-38.8698
-41.9494
-47.7208
-56.1399
-67.1618
-80.7513
-96.8838
-115.53
-136.624
-160.034
-185.533
-212.782
-241.307
-270.472
-299.453
-327.277
-352.96
-375.604
-394.468
-409.22
-420.068
-427.493
-432.221
-435.001
-436.428
-436.86
-436.416
-434.987
-432.222
-427.536
-420.181
-409.424
-394.77
-375.995
-353.409
-327.749
-299.923
-270.936
-241.781
-213.297
-186.132
-160.769
-137.554
-116.716
-98.3884
-82.6358
-69.4885
-58.971
-51.1173
-45.9686
-43.5635
-43.9254
-47.0499
-52.909
-61.4622
-72.6693
-86.4993
-102.928
-121.921
-143.396
-167.199
-193.071
-220.634
-249.363
-278.564
-307.345
-334.697
-359.637
-381.286
-398.99
-412.592
-422.399
-428.982
-433.098
-435.466
-436.614
-436.827
-436.156
-434.42
-431.197
-425.838
-417.582
-405.749
-389.924
-370.017
-346.496
-320.163
-291.939
-262.818
-233.748
-205.502
-178.671
-153.69
-130.869
-110.406
-92.4136
-76.9448
-64.0251
-53.681
-45.9509
-40.8807
-38.512
-62.6945
-65.4005
-70.4923
-77.9688
-87.834
-100.09
-114.72
-131.674
-150.848
-172.076
-195.119
-219.633
-245.129
-270.943
-296.342
-320.863
-344.29
-365.88
-384.366
-398.953
-409.836
-417.525
-422.678
-425.914
-427.689
-428.258
-427.697
-425.936
-422.727
-417.622
-410.005
-399.215
-384.736
-366.352
-344.825
-321.426
-296.926
-271.555
-245.784
-220.353
-195.939
-173.04
-152.005
-133.081
-116.433
-102.164
-90.3224
-80.9193
-73.9501
-69.4082
-67.2937
-67.6115
-70.3604
-75.5358
-83.1399
-93.1798
-105.658
-120.555
-137.81
-157.305
-178.854
-202.189
-226.924
-252.516
-278.252
-303.414
-327.657
-350.675
-371.502
-388.895
-402.368
-412.27
-419.167
-423.722
-426.518
-427.95
-428.214
-427.343
-425.218
-421.534
-415.781
-407.318
-395.509
-379.888
-360.476
-338.289
-314.538
-289.772
-264.197
-238.393
-213.097
-188.927
-166.331
-145.62
-127.014
-110.661
-96.6488
-85.0187
-75.7795
-68.928
-64.4606
-62.3807
-76.5262
-79.3543
-84.6442
-92.3387
-102.351
-114.556
-128.78
-144.815
-162.438
-181.442
-201.651
-222.92
-245.133
-268.189
-291.876
-315.423
-337.538
-356.997
-373.446
-387.401
-398.668
-406.815
-412.395
-416.046
-418.148
-418.853
-418.178
-416.107
-412.496
-406.976
-398.921
-387.755
-373.874
-357.525
-338.192
-316.187
-292.726
-269.115
-246.15
-224.047
-202.911
-182.862
-164.054
-146.672
-130.931
-117.06
-105.267
-95.7223
-88.5491
-83.8304
-81.6208
-81.9538
-84.8228
-90.1888
-97.9907
-108.136
-120.49
-134.872
-151.063
-168.837
-187.986
-208.333
-229.731
-252.068
-275.229
-298.906
-322.129
-343.534
-362.061
-377.724
-390.966
-401.305
-408.63
-413.6
-416.783
-418.483
-418.797
-417.731
-415.246
-411.139
-404.955
-396.023
-383.976
-369.399
-352.204
-331.962
-309.336
-285.645
-262.08
-239.232
-217.256
-196.251
-176.342
-157.681
-140.453
-124.87
-111.156
-99.5106
-90.0946
-83.023
-78.3733
-76.1971
-57.7967
-60.7821
-66.3458
-74.4015
-84.829
-97.4661
-112.105
-128.499
-146.378
-165.484
-185.587
-206.514
-228.147
-250.412
-273.153
-295.808
-317.615
-338.12
-356.707
-371.986
-383.776
-393.019
-399.553
-403.889
-406.471
-407.372
-406.532
-404.006
-399.734
-393.296
-384.158
-372.49
-357.394
-338.948
-318.544
-296.823
-274.243
-251.568
-229.383
-207.85
-187.047
-167.095
-148.181
-130.539
-114.44
-100.157
-87.9387
-77.9931
-70.4793
-65.5145
-63.1815
-63.5338
-66.5605
-72.2002
-80.362
-90.9185
-103.698
-118.481
-135.01
-153.009
-172.216
-192.405
-213.407
-235.115
-257.448
-280.176
-302.604
-324.016
-344.002
-361.71
-375.812
-386.788
-395.225
-401.03
-404.823
-406.912
-407.298
-405.951
-402.93
-398.08
-390.852
-380.95
-368.364
-352.097
-332.9
-312.017
-289.926
-267.165
-244.525
-222.418
-200.962
-180.237
-160.375
-141.566
-124.05
-108.09
-93.9526
-81.8759
-72.0558
-64.6428
-59.7474
-57.4483
-27.3641
-30.3758
-35.9753
-44.0639
-54.5133
-67.1654
-81.8339
-98.3116
-116.381
-135.828
-156.45
-178.053
-200.442
-223.38
-246.52
-269.324
-291.276
-312.409
-332.79
-351.027
-365.593
-376.313
-384.045
-389.437
-392.753
-393.951
-392.857
-389.631
-384.338
-376.729
-366.191
-351.844
-333.781
-313.471
-292.371
-270.452
-247.678
-224.571
-201.684
-179.372
-157.876
-137.4
-118.142
-100.313
-84.1337
-69.8249
-57.5959
-47.6329
-40.092
-35.0982
-32.7462
-33.102
-36.1514
-41.8207
-50.0075
-60.5787
-73.37
-88.1885
-104.821
-123.044
-142.64
-163.402
-185.132
-207.62
-230.606
-253.688
-276.274
-297.952
-318.881
-338.803
-355.98
-369.282
-378.957
-385.929
-390.665
-393.354
-393.852
-392.078
-388.232
-382.257
-373.837
-362.17
-346.57
-327.574
-306.938
-285.623
-263.424
-240.472
-217.339
-194.515
-172.311
-150.946
-130.612
-111.506
-93.8319
-77.8072
-63.6474
-51.5553
-41.7103
-34.2625
-29.3325
-27.0118
4.77064
1.64642
-4.14736
-12.4931
-23.2441
-36.2272
-51.2476
-68.0967
-86.5618
-106.436
-127.523
-149.638
-172.594
-196.176
-220.102
-244.022
-267.423
-289.846
-310.807
-329.845
-346.25
-358.641
-367.362
-373.337
-377.247
-378.751
-377.396
-373.601
-367.76
-359.231
-347.082
-330.863
-311.9
-290.988
-268.59
-245.205
-221.298
-197.392
-173.847
-150.954
-128.934
-107.981
-88.2891
-70.0601
-53.5076
-38.8487
-26.2946
-16.0405
-8.25782
-3.09
-0.649981
-1.01964
-4.18112
-10.0439
-18.487
-29.3595
-42.483
-57.6575
-74.6692
-93.301
-113.342
-134.593
-156.862
-179.951
-203.628
-227.577
-251.395
-274.562
-296.625
-317.054
-335.445
-350.66
-361.763
-369.507
-374.787
-378.009
-378.624
-376.425
-371.985
-365.375
-355.792
-342.315
-325.057
-305.495
-284.097
-261.379
-237.799
-213.839
-189.958
-166.512
-143.756
-121.892
-101.104
-81.5794
-63.5171
-47.1264
-32.6198
-20.2034
-10.0668
-2.37658
2.72797
5.137
37.6405
34.3632
28.3011
19.594
8.41214
-5.05032
-20.5828
-37.9681
-56.992
-77.4516
-99.16
-121.944
-145.632
-170.04
-194.935
-220.083
-245.037
-269.313
-292.292
-313.13
-330.724
-343.711
-352.156
-357.848
-361.51
-363.011
-361.679
-358.153
-352.625
-344.411
-331.682
-314.255
-293.499
-270.556
-246.286
-221.323
-196.165
-171.268
-146.876
-123.227
-100.517
-78.9248
-58.6315
-39.8323
-22.7368
-7.56454
5.46375
16.1365
24.2609
29.6706
32.231
31.8426
28.5271
22.3943
13.5872
2.27969
-11.3296
-27.0258
-44.5876
-63.7974
-84.4491
-106.352
-129.327
-153.195
-177.754
-202.751
-227.899
-252.727
-276.719
-299.175
-319.196
-335.499
-346.918
-354.276
-359.253
-362.274
-362.879
-360.73
-356.562
-350.276
-340.799
-326.518
-307.933
-286.448
-263.055
-238.553
-213.505
-188.39
-163.59
-139.349
-115.88
-93.3611
-71.9625
-51.8601
-33.2453
-16.3244
-1.31325
11.5716
22.123
30.1524
35.4971
38.0256
69.2558
65.7639
59.3216
50.099
38.3004
24.1544
7.90259
-10.2139
-29.9657
-51.1448
-73.5696
-97.0834
-121.546
-146.818
-172.734
-199.124
-225.569
-251.56
-276.438
-299.319
-319.017
-333.715
-342.095
-346.321
-348.873
-349.892
-349.03
-346.618
-342.579
-334.513
-320.101
-300.558
-277.747
-252.889
-226.882
-200.405
-173.98
-148.037
-122.753
-98.3006
-74.8314
-52.4951
-31.4581
-11.9116
5.92785
21.8238
35.5303
46.8039
55.4171
61.17
63.8993
63.4848
59.9526
53.4356
44.1071
32.1753
17.8731
1.44566
-16.8623
-36.8187
-58.2135
-80.8626
-104.606
-129.295
-154.78
-180.878
-207.356
-233.76
-259.538
-283.953
-306.048
-324.454
-337.195
-343.877
-347.374
-349.42
-349.798
-348.333
-345.423
-340.44
-330.473
-314.258
-293.58
-270.079
-244.832
-218.665
-192.186
-165.875
-140.12
-115.049
-90.8233
-67.5812
-45.4669
-24.6431
-5.29872
12.352
28.0757
41.6296
52.7746
61.2872
66.9713
69.6669
98.9163
95.1368
88.1815
78.2605
65.6257
50.556
33.3404
14.2604
-6.42565
-28.4942
-51.7634
-76.0931
-101.377
-127.528
-154.458
-182.029
-209.858
-237.442
-264.097
-288.904
-310.658
-327.7
-338.051
-342.147
-343.496
-343.973
-343.631
-342.429
-338.612
-328.632
-311.851
-290.237
-265.49
-238.837
-211.216
-183.328
-155.692
-128.705
-102.505
-77.1929
-52.8686
-29.65
-7.68933
12.8193
31.6412
48.5082
63.1321
75.2208
84.4962
90.712
93.6676
93.2184
89.3953
82.3594
72.324
59.5456
44.3073
26.9022
7.61453
-13.2952
-35.6026
-59.1249
-83.72
-109.277
-135.701
-162.886
-190.626
-218.498
-245.939
-272.192
-296.252
-316.79
-331.951
-340.069
-342.866
-343.791
-343.921
-343.245
-341.482
-336.044
-323.812
-305.341
-282.649
-257.255
-230.276
-202.567
-174.756
-147.311
-120.587
-94.6598
-69.6188
-45.5564
-22.587
-0.861487
19.4268
38.0444
54.7254
69.1849
81.1348
90.3015
96.4429
99.362
126.486
122.329
114.697
103.852
90.1096
73.8178
55.3333
34.9969
13.1129
-10.0663
-34.35
-59.6103
-85.7757
-112.815
-140.714
-169.357
-198.408
-227.389
-255.626
-282.201
-305.921
-325.279
-338.501
-344.881
-346.77
-347.143
-346.912
-345.238
-339.206
-326.33
-307.204
-283.609
-257.077
-228.822
-199.779
-170.64
-141.898
-113.902
-86.7693
-60.5278
-35.2227
-10.9406
12.1753
33.9185
54.0215
72.1668
88.0039
101.172
111.322
118.148
121.4
120.905
116.701
108.98
98.0102
84.1109
67.636
48.9462
28.3853
6.25935
-17.1797
-41.7419
-67.3
-93.7799
-121.143
-149.362
-178.247
-207.414
-236.325
-264.229
-290.12
-312.707
-330.365
-341.395
-345.946
-347.039
-347.104
-346.506
-343.788
-335.716
-320.732
-300.066
-275.465
-248.35
-219.838
-190.778
-161.789
-133.307
-105.638
-78.8289
-52.8979
-27.8852
-3.87646
18.9841
40.4891
60.3714
78.3151
93.9733
106.989
117.021
123.764
126.976
152.309
147.672
139.177
127.148
111.983
94.1215
74.0084
52.0653
28.6612
4.09252
-21.4297
-47.7825
-74.924
-102.876
-131.695
-161.282
-191.361
-221.5
-251.058
-279.144
-304.608
-326.061
-341.996
-351.464
-355.477
-356.477
-355.677
-351.948
-342.831
-327.203
-305.953
-280.596
-252.534
-222.935
-192.707
-162.505
-132.778
-103.815
-75.7168
-48.4405
-21.9817
3.59928
28.1598
51.468
73.2075
92.9916
110.386
124.937
136.208
143.811
147.44
146.888
142.198
133.604
121.437
106.099
88.0375
67.7019
45.5172
21.8537
-2.9933
-28.8152
-55.4919
-82.9816
-111.299
-140.49
-170.376
-200.636
-230.772
-260.066
-287.542
-311.967
-331.889
-345.84
-353.342
-356.08
-356.395
-354.812
-349.596
-338.434
-320.918
-298.269
-271.992
-243.418
-213.63
-183.451
-153.463
-124.053
-95.465
-67.7304
-40.796
-14.6543
10.6331
34.9203
57.9731
79.4747
99.0398
116.238
130.622
141.761
149.273
152.856
176.944
171.716
162.154
148.659
131.73
111.916
89.7759
65.8332
40.541
14.2562
-12.7759
-40.4267
-68.6761
-97.5902
-127.284
-157.683
-188.581
-219.608
-250.169
-279.418
-306.26
-329.402
-347.502
-359.588
-365.871
-367.761
-366.14
-360.176
-348.423
-330.594
-307.63
-280.874
-251.628
-221.001
-189.854
-158.794
-128.209
-98.3155
-69.1926
-40.7399
-12.9112
14.2507
40.592
65.8409
89.6141
111.435
130.762
147.029
159.686
168.249
172.339
171.717
166.431
156.758
143.109
125.988
105.955
83.5736
59.3716
33.8036
7.22521
-20.1225
-48.116
-76.7382
-106.053
-136.146
-166.885
-198.014
-229.093
-259.452
-288.162
-314.057
-335.802
-352.097
-362.244
-366.919
-367.61
-364.715
-357.021
-343.32
-323.778
-299.535
-271.943
-242.252
-211.496
-180.453
-149.655
-119.426
-89.9393
-61.2079
-33.1189
-5.62467
21.2283
47.281
72.258
95.7751
117.358
136.47
152.551
165.06
173.521
177.561
201.011
195.082
184.246
168.998
149.954
127.797
103.218
76.8652
49.2933
20.9371
-7.90897
-37.0975
-66.6188
-96.5744
-127.106
-158.191
-189.704
-221.339
-252.555
-282.562
-310.325
-334.633
-354.239
-368.15
-376.115
-378.722
-376.43
-368.795
-355.195
-335.831
-311.678
-283.978
-253.951
-222.641
-190.852
-159.135
-127.808
-97.0103
-66.7789
-36.9769
-7.52878
21.5277
50.0136
77.6009
103.822
128.089
149.735
168.055
182.368
192.073
196.713
196.008
190.012
179.053
163.632
144.376
121.978
97.1378
70.5071
42.6441
13.9819
-15.1898
-44.7307
-74.6371
-105.011
-135.952
-167.402
-199.177
-230.904
-261.965
-291.493
-318.387
-341.403
-359.331
-371.35
-377.51
-378.514
-374.58
-365.091
-349.625
-328.675
-303.34
-274.875
-244.459
-213.065
-181.418
-149.994
-119.045
-88.664
-58.8389
-29.4121
-0.307938
28.4295
56.614
83.9135
109.859
133.868
155.276
173.39
187.537
197.128
201.711
225.094
218.356
206.052
188.778
167.286
142.413
115.003
85.8408
55.6031
24.8162
-6.16021
-37.1437
-68.1207
-99.2131
-130.565
-162.234
-194.174
-226.152
-257.673
-288.011
-316.206
-341.119
-361.577
-376.56
-385.548
-388.604
-385.878
-377.214
-362.521
-342.277
-317.492
-289.337
-258.954
-227.311
-195.141
-162.95
-130.981
-99.2941
-67.8453
-36.5009
-5.16783
26.107
57.1036
87.4199
116.488
143.594
167.924
188.618
204.842
215.866
221.136
220.337
213.524
201.082
183.615
161.889
136.751
109.056
79.5982
49.0545
17.9514
-13.354
-44.6894
-76.0486
-107.553
-139.313
-171.353
-203.573
-235.661
-267.055
-296.958
-324.345
-348.052
-366.93
-380.063
-387.15
-388.362
-383.777
-373.209
-356.714
-334.982
-309.093
-280.231
-249.497
-217.794
-185.788
-153.901
-122.311
-91.0263
-59.9892
-29.0201
1.9682
32.9197
63.6038
93.6164
122.389
149.214
173.283
193.747
209.786
220.681
225.887
249.687
242.046
228.101
208.563
184.337
156.426
125.841
93.5199
60.2691
26.7165
-6.69549
-39.7293
-72.351
-104.681
-136.864
-169.042
-201.251
-233.36
-264.85
-295.099
-323.234
-348.209
-368.918
-384.364
-393.87
-397.165
-394.193
-384.992
-369.804
-349.279
-324.405
-296.283
-265.962
-234.322
-201.981
-169.469
-136.929
-104.336
-71.5624
-38.4798
-5.00089
28.8014
62.6482
96.0434
128.309
158.594
185.925
209.27
227.63
240.126
246.101
245.196
237.471
223.371
203.619
179.133
150.932
120.039
87.4022
53.83
19.9508
-13.7861
-47.1615
-80.1484
-112.866
-145.439
-177.977
-210.473
-242.68
-274.048
-303.888
-331.266
-355.107
-374.323
-387.99
-395.572
-396.905
-391.976
-380.876
-363.969
-342.039
-316.129
-287.342
-256.691
-224.982
-192.814
-160.604
-128.429
-96.2157
-63.8303
-31.1077
2.03553
35.5173
69.0401
102.115
134.064
164.043
191.087
214.178
232.331
244.683
250.586
275.189
266.566
250.841
228.857
201.682
170.495
136.479
100.735
64.2018
27.6034
-8.51353
-43.8283
-78.2762
-111.95
-145
-177.639
-209.966
-241.893
-273.057
-302.889
-330.601
-355.234
-375.765
-391.229
-400.873
-404.248
-401.173
-391.803
-376.561
-356.181
-331.615
-303.886
-273.949
-242.595
-210.394
-177.713
-144.648
-111.11
-76.9008
-41.8953
-6.03799
30.5587
67.5392
104.282
140.009
173.725
204.29
230.497
251.165
265.259
272.001
270.98
262.263
246.366
224.145
196.684
165.18
130.833
94.7521
57.8811
20.9377
-15.4872
-51.1251
-85.9099
-119.929
-153.331
-186.295
-218.87
-250.892
-281.94
-311.384
-338.383
-361.953
-381.075
-394.84
-402.593
-403.983
-398.941
-387.718
-370.844
-349.141
-323.602
-295.246
-264.995
-233.583
-201.528
-169.116
-136.383
-103.194
-69.3267
-34.6525
0.886259
37.1773
73.8141
110.22
145.608
178.992
209.244
235.169
255.608
269.541
276.203
301.909
292.239
274.642
250.104
219.864
185.279
147.706
108.401
68.4431
28.6878
-10.2458
-47.9849
-84.3917
-119.503
-153.484
-186.599
-219.003
-250.669
-281.339
-310.529
-337.547
-361.537
-381.563
-396.716
-406.23
-409.572
-406.495
-397.215
-382.243
-362.328
-338.369
-311.296
-281.963
-251.062
-219.074
-186.261
-152.654
-118.107
-82.3663
-45.3058
-6.92733
32.5819
72.794
113.021
152.342
189.616
223.537
252.718
275.802
291.582
299.145
297.999
288.225
270.437
245.638
215.085
180.156
142.227
102.565
62.2602
22.1702
-17.0769
-55.1222
-91.8319
-127.239
-161.522
-194.915
-227.523
-259.26
-289.807
-318.624
-344.969
-367.961
-386.666
-400.214
-407.91
-409.313
-404.319
-393.267
-376.757
-355.601
-330.729
-303.063
-273.425
-242.455
-210.579
-177.993
-144.671
-110.426
-74.9771
-38.215
-0.139622
39.057
78.9336
118.811
157.774
194.689
228.268
257.142
279.972
295.574
303.047
330.111
319.377
299.904
272.834
239.573
201.648
160.572
117.743
74.3656
31.4057
-10.4293
-50.69
-89.1609
-125.807
-160.81
-194.47
-226.984
-258.384
-288.494
-316.925
-343.089
-366.24
-385.545
-400.169
-409.377
-412.612
-409.596
-400.576
-386.086
-366.848
-343.686
-317.426
-288.81
-258.423
-226.651
-193.67
-159.45
-123.801
-86.4355
-47.2194
-6.22955
36.2651
79.752
123.452
166.327
207.102
244.322
276.439
301.921
319.395
327.796
326.52
315.673
295.992
268.638
235.039
196.743
155.284
112.077
68.3395
25.0428
-17.1023
-57.6502
-96.3873
-133.275
-168.525
-202.408
-235.077
-266.512
-296.482
-324.545
-350.071
-372.289
-390.362
-403.485
-410.978
-412.364
-407.525
-396.838
-380.911
-360.517
-336.498
-309.672
-280.75
-250.271
-218.57
-185.764
-151.776
-116.375
-79.2491
-40.2966
0.407046
42.5903
85.7373
129.073
171.566
211.957
248.807
280.59
305.797
323.075
331.378
360.024
348.28
327.042
297.606
261.534
220.5
176.152
130.005
83.369
37.3066
-7.38699
-50.1768
-90.7603
-129.017
-165.145
-199.458
-232.177
-263.38
-292.963
-320.625
-345.886
-368.115
-386.589
-400.567
-409.369
-412.456
-409.536
-400.868
-386.973
-368.517
-346.231
-320.829
-292.935
-263.027
-231.399
-198.153
-163.214
-126.364
-87.3035
-45.8923
-2.29511
43.1288
89.7771
136.779
182.994
227.037
267.328
302.178
329.904
348.974
358.173
356.773
344.907
323.447
293.706
257.271
215.84
171.083
124.536
77.5228
31.1159
-13.8852
-56.9447
-97.7597
-136.205
-172.525
-207.003
-239.824
-271.019
-300.437
-327.732
-352.384
-373.74
-391.073
-403.66
-410.867
-412.222
-407.599
-397.383
-382.159
-362.629
-339.538
-313.591
-285.385
-255.355
-223.75
-190.624
-155.859
-119.203
-80.3311
-39.1511
4.17455
49.287
95.585
142.204
188.013
231.645
271.539
306.031
333.462
352.322
361.415
391.814
379.185
356.418
324.946
286.464
242.763
195.589
146.545
97.0202
48.1518
0.813564
-44.375
-87.02
-126.906
-164.24
-199.322
-232.379
-263.514
-292.681
-319.66
-344.071
-365.399
-383.034
-396.335
-404.697
-407.618
-404.806
-396.52
-383.247
-365.578
-344.142
-319.54
-292.281
-262.738
-231.124
-197.484
-161.712
-123.589
-82.8259
-39.285
6.77265
54.8945
104.392
154.312
203.437
250.298
293.225
330.421
360.081
380.537
390.437
388.927
376.169
353.166
321.372
282.505
238.382
190.774
141.307
91.386
42.161
-5.48639
-50.9327
-93.7808
-133.81
-171.285
-206.478
-239.582
-270.665
-299.638
-326.245
-350.073
-370.584
-387.164
-399.187
-406.082
-407.401
-403.017
-393.308
-378.811
-360.148
-337.956
-312.825
-285.241
-255.543
-223.903
-190.328
-154.676
-116.696
-76.0771
-32.7419
13.0529
60.8582
109.99
159.506
208.201
254.625
297.13
333.946
363.293
383.528
393.315
425.595
412.284
388.357
355.359
315.083
269.393
220.095
168.837
117.051
65.9209
16.3807
-30.8776
-75.3728
-116.793
-155.336
-191.263
-224.779
-255.997
-284.904
-311.35
-335.044
-355.574
-372.441
-385.107
-393.046
-395.802
-393.093
-385.169
-372.473
-355.516
-334.825
-310.89
-284.114
-254.779
-223.032
-188.88
-152.21
-112.822
-70.4698
-25.0308
23.1362
73.4913
125.272
177.469
228.812
277.789
322.68
361.625
392.738
414.25
424.693
423.097
409.651
385.479
352.146
311.467
265.335
215.581
163.877
111.673
60.1716
10.3152
-37.1962
-81.8764
-123.408
-162.053
-198.044
-231.56
-262.682
-291.367
-317.433
-340.563
-360.328
-376.222
-387.718
-394.316
-395.603
-391.453
-382.229
-368.411
-350.533
-329.128
-304.678
-277.563
-248.039
-216.22
-182.082
-145.484
-106.2
-63.9602
-18.7122
29.1921
79.2193
130.616
182.385
233.274
281.791
326.24
364.789
395.576
416.857
427.183
461.436
447.725
423.148
389.327
348.103
301.367
250.93
198.44
145.328
92.7895
41.7861
-6.93938
-52.8344
-95.4987
-135.099
-171.827
-205.843
-237.243
-266.032
-292.103
-315.238
-335.115
-351.334
-363.45
-371.015
-373.622
-370.998
-363.386
-351.18
-334.815
-314.724
-291.297
-264.847
-235.585
-203.61
-168.915
-131.404
-90.924
-47.2968
-0.436844
49.2098
101.033
154.224
207.743
260.314
310.423
356.349
396.224
428.129
450.238
461.002
459.353
445.506
420.68
386.515
344.878
297.685
246.775
193.819
140.27
87.3424
36.0112
-12.9698
-59.0417
-101.809
-141.489
-178.248
-212.225
-243.494
-272.036
-297.721
-320.31
-339.467
-354.787
-365.832
-372.176
-373.439
-369.499
-360.701
-347.468
-330.249
-309.482
-285.55
-258.749
-229.269
-197.184
-162.464
-124.99
-84.587
-41.0578
5.61216
54.9862
106.465
159.25
212.32
264.416
314.047
359.518
398.986
430.557
452.431
463.075
499.361
485.617
461.045
427.295
386.206
339.638
289.353
236.944
183.792
131.06
79.698
30.464
-16.0477
-59.373
-99.6164
-136.875
-171.243
-202.776
-231.472
-257.248
-279.934
-299.277
-314.957
-326.609
-333.856
-336.332
-333.775
-326.421
-314.621
-298.742
-279.134
-256.11
-229.912
-200.704
-168.562
-133.489
-95.4281
-54.2954
-10.0084
37.4569
87.5932
139.753
193.114
246.654
299.134
349.09
394.857
434.613
466.465
488.584
499.382
497.724
483.844
459.023
424.931
383.427
336.398
285.631
232.743
179.139
126
74.2963
24.8005
-21.8767
-65.3379
-105.661
-142.935
-177.24
-208.618
-237.051
-262.439
-284.598
-303.263
-318.111
-328.784
-334.916
-336.165
-332.407
-323.971
-311.228
-294.556
-274.308
-250.791
-224.236
-194.79
-162.513
-127.388
-89.3454
-48.2829
-4.10003
43.1616
93.0067
144.801
197.737
250.811
302.802
352.272
397.58
436.927
468.446
490.33
501.01
539.361
526.025
502.245
469.647
430.003
385.085
336.547
285.872
234.34
183.032
132.838
84.4871
38.5697
-4.4276
-44.5146
-81.6781
-115.926
-147.261
-175.65
-201.012
-223.199
-242.006
-257.169
-268.387
-275.339
-277.695
-275.2
-268.085
-256.667
-241.257
-222.144
-199.581
-173.767
-144.841
-112.884
-77.9244
-39.9669
0.986955
44.9067
91.7299
140.931
191.871
243.765
295.654
346.387
394.607
438.76
477.129
507.91
529.329
539.814
538.201
524.735
500.714
467.782
427.735
382.362
333.346
282.191
230.2
178.473
127.921
79.2901
33.1892
-9.97979
-50.1612
-87.3399
-121.519
-152.69
-180.814
-205.795
-227.478
-245.65
-260.046
-270.369
-276.307
-277.541
-273.952
-265.852
-253.571
-237.426
-217.711
-194.674
-168.507
-139.338
-107.236
-72.2183
-34.2784
6.59366
50.3821
96.9754
145.862
196.417
247.872
299.288
349.532
397.271
440.973
478.945
509.402
530.594
540.965
581.386
568.969
546.885
516.675
479.985
438.433
393.513
346.544
298.656
250.795
203.745
158.149
114.538
73.3637
34.7373
-1.21282
-34.4062
-64.7794
-92.2595
-116.745
-138.096
-156.127
-170.613
-181.299
-187.902
-190.123
-187.715
-180.904
-169.98
-155.211
-136.845
-115.099
-90.1489
-62.131
-31.1447
2.73571
39.4397
78.8736
120.89
165.321
211.683
259.404
307.788
355.996
403.015
447.645
488.5
524.025
552.567
572.471
582.242
580.736
568.198
545.89
515.368
478.298
436.317
390.94
343.506
295.165
246.883
199.462
153.562
109.731
68.3461
29.6004
-6.38061
-39.5154
-69.7364
-96.9651
-121.094
-141.976
-159.424
-173.213
-183.089
-188.778
-189.984
-186.587
-178.887
-167.181
-151.743
-132.823
-110.635
-85.3526
-57.1048
-25.9838
7.94285
44.6114
83.9352
125.775
169.943
215.97
263.295
311.241
358.985
405.533
449.705
490.133
525.285
553.526
573.22
582.884
625.356
614.415
595.015
568.544
536.459
500.168
460.949
419.912
377.992
335.96
294.44
253.94
214.87
177.573
142.298
109.273
78.6551
50.5667
25.1226
2.44834
-17.3084
-33.9726
-47.3422
-57.1904
-63.2685
-65.3013
-63.0524
-56.7415
-46.6337
-32.9682
-15.9633
4.18573
27.3097
53.264
81.9237
113.17
146.873
182.858
220.873
260.643
301.799
343.893
386.379
428.579
469.668
508.649
544.349
575.436
600.464
617.964
626.581
625.25
614.202
594.604
567.856
535.432
498.756
459.122
417.657
375.312
332.874
290.983
250.158
210.825
173.283
137.86
104.777
74.1895
46.2225
20.9933
-1.3693
-20.7149
-36.8673
-49.6252
-58.7647
-64.0406
-65.1789
-62.0598
-54.9704
-44.1778
-29.9251
-12.4329
8.10369
31.5171
57.6661
86.4296
117.693
151.329
187.165
224.952
264.429
305.238
346.945
389.014
430.783
471.441
510.008
545.327
576.082
600.843
618.157
626.68
671.163
662.28
646.59
625.261
599.499
570.445
539.116
506.374
472.924
439.329
406.021
373.325
341.478
310.643
281.194
253.422
227.529
203.672
181.99
162.622
145.719
131.447
119.988
111.542
106.328
104.59
106.546
111.992
120.69
132.429
147.017
164.277
184.046
206.175
230.525
256.95
285.286
315.311
346.707
379.107
412.327
446.103
480.076
513.772
546.584
577.753
606.365
631.355
651.543
665.713
672.718
671.633
662.662
646.81
625.254
599.212
569.839
538.161
505.054
471.236
437.277
403.62
370.597
338.45
307.352
277.729
249.867
223.964
200.179
178.651
159.522
142.943
129.081
118.117
110.248
105.69
104.691
107.364
113.446
122.7
134.913
149.891
167.454
187.442
209.708
234.112
260.513
288.745
318.584
349.704
381.798
414.685
448.108
481.715
515.041
547.489
578.313
606.61
631.326
651.296
665.314
672.242
718.67
712.419
701.45
686.643
668.889
649.011
627.721
605.605
583.117
560.589
538.248
516.217
494.525
473.105
452.406
432.724
414.252
397.135
381.499
367.471
355.178
344.762
336.37
330.165
326.322
325.043
326.508
330.545
336.96
345.581
356.253
368.828
383.17
399.15
416.643
435.515
455.613
476.724
498.522
520.604
543.019
565.717
588.548
611.258
633.478
654.713
674.339
691.603
705.651
715.578
720.516
719.749
713.435
702.348
687.378
669.421
649.309
627.763
605.375
582.604
559.789
537.155
514.826
492.826
471.151
450.27
430.469
411.94
394.828
379.262
365.368
353.276
343.126
335.065
329.254
325.869
325.114
327.085
331.563
338.356
347.293
358.215
370.974
385.436
401.471
418.955
437.757
457.72
478.625
500.125
521.92
544.05
566.464
589.012
611.444
633.395
654.378
673.775
690.842
704.732
714.55
719.433
767.75
764.663
759.349
752.331
744.123
735.177
725.866
716.467
707.17
698.08
689.219
680.529
671.846
662.865
654.015
645.506
637.447
629.913
622.967
616.671
611.096
606.316
602.419
599.501
597.671
597.059
597.786
599.737
602.783
606.82
611.753
617.498
623.979
631.129
638.883
647.176
655.926
665.006
674.177
683.085
692.018
701.123
710.447
719.947
729.497
738.883
747.801
755.852
762.56
767.402
769.854
769.469
766.348
760.97
753.863
745.545
736.471
727.017
717.464
708.002
698.734
689.68
680.768
671.817
662.627
653.61
644.967
636.806
629.202
622.22
615.923
610.382
605.675
601.887
599.116
597.472
597.089
598.034
600.16
603.344
607.48
612.476
618.247
624.719
631.824
639.501
647.683
656.286
665.173
674.072
682.757
691.495
700.423
709.578
718.919
728.319
737.566
746.36
754.304
760.928
765.71
768.132
818.182
818.726
819.877
821.737
824.373
827.815
832.046
837.012
842.623
848.757
855.265
861.962
868.592
874.737
880.598
886.174
891.413
896.251
900.629
904.493
907.798
910.511
912.612
914.092
914.959
915.24
914.97
914.115
912.648
910.562
907.865
904.58
900.741
896.391
891.586
886.388
880.857
875.042
868.92
862.357
855.762
849.384
843.407
837.978
833.212
829.195
825.973
823.55
821.889
820.911
820.509
820.565
821.106
822.253
824.108
826.738
830.17
834.389
839.337
844.922
851.018
857.471
864.081
870.565
876.591
882.332
887.78
892.882
897.573
901.794
905.492
908.626
911.164
913.089
914.394
915.093
915.216
914.786
913.76
912.118
909.855
906.984
903.529
899.526
895.022
890.072
884.737
879.078
873.132
866.845
860.182
853.522
847.099
841.091
835.641
830.861
826.833
823.603
821.175
819.51
818.53
818.127
)
;

boundaryField
{
    top
    {
        type            fixedFluxPressure;
        gradient        nonuniform List<scalar> 
102
(
1572.82
1691.76
1903.03
2192.08
2543.74
2943.53
3378.47
3837.48
4311.57
4793.84
5279.7
5767.42
6260.22
6771.92
7278.47
7768.86
8235.97
8674.02
9077.77
9442.21
9762.47
10033.8
10251.7
10411.9
10510.3
10542.8
10506.4
10404.1
10239.8
10017.4
9741.15
9415.66
9045.59
8635.86
8191.56
7718.09
7221.53
6709.62
6195.07
5698.23
5206.24
4716.63
4231.68
3756.55
3298.74
2867.91
2475.76
2135.89
1863.2
1672.97
1579.45
1593.89
1713.84
1926.98
2218.65
2573.53
2976.98
3415.89
3879.05
4357.38
4843.98
5334.41
5827.47
6327.88
6843.86
7352.84
7844.1
8310.55
8746.36
9146.23
9505.13
9818.2
10080.8
10288.4
10436.9
10522.4
10540.9
10490.7
10375.8
10200.1
9967.83
9683.22
9350.93
8975.73
8562.51
8116.36
7642.66
7147.55
6639.22
6132.3
5640.55
5152.86
4667.38
4186.56
3715.58
3261.86
2834.94
2446.41
2109.68
1839.52
1651.07
1558.44
)
;
        value           nonuniform List<scalar> 
102
(
844.396
846.922
851.594
858.271
866.769
876.874
888.354
900.97
914.482
928.654
943.26
958.086
972.929
987.603
1001.91
1015.65
1028.68
1040.82
1051.93
1061.86
1070.51
1077.74
1083.47
1087.62
1090.13
1090.95
1090.08
1087.52
1083.31
1077.52
1070.22
1061.51
1051.5
1040.32
1028.11
1015.02
1001.22
986.869
972.171
957.328
942.533
927.994
913.935
900.587
888.191
876.994
867.235
859.148
852.942
848.794
846.834
847.129
849.67
854.37
861.085
869.63
879.787
891.321
903.988
917.545
931.751
946.378
961.206
976.029
990.655
1004.88
1018.52
1031.39
1043.35
1054.23
1063.91
1072.26
1079.18
1084.56
1088.34
1090.47
1090.9
1089.63
1086.69
1082.12
1075.99
1068.37
1059.38
1049.12
1037.73
1025.34
1012.11
998.204
983.786
969.05
954.192
939.403
924.889
910.867
897.567
885.225
874.082
864.377
856.337
850.169
846.047
844.1
)
;
    }
    bottom
    {
        type            fixedFluxPressure;
        gradient        nonuniform List<scalar> 
102
(
0
0
0
0
0
0
0
0
0
0
0
0
0
0
0
0
0
0
0
0
0
0
0
0
0
0
0
0
0
0
0
0
0
0
0
0
0
0
0
0
0
0
0
0
0
0
0
0
0
0
0
0
0
0
0
0
0
0
0
0
0
0
0
0
0
0
0
0
0
0
0
0
0
0
0
0
0
0
0
0
0
0
0
0
0
0
0
0
0
0
0
0
0
0
0
0
0
0
0
0
0
-1.64549e-14
)
;
        value           nonuniform List<scalar> 
102
(
-38.8698
-41.9494
-47.7208
-56.1399
-67.1618
-80.7513
-96.8838
-115.53
-136.624
-160.034
-185.533
-212.782
-241.307
-270.472
-299.453
-327.277
-352.96
-375.604
-394.468
-409.22
-420.068
-427.493
-432.221
-435.001
-436.428
-436.86
-436.416
-434.987
-432.222
-427.536
-420.181
-409.424
-394.77
-375.995
-353.409
-327.749
-299.923
-270.936
-241.781
-213.297
-186.132
-160.769
-137.554
-116.716
-98.3884
-82.6358
-69.4885
-58.971
-51.1173
-45.9686
-43.5635
-43.9254
-47.0499
-52.909
-61.4622
-72.6693
-86.4993
-102.928
-121.921
-143.396
-167.199
-193.071
-220.634
-249.363
-278.564
-307.345
-334.697
-359.637
-381.286
-398.99
-412.592
-422.399
-428.982
-433.098
-435.466
-436.614
-436.827
-436.156
-434.42
-431.197
-425.838
-417.582
-405.749
-389.924
-370.017
-346.496
-320.163
-291.939
-262.818
-233.748
-205.502
-178.671
-153.69
-130.869
-110.406
-92.4136
-76.9448
-64.0251
-53.681
-45.9509
-40.8807
-38.512
)
;
    }
    frontAndBack
    {
        type            empty;
    }
    left_cyc
    {