/*--------------------------------*- C++ -*----------------------------------*\
| =========                 |                                                 |
| \\      /  F ield         | OpenFOAM: The Open Source CFD Toolbox           |
|  \\    /   O peration     | Version:  2.3.0                                 |
|   \\  /    A nd           | Web:      www.OpenFOAM.org                      |
|    \\/     M anipulation  |                                                 |
\*---------------------------------------------------------------------------*/
FoamFile
{
    version     2.0;
    format      ascii;
    class       surfaceScalarField;
    location    "12000";
    object      phi;
}
// * * * * * * * * * * * * * * * * * * * * * * * * * * * * * * * * * * * * * //

dimensions      [0 3 -1 0 0 0 0];

internalField   nonuniform List<scalar> 
1464
(
0.0242785
-0.0215485
0.0447719
-0.0204933
0.0632736
-0.0185017
0.0788453
-0.0155717
0.0904983
-0.011653
0.0970523
-0.00655398
0.096999
5.32788e-05
0.0889291
0.00806993
0.0732797
0.0156494
0.0522994
0.0209802
0.0302234
0.0220761
0.0107724
0.0194509
-0.00680807
0.0175805
-0.0256262
0.0188181
-0.0472685
0.0216423
-0.0690396
0.0217712
-0.0860848
0.0170452
-0.0960249
0.00994011
-0.097811
0.00178604
-0.0926329
-0.0051781
-0.0820491
-0.0105837
-0.0673076
-0.0147416
-0.0494212
-0.0178863
-0.0293277
-0.0200935
-0.00795882
-0.0213689
0.0137537
-0.0217125
0.0348733
-0.0211197
0.0544684
-0.0195951
0.0716084
-0.01714
0.0853486
-0.0137402
0.0946353
-0.00928665
0.0981382
-0.00350293
0.0942833
0.00385491
0.0822676
0.0120157
0.0637436
0.018524
0.0414296
0.022314
0.02044
0.0209895
0.0022555
0.0181845
-0.0155037
0.0177592
-0.0357317
0.020228
-0.0581089
0.0223772
-0.0779439
0.0198351
-0.0918532
0.0139092
-0.0977892
0.00593606
-0.0960015
-0.00178767
-0.0880243
-0.00797721
-0.0752789
-0.0127455
-0.0588777
-0.0164012
-0.0397854
-0.0190923
-0.0189374
-0.0208479
-0.0216675
0.0269333
-0.0454547
0.049489
-0.0430491
0.0696086
-0.0386213
0.0863607
-0.0323238
0.0989989
-0.0242912
0.10703
-0.0145846
0.110315
-0.00323188
0.108725
0.00966
0.100141
0.0242328
0.0813682
0.0397533
0.0530636
0.0503806
0.0202893
0.0522252
-0.0129419
0.0508118
-0.0459744
0.0518506
-0.0758538
0.0515216
-0.0970114
0.0429289
-0.107723
0.0277569
-0.110582
0.0127992
-0.108378
-0.000418577
-0.101441
-0.0121143
-0.0898425
-0.0221826
-0.0739963
-0.0305877
-0.0545957
-0.0372869
-0.0325283
-0.042161
-0.00884187
-0.0450553
0.015291
-0.0458454
0.0386566
-0.0444853
0.0601103
-0.0410487
0.0786451
-0.0356748
0.0934215
-0.0285167
0.10381
-0.0196755
0.109488
-0.00918094
0.110434
0.00290898
0.105915
0.0165348
0.0925787
0.0318607
0.0687819
0.0461108
0.0374829
0.0522885
0.00432306
0.0513444
-0.0288801
0.0509623
-0.0611087
0.0524566
-0.0872943
0.0485628
-0.103321
0.0358618
-0.109723
0.0203115
-0.110008
0.00622062
-0.10552
-0.00627572
-0.0962904
-0.0172066
-0.0825513
-0.0264846
-0.0648686
-0.0340839
-0.0440387
-0.0399222
-0.0210338
-0.0438529
-0.0457283
0.025525
-0.0681134
0.0467746
-0.0642987
0.0655076
-0.0573542
0.080822
-0.0476383
0.0920496
-0.0355187
0.0987612
-0.0212963
0.100718
-0.00518901
0.0977137
0.0126646
0.0896111
0.0323355
0.0761478
0.0532166
0.054154
0.0723745
0.0221788
0.0842004
-0.0142746
0.0872651
-0.0478972
0.0854732
-0.0723295
0.075954
-0.0872283
0.0578277
-0.0964929
0.0370214
-0.100661
0.0169677
-0.0998219
-0.00125808
-0.0941919
-0.0177443
-0.0839846
-0.0323899
-0.069575
-0.0449974
-0.0515728
-0.0552891
-0.0308237
-0.0629101
-0.00838729
-0.0674917
0.0145171
-0.0687497
0.0366186
-0.0665868
0.0567328
-0.0611629
0.0738538
-0.0527958
0.0871981
-0.0418609
0.0962199
-0.0286973
0.100598
-0.0135596
0.100135
0.00337229
0.0946187
0.0220512
0.0839877
0.0424916
0.0671042
0.0629943
0.0399144
0.0794784
0.00480649
0.0864523
-0.0312381
0.0870069
-0.0609697
0.0821882
-0.0802462
0.0678393
-0.0922467
0.0478623
-0.0990527
0.0271175
-0.100772
0.00794012
-0.0975891
-0.00945879
-0.0897024
-0.0250933
-0.0773886
-0.0387984
-0.0611357
-0.0503368
-0.041672
-0.0593859
-0.0199543
-0.0655705
-0.0685489
0.0224507
-0.0880462
0.0410151
-0.0828631
0.0571403
-0.0734794
0.0699689
-0.060467
0.0788795
-0.0444293
0.0834721
-0.0258889
0.0835313
-0.00524822
0.079022
0.0171739
0.0703054
0.0410521
0.0579058
0.0656162
0.0411152
0.0891651
0.0174169
0.107899
-0.011338
0.11602
-0.0366773
0.110813
-0.0547132
0.0939898
-0.0679733
0.0710878
-0.0775534
0.0466015
-0.0830764
0.0224908
-0.0840703
-0.000264209
-0.0805107
-0.0213039
-0.0725741
-0.0403265
-0.060612
-0.0569595
-0.0451894
-0.0707117
-0.0271059
-0.0809936
-0.00738334
-0.0872142
0.0127937
-0.0889268
0.0321911
-0.0859842
0.0496588
-0.0786306
0.0642312
-0.0673682
0.0751718
-0.0528015
0.0819756
-0.0355011
0.0843411
-0.0159251
0.0821352
0.00557821
0.0754752
0.0287113
0.0649273
0.0530395
0.0505856
0.077336
0.0308537
0.0992103
0.00385951
0.113446
-0.0243236
0.11519
-0.0460055
0.10387
-0.0615159
0.0833496
-0.0729818
0.0593283
-0.0806888
0.0348245
-0.0840459
0.0112973
-0.082822
-0.0106827
-0.0771057
-0.0308095
-0.0671554
-0.0487487
-0.0534238
-0.0640685
-0.0365912
-0.0762185
-0.0175723
-0.0845895
-0.0886391
0.0181789
-0.10419
0.0330772
-0.0977614
0.0457655
-0.0861676
0.0554926
-0.0701941
0.0617459
-0.0506826
0.0642372
-0.0283803
0.0628764
-0.00388738
0.0577736
0.0222767
0.049344
0.0494817
0.0382767
0.0766835
0.02524
0.102202
0.0101392
0.122999
-0.00657276
0.132732
-0.0221749
0.126415
-0.0356222
0.107437
-0.0471859
0.0826515
-0.0562766
0.0556922
-0.0621881
0.0284022
-0.0644249
0.00197262
-0.0628204
-0.0229083
-0.0574206
-0.0457263
-0.0484639
-0.0659163
-0.0364064
-0.0827693
-0.0219412
-0.0954588
-0.005985
-0.10317
0.0103852
-0.105297
0.0260451
-0.101644
0.0399515
-0.092537
0.0512436
-0.0786603
0.0592922
-0.0608501
0.0637019
-0.0399108
0.0642872
-0.0165104
0.0610525
0.00881288
0.0542397
0.035524
0.044429
0.0628502
0.0323312
0.0894338
0.018367
0.113175
0.0022286
0.129585
-0.0143001
0.131719
-0.0288204
0.11839
-0.0413979
0.0959271
-0.0518587
0.069789
-0.059499
0.0424648
-0.0636729
0.0154712
-0.0640562
-0.0102995
-0.060594
-0.0342717
-0.0534246
-0.0559181
-0.04289
-0.0746031
-0.0295626
-0.0895459
-0.0142512
-0.0999008
-0.104926
0.0131313
-0.115854
0.0237507
-0.108381
0.0325303
-0.0949472
0.0388797
-0.0765436
0.0424395
-0.0542424
0.0430746
-0.0290153
0.0408574
-0.00167023
0.0360658
0.0270683
0.0292128
0.0563347
0.021043
0.0848533
0.0125084
0.110736
0.00454092
0.130967
-0.0029225
0.140195
-0.0107253
0.134217
-0.0192055
0.115917
-0.0275534
0.0909994
-0.0347784
0.0629172
-0.0400963
0.0337201
-0.0429376
0.00481387
-0.042974
-0.0228718
-0.0400868
-0.0486136
-0.0343607
-0.0716424
-0.0261
-0.0910299
-0.01584
-0.105719
-0.00433027
-0.11468
0.00752779
-0.117155
0.0187884
-0.112905
0.0285817
-0.10233
0.0362116
-0.0862902
0.0412044
-0.0658429
0.0433162
-0.0420226
0.0425175
-0.0157117
0.0389805
0.0123499
0.0330919
0.0414126
0.0254848
0.0704574
0.016993
0.0979256
0.00863141
0.121536
0.000985597
0.137231
-0.0065417
0.139246
-0.0147186
0.126567
-0.0232669
0.104475
-0.0311836
0.0777057
-0.0375757
0.0488569
-0.0417516
0.0196471
-0.0432631
-0.008788
-0.0418859
-0.0356489
-0.0375989
-0.0602051
-0.0305919
-0.0816101
-0.0212828
-0.098855
-0.0103176
-0.110866
-0.11671
0.00757133
-0.122583
0.0135309
-0.11434
0.0181568
-0.0995731
0.0210645
-0.0794513
0.0220736
-0.0552514
0.021207
-0.0281487
0.0186829
0.000853867
0.0149056
0.0308456
0.0104465
0.0607938
0.00602407
0.0892757
0.00248104
0.114279
0.000531221
0.132917
-0.000328817
0.141056
-0.00192664
0.135815
-0.00516275
0.119154
-0.00947138
0.095308
-0.0139942
0.0674401
-0.0179876
0.0377134
-0.0208441
0.00767036
-0.0221202
-0.0215957
-0.0215544
-0.0491794
-0.0190775
-0.0741192
-0.0148213
-0.0952861
-0.0091223
-0.111418
-0.0025053
-0.121297
0.00436972
-0.12403
0.0108025
-0.119338
0.0161614
-0.107689
0.0199684
-0.0900972
0.0219412
-0.0678157
0.0220025
-0.042084
0.0202735
-0.0139827
0.017065
0.0155584
0.0128628
0.0456147
0.00831364
0.0750066
0.00419253
0.102047
0.00135537
0.124373
0.000107066
0.138479
-0.000883502
0.140237
-0.00327798
0.128962
-0.00713856
0.108336
-0.0116504
0.0822176
-0.0160029
0.0532094
-0.0195118
0.0231559
-0.0216487
-0.00665111
-0.022055
-0.0352425
-0.0205613
-0.0616989
-0.0171949
-0.0849764
-0.0121885
-0.103861
-0.0059756
-0.117079
-0.123528
0.00168423
-0.124085
0.00276281
-0.115419
0.00313753
-0.0999478
0.00266315
-0.0789769
0.00134583
-0.0539341
-0.000652733
-0.0261501
-0.00301703
0.00321816
-0.00529356
0.0331221
-0.00693817
0.0624384
-0.00736582
0.0897034
-0.00603008
0.112944
-0.00270344
0.12959
0.00175161
0.1366
0.00545593
0.132111
0.00723594
0.117374
0.00715501
0.095389
0.00572868
0.0688664
0.00353994
0.0399021
0.00114756
0.0100627
-0.000970885
-0.0194773
-0.0024663
-0.047684
-0.00314117
-0.0734443
-0.00295322
-0.0954741
-0.00201275
-0.112358
-0.000570719
-0.122739
0.00101592
-0.125617
0.00235556
-0.120677
0.00311411
-0.108448
0.00307598
-0.090059
0.00217086
-0.0669106
0.000482193
-0.0403953
-0.00175149
-0.011749
-0.00414351
0.0179504
-0.00619261
0.0476639
-0.00732735
0.0761413
-0.00697079
0.10169
-0.00466423
0.122067
-0.000594893
0.13441
0.0037332
0.135908
0.00656613
0.126129
0.0073993
0.107503
0.00659953
0.0830174
0.00473341
0.0550755
0.00238169
0.0255077
6.80139e-05
-0.00433744
-0.00178531
-0.0333892
-0.00290091
-0.0605833
-0.0031567
-0.0847206
-0.0025856
-0.104432
-0.00136937
-0.118295
-0.12508
-0.00437812
-0.120203
-0.00827554
-0.111522
-0.012144
-0.0960794
-0.0158692
-0.0752517
-0.0192635
-0.0505397
-0.0220594
-0.0233543
-0.0239035
0.00506226
-0.0243746
0.0335932
-0.023037
0.0611008
-0.0195143
0.0861806
-0.0136082
0.107038
-0.00554744
0.121529
0.00357784
0.127475
0.0120062
0.123683
0.0184352
0.110945
0.0224823
0.0913419
0.0242804
0.0670683
0.0241779
0.0400046
0.0226053
0.0116354
0.0199916
-0.0168637
0.0167082
-0.0444005
0.0130417
-0.0697779
0.00919698
-0.0916293
0.00530432
-0.108466
0.00142371
-0.118859
-0.00244651
-0.121746
-0.00633276
-0.116791
-0.0102223
-0.104558
-0.0140368
-0.0862445
-0.0176269
-0.0633205
-0.0207671
-0.0372551
-0.0231481
-0.00936802
-0.0243789
0.0191813
-0.0240255
0.0473104
-0.0216696
0.0737854
-0.0170028
0.0970233
-0.00998547
0.115049
-0.00121041
0.125635
0.00780176
0.126896
0.0153696
0.118561
0.0206584
0.102214
0.0235887
0.080087
0.02442
0.0542442
0.023553
0.0263747
0.0214244
-0.00220885
0.0184428
-0.0304076
0.01494
-0.0570805
0.0111622
-0.0809428
0.00727739
-0.100548
0.00338188
-0.1144
-0.121202
-0.0104493
-0.110929
-0.0192862
-0.102685
-0.0272921
-0.0880735
-0.0340871
-0.0684567
-0.0393154
-0.0453114
-0.0426372
-0.0200325
-0.0437161
0.00614114
-0.0422275
0.0321046
-0.0379026
0.0567759
-0.0306114
0.0788894
-0.020491
0.0969173
-0.00813102
0.109169
0.00523484
0.114109
0.0179505
0.110967
0.0286441
0.100251
0.0365949
0.0833911
0.0415838
0.0620793
0.0436939
0.0378946
0.0431717
0.0121576
0.0403343
-0.0140262
0.0355169
-0.0395831
0.0290564
-0.0633175
0.0213025
-0.0838753
0.0126278
-0.0997909
0.00342322
-0.109654
-0.00592119
-0.112402
-0.0150235
-0.107689
-0.0234918
-0.09609
-0.0309385
-0.0787978
-0.0369977
-0.0572613
-0.0413253
-0.0329275
-0.0435856
-0.00710765
-0.0434452
0.0190409
-0.0405998
0.044465
-0.0348349
0.0680204
-0.0261304
0.0883188
-0.0148131
0.103732
-0.00176819
0.11259
0.0114955
0.113633
0.023371
0.106686
0.032798
0.0927871
0.0393266
0.0735584
0.0429039
0.050667
0.0437061
0.0255725
0.0420218
-0.000524607
0.0381818
-0.0265676
0.0325223
-0.051421
0.025385
-0.0738055
0.0171315
-0.0922942
0.00814654
-0.105415
-0.11188
-0.0163119
-0.0964486
-0.0298856
-0.089111
-0.0418069
-0.0761522
-0.0514391
-0.0588244
-0.0582754
-0.0384751
-0.0619303
-0.0163776
-0.0621203
0.00633121
-0.0586568
0.0286411
-0.0514693
0.0495883
-0.0406837
0.0681039
-0.0267351
0.0829687
-0.0104833
0.0929174
0.00674069
0.0968853
0.0233419
0.0943656
0.0379004
0.0856926
0.0494504
0.071841
0.0574721
0.0540577
0.061781
0.0335856
0.0624124
0.0115263
0.0595326
-0.0111464
0.053403
-0.0334535
0.0443821
-0.0542966
0.0329448
-0.0724381
0.0196957
-0.0865418
0.00535576
-0.095314
-0.0092815
-0.0977648
-0.0234069
-0.0935632
-0.0362407
-0.0832562
-0.0470899
-0.0679486
-0.0553851
-0.0489661
-0.0606849
-0.0276276
-0.062659
-0.0051336
-0.0610708
0.0174527
-0.0557827
0.0391769
-0.0468066
0.0590443
-0.0344018
0.0759141
-0.0191943
0.0885245
-0.00227395
0.0956693
0.0148543
0.0965043
0.0306257
0.0909141
0.0438262
0.0795866
0.0537161
0.0636685
0.0599527
0.0444304
0.0624711
0.0230541
0.0613776
0.000568835
0.0568844
-0.0220744
0.0492984
-0.0438349
0.0390333
-0.0635405
0.0266287
-0.0798896
0.0127519
-0.0915378
-0.0972967
-0.0216792
-0.0772015
-0.039569
-0.0712212
-0.0550283
-0.0606929
-0.0671885
-0.0466642
-0.0754128
-0.0302508
-0.0792867
-0.0125037
-0.0785932
0.00563763
-0.0732889
0.0233368
-0.0635048
0.0398042
-0.0496071
0.0542062
-0.03228
0.0656415
-0.0125818
0.0732192
0.008081
0.0762226
0.0281294
0.0743172
0.0460976
0.0677244
0.0608437
0.0570949
0.0716036
0.0432977
0.0779477
0.0272415
0.0796993
0.00977466
0.0768657
-0.00831278
0.0696212
-0.0262091
0.0583306
-0.0430059
0.0435741
-0.0576816
0.0261638
-0.0691314
0.00712626
-0.0762765
-0.0123608
-0.0782777
-0.0310757
-0.0748483
-0.0478721
-0.0664598
-0.0617769
-0.0540439
-0.0720403
-0.0387028
-0.0781422
-0.0215257
-0.0797719
-0.00350389
-0.0768026
0.0144833
-0.0692705
0.0316448
-0.0574097
0.0471835
-0.041729
0.0602334
-0.0230882
0.0698837
-0.00272279
0.075304
0.0178467
0.0759348
0.0370612
0.0716996
0.0535956
0.0630522
0.0664913
0.0507728
0.0751546
0.035767
0.0792888
0.0189199
0.0788125
0.00104516
0.0738083
-0.0170703
0.0645402
-0.0345668
0.0514761
-0.0504764
0.0353114
-0.0637248
0.0169705
-0.0731968
-0.0778941
-0.0262012
-0.0539391
-0.0477162
-0.0497062
-0.0661347
-0.0422744
-0.0803987
-0.0324002
-0.0897688
-0.0208807
-0.0938106
-0.0084619
-0.092365
0.00419201
-0.085514
0.0164859
-0.0735637
0.0278539
-0.0570816
0.0377241
-0.0369448
0.0455048
-0.0143558
0.0506302
0.00921163
0.0526551
0.0321577
0.0513711
0.0529654
0.0469167
0.0703647
0.0396957
0.0834062
0.0302562
0.0914577
0.01919
0.0941593
0.00707307
0.0913799
-0.00553345
0.0832191
-0.0180483
0.0700426
-0.0298293
0.0525133
-0.0401523
0.0316113
-0.0482294
0.0086187
-0.053284
-0.0149564
-0.0547027
-0.0375324
-0.0522723
-0.05765
-0.0463421
-0.0741038
-0.0375901
-0.0859992
-0.0268074
-0.0927557
-0.0147692
-0.0940822
-0.00217737
-0.0899459
0.010347
-0.0805346
0.0222336
-0.0662737
0.0329226
-0.0478736
0.0418332
-0.026368
0.0483781
-0.00310028
0.0520363
0.0203733
0.0524613
0.0424681
0.0496048
0.0617719
0.0437484
0.0771658
0.035379
0.0878573
0.0250755
0.0933523
0.013425
0.0934052
0.000992247
0.0879889
-0.011654
0.0773284
-0.0239062
0.061932
-0.0350801
0.0426191
-0.0444119
0.0205253
-0.0511031
-0.0544301
-0.0295035
-0.0277446
-0.0536597
-0.02555
-0.07423
-0.0217041
-0.0900255
-0.0166047
-0.100239
-0.0106672
-0.104423
-0.00427757
-0.102455
0.0022234
-0.0944968
0.00852795
-0.0809807
0.0143378
-0.0626177
0.0193611
-0.0404178
0.023305
-0.0156826
0.025895
0.0100557
0.0269167
0.0351578
0.026269
0.0580553
0.0240193
0.0773889
0.0203621
0.0920823
0.0155628
0.10136
0.00991254
0.10473
0.00370304
0.101968
-0.00277186
0.0931286
-0.00920867
0.0785777
-0.0152784
0.0590326
-0.0206072
0.0355883
-0.0247852
0.0097092
-0.0274048
-0.0168523
-0.0281411
-0.0422446
-0.02688
-0.0647788
-0.023808
-0.0830855
-0.0192833
-0.0961727
-0.0137202
-0.103421
-0.00752113
-0.104551
-0.00104759
-0.0995864
0.00538289
-0.0888221
0.0114692
-0.0728203
0.0169208
-0.0524332
0.0214462
-0.0288131
0.0247579
-0.00338139
0.0266046
0.0222609
0.0268189
0.0464882
0.0253774
0.0678204
0.0224162
0.0850295
0.0181699
0.0971845
0.0129205
0.103649
0.00696021
0.104062
0.000579731
0.098327
-0.00591916
0.0866462
-0.0122255
0.0695535
-0.0179874
0.0479509
-0.0228092
0.0231215
-0.0262738
-0.0279995
-0.0312498
-0.0567998
-0.0785039
-0.0951086
-0.105776
-0.110053
-0.10783
-0.099302
-0.0849642
-0.0656031
-0.0422982
-0.0164032
0.0105136
0.0367825
0.0608018
0.0811639
0.0967267
0.106639
0.110342
0.10757
0.0983617
0.0830833
0.0624761
0.0376909
0.0102861
-0.017855
-0.044735
-0.068543
-0.0878263
-0.101547
-0.109068
-0.110115
-0.104732
-0.0932631
-0.0763423
-0.0548961
-0.0301382
-0.0035336
0.0232853
0.0486628
0.071079
0.0892489
0.102169
0.10913
0.109709
0.10379
0.0915647
0.0735773
0.0507681
0.0244943
)
;

boundaryField
{
    top
    {
        type            calculated;
        value           nonuniform List<scalar> 
51
(
0
0
0
0
0
0
0
0
-1.73472e-18
0
0
0
0
0
0
0
0
0
0
0
0
0
0
0
0
0
-4.33681e-19
0
0
0
0
0
0
-1.73472e-18
0
0
0
0
0
0
0
0
-1.73472e-18
0
0
0
0
0
0
-4.33681e-19
0
)
;
    }
    bottom
    {
        type            calculated;
        value           uniform 0;
    }
    frontAndBack
    {
        type            empty;
        value           nonuniform 0();
    }
    left_cyc
    {
        type            cyclic;
        value           nonuniform List<scalar> 
15
(
-0.00273003
-0.00302703
-0.00286638
-0.00251785
-0.00203541
-0.001467
-0.000842422
-0.00018242
0.000496285
0.00117552
0.00183137
0.0024321
0.00293869
0.00330911
0.00350518
)
;
    }
    right_cyc
    {
        type            cyclic;
        value           nonuniform List<scalar> 
15
(
0.00273003
0.00302703
0.00286638
0.00251785
0.00203541
0.001467
0.000842422
0.00018242
-0.000496285
-0.00117552
-0.00183137
-0.0024321
-0.00293869
-0.00330911
-0.00350518
)
;
    }
}


// ************************************************************************* //
