/*--------------------------------*- C++ -*----------------------------------*\
| =========                 |                                                 |
| \\      /  F ield         | OpenFOAM: The Open Source CFD Toolbox           |
|  \\    /   O peration     | Version:  2.3.0                                 |
|   \\  /    A nd           | Web:      www.OpenFOAM.org                      |
|    \\/     M anipulation  |                                                 |
\*---------------------------------------------------------------------------*/
FoamFile
{
    version     2.0;
    format      ascii;
    class       surfaceScalarField;
    location    "12000";
    object      phi;
}
// * * * * * * * * * * * * * * * * * * * * * * * * * * * * * * * * * * * * * //

dimensions      [0 3 -1 0 0 0 0];

internalField   nonuniform List<scalar> 
5988
(
0.00997136
-0.00878265
0.0184676
-0.00849628
0.0264278
-0.00796019
0.0336076
-0.00717973
0.0397749
-0.00616737
0.0447269
-0.00495193
0.0483193
-0.00359248
0.0505121
-0.00219276
0.0514105
-0.000898441
0.0512605
0.000149999
0.0503676
0.000892926
0.048969
0.0013986
0.0471581
0.0018109
0.0448979
0.00226019
0.0420877
0.00281023
0.0386499
0.00343779
0.0345813
0.00406861
0.0299337
0.00464762
0.0248594
0.00507428
0.019697
0.00516242
0.0148079
0.00488909
0.0104761
0.00433182
0.00684539
0.00363069
0.00388024
0.00296514
0.00139109
0.00248916
-0.00090225
0.00229334
-0.00331177
0.00240952
-0.0061296
0.00281783
-0.00957194
0.00344234
-0.0137137
0.00414179
-0.0184485
0.00473476
-0.0235156
0.00506712
-0.0285666
0.00505097
-0.0332373
0.00467067
-0.0373323
0.00409509
-0.0407826
0.00345023
-0.0435743
0.00279176
-0.0457701
0.00219575
-0.047464
0.00169392
-0.0486971
0.00123313
-0.0493905
0.000693355
-0.0493306
-5.9918e-05
-0.0482385
-0.00109209
-0.0458853
-0.00235322
-0.0421714
-0.00371382
-0.0371393
-0.00503218
-0.0309342
-0.00620505
-0.0237619
-0.00717229
-0.0158584
-0.00790354
-0.00747341
-0.00838497
0.00113678
-0.00861019
0.00971281
-0.00857603
0.0179959
-0.0082831
0.0257311
-0.00773523
0.0326713
-0.00694013
0.0385862
-0.00591491
0.0432825
-0.00469629
0.0466372
-0.00335472
0.0486426
-0.0020054
0.0494364
-0.000793819
0.0492719
0.000164526
0.048421
0.000850903
0.0470641
0.00135687
0.0452455
0.00181864
0.042902
0.00234347
0.0399396
0.00296235
0.0363148
0.0036248
0.0320586
0.00425624
0.0272599
0.00479865
0.0221658
0.00509411
0.0171547
0.00501112
0.0125565
0.00459825
0.0085961
0.00396037
0.0053323
0.0032638
0.00264702
0.00268527
0.00029777
0.00234925
-0.00201774
0.00231551
-0.00460806
0.00259032
-0.00773576
0.0031277
-0.0115553
0.00381956
-0.0160543
0.00449894
-0.0210464
0.00499214
-0.0262235
0.00517711
-0.0312105
0.00498695
-0.0357124
0.00450191
-0.0396174
0.00390505
-0.0428852
0.00326781
-0.0455394
0.00265412
-0.047671
0.00213165
-0.0493723
0.00170134
-0.0506506
0.00127827
-0.0513731
0.000722517
-0.0512725
-0.000100653
-0.0500466
-0.0012259
-0.0474833
-0.0025633
-0.0435182
-0.00396505
-0.0382242
-0.00529405
-0.0317647
-0.00645944
-0.024353
-0.00741176
-0.0162253
-0.00812772
-0.00762783
-0.00859744
-0.00881654
0.0082534
-0.0160538
0.015376
-0.0156189
0.0222299
-0.014814
0.0287169
-0.0136667
0.0347743
-0.0122248
0.0403871
-0.0105647
0.0455926
-0.00879797
0.0504645
-0.00706465
0.0550622
-0.00549624
0.0593637
-0.00415142
0.0632285
-0.00297192
0.0664369
-0.00180982
0.0687509
-0.000503026
0.069931
0.00108007
0.0697227
0.00301847
0.0678613
0.00529921
0.0641674
0.00776255
0.0586288
0.0101862
0.0514431
0.01226
0.0431155
0.01349
0.0342959
0.0137087
0.0256334
0.0129943
0.0176131
0.011651
0.0104077
0.0101705
0.00386607
0.00903081
-0.00238281
0.00854221
-0.00879424
0.00882095
-0.0157711
0.00979467
-0.0235276
0.0111988
-0.0319701
0.0125844
-0.040674
0.0134386
-0.0490073
0.0134004
-0.0563146
0.0123582
-0.0620359
0.010392
-0.0659195
0.0079787
-0.0679447
0.00547547
-0.0682633
0.00311037
-0.0671345
0.00106687
-0.0648225
-0.000618004
-0.0615783
-0.00201115
-0.0576488
-0.00323609
-0.0532616
-0.00444719
-0.0485659
-0.00578772
-0.0435986
-0.0073205
-0.0383137
-0.00899875
-0.0326456
-0.0107003
-0.0265613
-0.0122893
-0.0200791
-0.0136545
-0.0132641
-0.0147186
-0.00621601
-0.015433
0.000944344
-0.0157705
0.00808759
-0.0157193
0.0150855
-0.015281
0.0218215
-0.0144712
0.0282037
-0.0133223
0.0341781
-0.0118894
0.0397404
-0.0102585
0.0449349
-0.00854931
0.0498288
-0.0068993
0.0544521
-0.00541705
0.0587379
-0.00412127
0.0625106
-0.00292183
0.0655341
-0.0016666
0.0675594
-0.000206692
0.0683332
0.00156971
0.0675877
0.00370786
0.0650804
0.00613201
0.0607025
0.00863414
0.0545257
0.0109754
0.0468837
0.0127361
0.0383872
0.0135076
0.0296963
0.0132892
0.0214053
0.0122513
0.0138588
0.0108103
0.00706137
0.00948273
0.000735737
0.00867489
-0.0055478
0.00859905
-0.0122353
0.00927782
-0.0196528
0.0105452
-0.0278728
0.0120396
-0.036632
0.0132582
-0.0453846
0.0137447
-0.0534722
0.0132647
-0.0602562
0.011771
-0.0653143
0.00956
-0.0685134
0.00710413
-0.0699123
0.00466676
-0.0697253
0.00246705
-0.0682197
0.000626108
-0.0656447
-0.000873717
-0.0622383
-0.00212808
-0.0582371
-0.00327875
-0.0538474
-0.00449034
-0.0491788
-0.00589451
-0.0442251
-0.00751693
-0.0389169
-0.00927327
-0.0331867
-0.0110242
-0.0270107
-0.0126354
-0.0204178
-0.0140047
-0.0134813
-0.0150642
-0.0063066
-0.0157722
-0.0161054
0.00785169
-0.0229718
0.0146651
-0.0224324
0.0212909
-0.0214398
0.0276618
-0.0200376
0.0337309
-0.018294
0.0394703
-0.0163041
0.0448599
-0.0141876
0.049867
-0.0120717
0.0544251
-0.0100544
0.0584337
-0.00816003
0.0617859
-0.00632415
0.0644041
-0.00442798
0.0662552
-0.00235416
0.0673506
-1.52653e-05
0.0677303
0.00263878
0.0673983
0.00563113
0.0661702
0.00899071
0.0636277
0.0127286
0.0592843
0.0166035
0.0527849
0.0199894
0.0442685
0.0222251
0.0345598
0.022703
0.0245786
0.0216322
0.0149026
0.0198466
0.00565575
0.0182776
-0.00336674
0.0175647
-0.0124967
0.017951
-0.0219889
0.0192868
-0.0318162
0.0210262
-0.0415119
0.02228
-0.0502145
0.0221412
-0.0570277
0.0202137
-0.0616577
0.0169882
-0.0643926
0.0131269
-0.065713
0.00929914
-0.0660657
0.00582815
-0.065683
0.00272764
-0.0645808
-3.52689e-05
-0.0627189
-0.00247999
-0.0600824
-0.00464762
-0.0567024
-0.00661603
-0.0526559
-0.00849378
-0.0480499
-0.0103937
-0.0429891
-0.0123813
-0.0375477
-0.0144402
-0.0317668
-0.0164812
-0.0256737
-0.0183824
-0.0193015
-0.0200267
-0.0127001
-0.0213199
-0.00593814
-0.022195
0.0009016
-0.0226103
0.00772944
-0.0225471
0.0144567
-0.0220083
0.0210038
-0.0210183
0.0273067
-0.0196252
0.0333204
-0.0179031
0.0390149
-0.015953
0.0443614
-0.0138959
0.0493115
-0.0118494
0.0537815
-0.009887
0.0576624
-0.00800221
0.0608525
-0.00611193
0.0632862
-0.00410035
0.064945
-0.00186548
0.0658538
0.00066098
0.0660502
0.0035114
0.0654765
0.00670573
0.0638309
0.0102798
0.0606402
0.0141661
0.0554464
0.01793
0.0480723
0.0208817
0.0390127
0.0223489
0.0292103
0.0220536
0.0194445
0.0205761
0.0100597
0.0188675
0.000988878
0.0177457
-0.00806253
0.0176505
-0.0174123
0.0186276
-0.0271979
0.0203308
-0.0371804
0.022022
-0.046668
0.0227459
-0.0547079
0.0217846
-0.0606211
0.0191779
-0.0644423
0.0155922
-0.0665884
0.0117061
-0.0675449
0.00806064
-0.0676803
0.00480216
-0.0671143
0.00190098
-0.0658211
-0.000667027
-0.0637651
-0.00292969
-0.0609463
-0.00494691
-0.0574098
-0.00681521
-0.0532437
-0.00865647
-0.0485571
-0.0105811
-0.043443
-0.012631
-0.0379577
-0.0147586
-0.0321281
-0.0168538
-0.0259748
-0.0187887
-0.0195303
-0.0204492
-0.012847
-0.0217475
-0.00599695
-0.0226222
-0.023036
0.00751557
-0.0295941
0.0140572
-0.028974
0.0204528
-0.0278354
0.0266455
-0.0262303
0.0325868
-0.0242353
0.0382312
-0.0219485
0.0435255
-0.0194819
0.0483972
-0.0169434
0.0527522
-0.0144093
0.0564897
-0.0118975
0.0595284
-0.00936293
0.0618227
-0.0067222
0.0633594
-0.00389088
0.0641485
-0.000804369
0.0642094
0.00257785
0.0635606
0.00627997
0.0622305
0.0103208
0.0602618
0.0146973
0.0575152
0.0193501
0.0533741
0.0241305
0.0471134
0.0284857
0.0385473
0.0312692
0.0284045
0.031775
0.0176518
0.0305993
0.00682669
0.0291027
-0.00394926
0.0283407
-0.0147171
0.0287188
-0.0254227
0.0299924
-0.0356546
0.0312581
-0.0445321
0.0311575
-0.0511949
0.0288039
-0.0556372
0.024656
-0.0585126
0.0198636
-0.0605143
0.0151286
-0.0618625
0.0106473
-0.0625257
0.00649136
-0.0624709
0.00267285
-0.0616813
-0.000824873
-0.0601395
-0.00402181
-0.0578361
-0.00695097
-0.054784
-0.00966819
-0.051028
-0.0122498
-0.0466484
-0.0147733
-0.0417461
-0.0172836
-0.0364189
-0.0197673
-0.0307455
-0.0221546
-0.0247851
-0.0243427
-0.0185886
-0.0262232
-0.0122079
-0.0277007
-0.00570139
-0.0287015
0.000865364
-0.029177
0.00742291
-0.0291047
0.0139024
-0.0284878
0.0202401
-0.027356
0.0263794
-0.0257645
0.0322694
-0.0237931
0.0378583
-0.0215418
0.0430824
-0.01912
0.0478574
-0.0166244
0.0520824
-0.014112
0.0556596
-0.0115795
0.0585177
-0.00896998
0.0606207
-0.0062034
0.061963
-0.00320771
0.0625573
6.66122e-05
0.0624212
0.00364753
0.0615728
0.0075541
0.0600528
0.0117998
0.0578613
0.0163576
0.0546522
0.0211391
0.0496712
0.0258627
0.0423829
0.0296372
0.0330459
0.0313906
0.02262
0.0310021
0.0118766
0.0296109
0.00110944
0.0285129
-0.00967745
0.0284373
-0.0205074
0.0294576
-0.0311714
0.0309948
-0.0409992
0.0318498
-0.0489899
0.0307366
-0.0546388
0.0274335
-0.0583302
0.0228692
-0.0608319
0.018094
-0.0626311
0.0135053
-0.0637846
0.00921409
-0.0642464
0.00526403
-0.0639937
0.00164824
-0.0630074
-0.00165334
-0.0612692
-0.00466786
-0.0587743
-0.00744186
-0.0555433
-0.0100461
-0.051632
-0.0125678
-0.0471293
-0.0150839
-0.0421364
-0.0176238
-0.0367425
-0.0201525
-0.0310141
-0.0225822
-0.0250012
-0.0248016
-0.0187492
-0.0267012
-0.0123086
-0.0281881
-0.00573867
-0.0291922
-0.029668
0.00715027
-0.0358946
0.0133815
-0.0352052
0.0194851
-0.0339389
0.025406
-0.0321513
0.0310908
-0.0299201
0.0364826
-0.0273403
0.0415147
-0.024514
0.0461057
-0.0215344
0.0501628
-0.0184664
0.0535958
-0.0153306
0.0563353
-0.0121024
0.0583419
-0.00872888
0.0596037
-0.00515266
0.0601269
-0.00132759
0.0599289
0.00277593
0.059036
0.00717281
0.0574889
0.011868
0.0553311
0.0168551
0.0525763
0.0221049
0.0491634
0.0275434
0.0447037
0.0329454
0.0382586
0.0377143
0.0293942
0.0406393
0.0188042
0.0411893
0.00741524
0.0404917
-0.00419619
0.0399521
-0.0156327
0.0401553
-0.0263954
0.0407552
-0.03565
0.0405127
-0.0425591
0.0380667
-0.0472993
0.0335441
-0.0508077
0.0281644
-0.0536059
0.0226617
-0.0557913
0.017314
-0.0573587
0.0122147
-0.0582678
0.00740044
-0.0584769
0.00288195
-0.0579595
-0.00134229
-0.0566995
-0.00528185
-0.0546913
-0.00895911
-0.0519473
-0.0124122
-0.048506
-0.0156911
-0.0444356
-0.0188436
-0.0398262
-0.021893
-0.0347726
-0.024821
-0.0293603
-0.027567
-0.0236608
-0.0300422
-0.0177354
-0.0321487
-0.0116409
-0.0337952
-0.00543446
-0.0349079
0.000824745
-0.0354362
0.00707593
-0.0353558
0.0132586
-0.0346705
0.0193141
-0.0334115
0.0251857
-0.0316361
0.030816
-0.0294234
0.0361416
-0.0268674
0.0410873
-0.0240657
0.0455644
-0.0211014
0.0494774
-0.018025
0.0527407
-0.0148428
0.0552935
-0.0115228
0.057105
-0.00801488
0.0581684
-0.00427112
0.0584926
-0.000257564
0.0580959
0.0040442
0.0570087
0.00864133
0.0552753
0.0135332
0.0529295
0.0187034
0.0499623
0.0241062
0.0462101
0.0296149
0.040977
0.0348702
0.0334143
0.0389533
0.0236632
0.0407532
0.0126575
0.0406166
0.00113574
0.0400347
-0.0104573
0.0400304
-0.0217041
0.0407044
-0.031938
0.0412287
-0.040189
0.0401008
-0.0460242
0.0365717
-0.0501295
0.0315388
-0.0533511
0.0260908
-0.0559462
0.0206891
-0.0579447
0.0155038
-0.0593226
0.0105919
-0.0600339
0.00597534
-0.0600422
0.00165654
-0.0593237
-0.00237178
-0.0578637
-0.0061279
-0.0556598
-0.00964579
-0.0527305
-0.0129755
-0.0491232
-0.0161751
-0.0449146
-0.0192925
-0.0401972
-0.0223412
-0.0350618
-0.0252879
-0.0295858
-0.0280583
-0.0238326
-0.0305548
-0.0178576
-0.0326762
-0.0117144
-0.0343313
-0.00545884
-0.0354477
-0.0359766
0.00673993
-0.0418332
0.0126133
-0.0410785
0.0183645
-0.0396902
0.0239375
-0.0377242
0.0292742
-0.0352569
0.0343124
-0.0323784
0.0389809
-0.0291826
0.0432001
-0.0257536
0.0468859
-0.0221521
0.0499608
-0.0184055
0.052366
-0.0145076
0.054067
-0.01043
0.0550519
-0.00613748
0.0553242
-0.00159989
0.054898
0.00320207
0.0537959
0.00827493
0.0520507
0.0136131
0.0497076
0.0191982
0.0468193
0.0249932
0.0434246
0.0309381
0.0394428
0.0369273
0.034451
0.042706
0.0275096
0.0475808
0.0182342
0.0504647
0.00735811
0.0513677
-0.00409115
0.0514014
-0.0151562
0.0512203
-0.0248403
0.0504392
-0.0322756
0.0479479
-0.0375696
0.0433607
-0.0416639
0.0376384
-0.0451044
0.0316049
-0.0480227
0.0255801
-0.0503935
0.0196848
-0.0521641
0.0139853
-0.0532876
0.00852399
-0.05373
0.00332437
-0.0534691
-0.00160323
-0.0524916
-0.00625929
-0.0507947
-0.010656
-0.0483907
-0.0148163
-0.0453133
-0.0187685
-0.0416206
-0.0225363
-0.0373899
-0.0261237
-0.0327066
-0.0295043
-0.0276534
-0.0326202
-0.0223049
-0.0353907
-0.0167274
-0.0377261
-0.010982
-0.0395406
-0.00512736
-0.0407626
0.000778165
-0.0413418
0.00667599
-0.0412537
0.0125076
-0.0405021
0.0182146
-0.0391185
0.023738
-0.0371595
0.0290156
-0.034701
0.0339792
-0.031831
0.0385519
-0.0286384
0.0426493
-0.0251989
0.046187
-0.0215627
0.0490918
-0.0177476
0.051312
-0.013743
0.0528199
-0.00952281
0.0536079
-0.00505911
0.053682
-0.000331656
0.0530576
0.00466864
0.0517596
0.00993931
0.0498258
0.015467
0.0473055
0.0212238
0.0442503
0.0271614
0.0406614
0.0332039
0.0363297
0.0392019
0.0305501
0.0447329
0.0224797
0.0488235
0.0123308
0.0507655
0.00107212
0.0512934
-0.0103193
0.0514218
-0.0208741
0.0512591
-0.0295667
0.0499214
-0.0359069
0.046441
-0.0405569
0.0412217
-0.0443611
0.035343
-0.047621
0.0293507
-0.0503696
0.0234376
-0.0525587
0.0176929
-0.0541368
0.01217
-0.0550618
0.00690038
-0.0553039
0.00189868
-0.054843
-0.00283267
-0.0536674
-0.00730353
-0.0517769
-0.0115363
-0.049189
-0.0155634
-0.0459446
-0.0194194
-0.0421087
-0.0231285
-0.0377615
-0.0266884
-0.0329869
-0.0300625
-0.0278626
-0.0331826
-0.0224569
-0.0359605
-0.0168308
-0.0383023
-0.0110414
-0.0401206
-0.00514507
-0.0413441
-0.041923
0.00627398
-0.0473609
0.0117365
-0.0465411
0.0170764
-0.0450301
0.0222356
-0.0428834
0.0271542
-0.0401754
0.031768
-0.0369922
0.0360078
-0.0334224
0.0398002
-0.0295459
0.0430718
-0.0254237
0.0457574
-0.021091
0.0478073
-0.0165575
0.0491917
-0.0118143
0.0498985
-0.00684429
0.0499299
-0.00163131
0.0492983
0.00383368
0.0480245
0.0095487
0.0461385
0.0154992
0.0436798
0.0216568
0.0406965
0.0279765
0.0372387
0.0343959
0.033332
0.040834
0.0288639
0.0471741
0.0233277
0.0531169
0.0159073
0.0578851
0.00658486
0.0606902
-0.00359198
0.0615782
-0.013216
0.0608444
-0.0210971
0.0583204
-0.026978
0.0538288
-0.0315871
0.0479698
-0.0355509
0.0416021
-0.0390461
0.0351001
-0.0420627
0.0285967
-0.0445525
0.0221747
-0.0464672
0.0158999
-0.0477656
0.00982241
-0.0484172
0.00397597
-0.0484012
-0.00161919
-0.0477058
-0.00695465
-0.0463294
-0.0120325
-0.0442839
-0.0168617
-0.041599
-0.0214534
-0.0383239
-0.0258115
-0.0345237
-0.0299239
-0.0302728
-0.0337551
-0.0256472
-0.0372458
-0.0207191
-0.0403189
-0.0155557
-0.0428895
-0.0102203
-0.044876
-0.00477365
-0.0462092
0.000724599
-0.04684
0.00621506
-0.0467441
0.0116383
-0.0459253
0.0169344
-0.0444147
0.0220423
-0.0422673
0.0268977
-0.0395564
0.031432
-0.0363654
0.0355718
-0.0327781
0.0392409
-0.028868
0.0423665
-0.0246883
0.0448871
-0.0202682
0.0467585
-0.0156145
0.0479562
-0.0107204
0.048472
-0.00557492
0.0483106
-0.000170303
0.0474862
0.00549304
0.046022
0.0114036
0.0439513
0.0175376
0.0413176
0.0238574
0.0381706
0.0303084
0.0345541
0.0368204
0.0304509
0.043305
0.0255907
0.0495932
0.0192256
0.0551886
0.0108102
0.0591809
0.000906873
0.0611967
-0.00917693
0.0615056
-0.0180644
0.0601466
-0.0249357
0.0567927
-0.0301081
0.0516133
-0.0343995
0.0455132
-0.0381857
0.0391292
-0.0415219
0.0326869
-0.0443707
0.0262864
-0.0466815
0.0200037
-0.0484083
0.0138968
-0.0495137
0.00800586
-0.0499706
0.00235556
-0.0497603
-0.00304298
-0.0488729
-0.00819098
-0.0473095
-0.0130997
-0.0450865
-0.0177863
-0.0422392
-0.0222667
-0.038822
-0.0265457
-0.0349031
-0.0306073
-0.0305564
-0.0344091
-0.0258548
-0.0378842
-0.020866
-0.0409493
-0.0156528
-0.0435155
-0.0102746
-0.0454989
-0.00478903
-0.0468296
-0.0474583
0.00575252
-0.0524286
0.0107539
-0.0515425
0.0156305
-0.0499067
0.0203231
-0.047576
0.0247713
-0.0446236
0.0289126
-0.0411335
0.0326821
-0.037192
0.0360146
-0.0328784
0.0388475
-0.0282566
0.0411268
-0.0233703
0.0428118
-0.0182425
0.0438774
-0.01288
0.0443137
-0.00728056
0.0441228
-0.0014404
0.0433165
0.00463993
0.041915
0.0109503
0.039946
0.0174682
0.0374457
0.0241571
0.034457
0.0309652
0.0310269
0.037826
0.0271987
0.0446622
0.0229816
0.0513912
0.0182247
0.0578739
0.0124279
0.0636819
0.00522835
0.0678898
-0.00276644
0.069573
-0.0102437
0.0683216
-0.0163544
0.0644311
-0.0212785
0.0587529
-0.0255655
0.0522568
-0.029437
0.0454736
-0.0329043
0.0385675
-0.0359277
0.0316201
-0.0384604
0.0247074
-0.040459
0.0178985
-0.0418866
0.01125
-0.0427147
0.00480412
-0.0429234
-0.00141058
-0.0425008
-0.0073772
-0.0414451
-0.0130882
-0.0397662
-0.0185406
-0.0374891
-0.0237305
-0.0346541
-0.0286464
-0.0313157
-0.0332623
-0.0275372
-0.0375336
-0.023386
-0.041397
-0.0189297
-0.0447752
-0.0142336
-0.0475855
-0.00936142
-0.0497482
-0.00437504
-0.0511956
0.000664276
-0.0518793
0.0056956
-0.0517754
0.0106579
-0.0508876
0.0154899
-0.0492467
0.0201292
-0.0469066
0.0245118
-0.043939
0.0285716
-0.0404251
0.0322409
-0.0364474
0.0354528
-0.0320799
0.0381458
-0.0273813
0.0402687
-0.0223911
0.0417853
-0.017131
0.0426747
-0.0116099
0.0429304
-0.00583063
0.0425572
0.000202968
0.0415688
0.00648142
0.0399876
0.0129848
0.0378442
0.0196809
0.0351778
0.0265239
0.0320327
0.0334534
0.0284554
0.0403977
0.0244801
0.0472804
0.0200615
0.0540118
0.0148829
0.0603672
0.00839159
0.0656723
0.000656822
0.0689315
-0.00724421
0.0694066
-0.0140852
0.0669876
-0.0195469
0.0622544
-0.0241279
0.0561943
-0.0282373
0.0496227
-0.0319635
0.0428554
-0.035281
0.0360044
-0.0381444
0.0291498
-0.0405074
0.0223668
-0.0423287
0.015718
-0.0435743
0.00925149
-0.0442185
0.00299972
-0.0442433
-0.00301818
-0.0436393
-0.00879502
-0.0424071
-0.0143319
-0.0405608
-0.0196327
-0.0381294
-0.024698
-0.0351577
-0.0295174
-0.0317025
-0.0340626
-0.0278274
-0.0382842
-0.023598
-0.0421135
-0.0190786
-0.0454687
-0.0143311
-0.048263
-0.00941548
-0.0504145
-0.00439066
-0.0518545
-0.0525338
0.00517946
-0.0569908
0.00967459
-0.0560376
0.0140436
-0.0542757
0.0182274
-0.0517599
0.0221671
-0.0485633
0.0258033
-0.0447697
0.0290773
-0.040466
0.0319322
-0.0357332
0.0343159
-0.0306403
0.0361846
-0.0252391
0.0375063
-0.0195642
0.0382617
-0.0136354
0.0384441
-0.00746297
0.0380576
-0.00105391
0.0371152
0.00558235
0.0356374
0.0124281
0.0336519
0.0194537
0.0311932
0.0266158
0.0283023
0.0338561
0.0250256
0.0411027
0.0214139
0.0482739
0.0175198
0.0552853
0.0133643
0.0620294
0.00882637
0.0682198
0.00369011
0.073026
-0.00184529
0.0751084
-0.00711938
0.0735957
-0.0117833
0.069095
-0.0159976
0.0629672
-0.0199282
0.0561875
-0.0235735
0.0491188
-0.0268833
0.0418773
-0.0298061
0.0345429
-0.0322951
0.0271964
-0.0343087
0.0199121
-0.0358116
0.0127529
-0.0367757
0.00576821
-0.0371801
-0.00100611
-0.037012
-0.00754538
-0.036267
-0.0138331
-0.0349519
-0.0198557
-0.0330856
-0.0255968
-0.0307003
-0.0310317
-0.0278401
-0.0361225
-0.0245582
-0.0408155
-0.0209132
-0.0450419
-0.0169664
-0.048722
-0.0127799
-0.051772
-0.00841569
-0.0541124
-0.00393582
-0.0556755
0.00059783
-0.056413
0.00512335
-0.056301
0.00957883
-0.0553431
0.0139023
-0.0535702
0.0180319
-0.0510362
0.0219054
-0.0478125
0.0254608
-0.0439806
0.0286374
-0.039624
0.0313775
-0.03482
0.0336301
-0.0296339
0.035354
-0.024115
0.0365203
-0.0182974
0.0371136
-0.0122031
0.0371302
-0.0058472
0.0365767
0.000756452
0.0354683
0.0075898
0.0338278
0.0146253
0.0316852
0.0218235
0.0290775
0.0291316
0.0260479
0.0364831
0.0226445
0.0438012
0.0189197
0.0510052
0.0149186
0.0580129
0.0106109
0.0646748
0.00578854
0.0704946
0.000386926
0.0743331
-0.0050977
0.0748913
-0.0100691
0.071959
-0.0144815
0.0666669
-0.0185647
0.0602775
-0.0223885
0.0534464
-0.0259166
0.0463835
-0.0290957
0.0391835
-0.031876
0.0319302
-0.0342127
0.0247034
-0.0360663
0.0175716
-0.037404
0.0105893
-0.0382003
0.00379594
-0.0384363
-0.00278218
-0.0381013
-0.00912997
-0.037194
-0.0152392
-0.0357242
-0.0211025
-0.0337146
-0.0267076
-0.0312007
-0.0320313
-0.0282288
-0.0370345
-0.0248526
-0.0416604
-0.0211296
-0.0458365
-0.0171191
-0.0494793
-0.0128801
-0.052502
-0.00847165
-0.054823
-0.00395284
-0.0563733
-0.0571039
0.00456026
-0.0610068
0.00850966
-0.059987
0.0123341
-0.0581001
0.0159761
-0.0554019
0.0193794
-0.0519666
0.0224894
-0.0478798
0.025254
-0.0432305
0.0276247
-0.038104
0.0295592
-0.0325748
0.0310233
-0.0267032
0.0319931
-0.020534
0.0324557
-0.014098
0.0324091
-0.00741632
0.0318606
-0.000505424
0.0308259
0.00661704
0.0293278
0.0139262
0.0273957
0.0213858
0.0250652
0.0289462
0.0223791
0.0365423
0.0193873
0.0440945
0.0161503
0.0515109
0.0127458
0.0586898
0.00927243
0.0655027
0.00581681
0.0716754
0.00237663
0.0764662
-0.00107515
0.0785602
-0.00452183
0.0770424
-0.00797346
0.0725466
-0.0114435
0.0664373
-0.0148577
0.0596017
-0.0181136
0.0523747
-0.0211285
0.0448921
-0.0238393
0.0372537
-0.0261944
0.0295514
-0.0281502
0.0218679
-0.0296701
0.0142729
-0.0307242
0.00682225
-0.0312891
-0.000441205
-0.0313489
-0.00748555
-0.0308959
-0.0142861
-0.0299321
-0.0208196
-0.02847
-0.0270589
-0.0265336
-0.0329681
-0.0241577
-0.0384985
-0.0213856
-0.0435876
-0.0182675
-0.0481601
-0.0148578
-0.0521317
-0.0112139
-0.055416
-0.00739485
-0.0579314
-0.00346114
-0.0596092
0.000526037
-0.0604002
0.00450513
-0.0602801
0.00841461
-0.0592526
0.0121935
-0.057349
0.0157815
-0.0546242
0.01912
-0.051151
0.0221523
-0.0470129
0.0248249
-0.0422965
0.0270891
-0.0370843
0.0289037
-0.0314484
0.0302366
-0.0254479
0.0310668
-0.0191276
0.0313845
-0.0125208
0.0311906
-0.00565326
0.0304949
0.00145208
0.0293156
0.00876913
0.0276776
0.0162633
0.0256127
0.0238884
0.0231594
0.0315849
0.0203631
0.0392794
0.017278
0.0468863
0.0139715
0.0543117
0.0105326
0.0614518
0.0070642
0.0681432
0.00361789
0.073941
0.000169416
0.0777816
-0.00327901
0.0783397
-0.00671871
0.0753987
-0.0101828
0.070131
-0.0136479
0.0637426
-0.0170168
0.0568153
-0.0201953
0.049562
-0.0231113
0.0420994
-0.0257075
0.0345264
-0.0279359
0.0269318
-0.0297559
0.0193916
-0.0311333
0.0119667
-0.0320405
0.00470318
-0.0324566
-0.00236608
-0.032368
-0.00921857
-0.0317697
-0.0158375
-0.0306665
-0.0222057
-0.0290743
-0.0282999
-0.0270198
-0.0340858
-0.0245397
-0.0395146
-0.0216781
-0.044522
-0.0184847
-0.0490299
-0.0150123
-0.0529516
-0.0113161
-0.0561982
-0.00745265
-0.0586864
-0.00347973
-0.0603462
-0.0611279
0.00390057
-0.0644411
0.00727029
-0.0633567
0.0105194
-0.0613492
0.0135935
-0.0584759
0.0164404
-0.0548135
0.0190111
-0.0504505
0.0212605
-0.0454799
0.0231485
-0.039992
0.0246418
-0.034068
0.0257148
-0.0277763
0.0263517
-0.0211709
0.0265462
-0.0142924
0.0263013
-0.00717149
0.025629
0.000166893
0.0245487
0.0076974
0.0230865
0.0153883
0.0212751
0.0231973
0.0191535
0.0310678
0.0167684
0.0389275
0.0141756
0.0466872
0.0114454
0.0542411
0.00867107
0.0614641
0.00598267
0.0681911
0.00353538
0.0741227
0.00140963
0.078592
-0.000532085
0.0805019
-0.00259835
0.0791087
-0.00497775
0.074926
-0.00762444
0.069084
-0.0103834
0.0623606
-0.0131143
0.0551056
-0.0157162
0.047494
-0.0181151
0.0396526
-0.0202526
0.031689
-0.0220808
0.0236961
-0.0235594
0.0157515
-0.024655
0.00791786
-0.0253407
0.000244473
-0.0255964
-0.00722983
-0.0254099
-0.0144726
-0.0247776
-0.0214519
-0.0237056
-0.0281309
-0.02221
-0.0344637
-0.0203166
-0.0403919
-0.0180599
-0.0458443
-0.0154815
-0.0507384
-0.0126288
-0.0549845
-0.00955327
-0.0584915
-0.00630991
-0.0611747
-0.00295599
-0.0629631
0.00044965
-0.0638058
0.00384746
-0.0636779
0.00717799
-0.0625831
0.0103827
-0.0605538
0.0134049
-0.0576464
0.0161904
-0.0539365
0.0186887
-0.0495111
0.0208537
-0.0444615
0.0226455
-0.0388761
0.0240318
-0.0328348
0.0249893
-0.0264054
0.0255044
-0.0196427
0.0255738
-0.0125902
0.0252034
-0.0052828
0.0244075
0.00224798
0.0232081
0.00996852
0.0216339
0.0178375
0.01972
0.0258023
0.0175087
0.0337963
0.0150502
0.0417378
0.0124064
0.0495301
0.00965709
0.057061
0.00691287
0.064196
0.0043235
0.0707326
0.00203116
0.0762333
2.64162e-05
0.0797863
-0.00193626
0.0803024
-0.00414377
0.0776062
-0.00666826
0.0726555
-0.00939391
0.0664682
-0.0121673
0.0595886
-0.0148688
0.0522636
-0.0174125
0.0446431
-0.0197326
0.0368465
-0.0217758
0.0289751
-0.0234978
0.0211136
-0.0248613
0.0133302
-0.0258353
0.00567721
-0.0263954
-0.00180601
-0.0265241
-0.00908992
-0.0262117
-0.0161499
-0.0254576
-0.0229598
-0.0242706
-0.0294868
-0.0226693
-0.035687
-0.0206814
-0.0415025
-0.0183422
-0.0468612
-0.0156932
-0.0516789
-0.0127807
-0.0558641
-0.00965476
-0.0593242
-0.00636807
-0.0619731
-0.0029756
-0.0637387
-0.0645698
0.00320552
-0.0672625
0.00596638
-0.0661176
0.00861456
-0.0639974
0.0111002
-0.0609615
0.0133764
-0.0570897
0.0154005
-0.0524746
0.0171347
-0.0472141
0.018547
-0.0414043
0.0196123
-0.0351333
0.0203134
-0.0284774
0.0206417
-0.0214991
0.0205972
-0.014248
0.0201888
-0.00676302
0.0194328
0.000922846
0.0183531
0.00877709
0.0169799
0.0167615
0.0153495
0.0248276
0.0135049
0.0329124
0.0114968
0.0409356
0.00938594
0.048798
0.0072481
0.056379
0.00518148
0.0635307
0.00331633
0.0700563
0.00180159
0.0756374
0.000704006
0.0796895
-0.000160847
0.0813667
-0.00118232
0.0801301
-0.00260756
0.0763512
-0.00440926
0.0708857
-0.00643999
0.0643913
-0.00856035
0.057226
-0.010665
0.0495987
-0.0126742
0.0416617
-0.0145243
0.0335391
-0.0161629
0.0253347
-0.0175458
0.0171343
-0.0186353
0.00900742
-0.0194005
0.00100964
-0.0198167
-0.0068136
-0.0198668
-0.0144225
-0.0195415
-0.0217772
-0.0188403
-0.0288321
-0.017772
-0.035532
-0.0163542
-0.0418097
-0.0146128
-0.0475857
-0.0125813
-0.0527699
-0.0102997
-0.0572661
-0.00781291
-0.0609783
-0.0051704
-0.0638173
-0.00242473
-0.0657088
0.000369332
-0.0665999
0.00315606
-0.0664646
0.00587987
-0.0653069
0.00848647
-0.0631604
0.010924
-0.060084
0.0131441
-0.0561566
0.0151029
-0.05147
0.0167623
-0.0461208
0.0180904
-0.0402043
0.0190636
-0.0338079
0.0196663
-0.0270081
0.0198925
-0.0198689
0.0197448
-0.0124426
0.0192348
-0.00477275
0.0183815
0.00310123
0.0172115
0.0111386
0.0157574
0.0192916
0.0140585
0.0275011
0.0121611
0.0356937
0.0101202
0.0437787
0.00800305
0.0516473
0.0058951
0.0591689
0.00391027
0.0661808
0.00219557
0.0724473
0.000884054
0.0775448
-6.0084e-05
0.0807304
-0.000951715
0.081194
-0.00215391
0.0788084
-0.00377385
0.0742754
-0.00570649
0.0684009
-0.00780294
0.0616851
-0.00994185
0.0544025
-0.0120319
0.0467331
-0.0140019
0.0388165
-0.0157941
0.0307672
-0.0173599
0.0226794
-0.0186582
0.0146285
-0.0196544
0.00667335
-0.0203198
-0.0011406
-0.0206325
-0.00877715
-0.0205782
-0.0162042
-0.0201502
-0.0233878
-0.0193508
-0.0302862
-0.018191
-0.0368469
-0.0166901
-0.0430034
-0.0148752
-0.0486761
-0.0127799
-0.0537742
-0.0104435
-0.0582005
-0.0079098
-0.0618579
-0.00522656
-0.0646563
-0.00244438
-0.0665208
-0.0673983
0.00247958
-0.0694438
0.00460642
-0.0682444
0.00663217
-0.0660231
0.00851287
-0.0628422
0.0102082
-0.0587851
0.0116825
-0.0539489
0.0129054
-0.048437
0.0138526
-0.0423516
0.014507
-0.0357876
0.0148586
-0.028829
0.0149057
-0.0215462
0.0146542
-0.0139965
0.0141181
-0.00622691
0.0133185
0.00172246
0.0122832
0.00981235
0.0110462
0.0179986
0.00964719
0.0262267
0.00813209
0.0344275
0.0065541
0.0425136
0.0049757
0.0503764
0.00347192
0.0578828
0.00213486
0.0648678
0.00107613
0.071115
0.000406931
0.0763066
0.000150141
0.0799463
0.000110272
0.0814066
-7.56288e-05
0.080316
-0.000654879
0.0769305
-0.0016407
0.0718715
-0.00292749
0.0656781
-0.00439852
0.058697
-0.0059565
0.0511567
-0.00752281
0.043228
-0.00903249
0.0350488
-0.0104305
0.0267327
-0.0116696
0.0183733
-0.0127086
0.0100465
-0.0135127
0.00181374
-0.014053
-0.0062733
-0.0143075
-0.014168
-0.0142617
-0.021823
-0.0139089
-0.0291848
-0.0132511
-0.0361898
-0.0122982
-0.0427626
-0.0110684
-0.0488155
-0.00958727
-0.054251
-0.0078868
-0.0589666
-0.00600487
-0.0628602
-0.00398414
-0.065838
-0.001871
-0.0678219
0.000285636
-0.0687565
0.00243568
-0.0686146
0.00452921
-0.0674005
0.00651786
-0.065149
0.00835608
-0.0619222
0.0100024
-0.0578029
0.0114204
-0.0528879
0.0125796
-0.04728
0.0134564
-0.0410811
0.0140347
-0.0343862
0.0143066
-0.02728
0.0142725
-0.0198348
0.0139411
-0.0121112
0.013329
-0.00416063
0.01246
0.0039702
0.0113647
0.0122339
0.0100796
0.0205766
0.00864739
0.0289334
0.00711726
0.0372238
0.00554657
0.0453494
0.00400347
0.0531904
0.00257103
0.0606014
0.00135208
0.0673998
0.00046581
0.0733336
3.09498e-07
0.0780103
-0.000113345
0.0808441
-0.000177836
0.0812585
-0.000534982
0.0791655
-0.00131522
0.0750557
-0.00245897
0.0695446
-0.00385
0.0630761
-0.00538149
0.055934
-0.00696628
0.0483179
-0.00853303
0.0403832
-0.010022
0.0322562
-0.011382
0.0240394
-0.0125688
0.0158153
-0.0135443
0.00764885
-0.0142762
-0.00040878
-0.0147382
-0.00831514
-0.0149111
-0.0160313
-0.0147831
-0.0235157
-0.0143502
-0.0307191
-0.0136165
-0.0375806
-0.0125937
-0.0440262
-0.0113011
-0.0499687
-0.00976468
-0.0553107
-0.00801618
-0.059949
-0.00609267
-0.0637814
-0.00403552
-0.0667135
-0.0018895
-0.0686669
-0.069586
0.00172662
-0.0709613
0.00319764
-0.0697154
0.00458276
-0.0674082
0.00584535
-0.0641048
0.00695265
-0.0598924
0.00787658
-0.0548729
0.00859449
-0.0491549
0.00908972
-0.0428468
0.00935217
-0.0360501
0.00937867
-0.0288555
0.00917329
-0.0213408
0.00874734
-0.0135706
0.0081192
-0.00559877
0.00731393
0.00252774
0.00636273
0.0107636
0.00530225
0.019059
0.00417435
0.0273546
0.00302627
0.0355756
0.00191114
0.0436287
0.000889159
0.0513984
2.90284e-05
0.0587429
-0.000590984
0.0654878
-0.000886637
0.0714107
-0.000790968
0.0762109
-0.00032295
0.0794783
0.000328917
0.0807547
0.000856511
0.0797884
0.0010341
0.0767529
0.000813101
0.0720925
0.000251934
0.0662393
-0.000563995
0.0595129
-0.00155356
0.0521463
-0.00264556
0.04432
-0.00377788
0.0361811
-0.0048958
0.0278506
-0.00595073
0.0194283
-0.00689956
0.0109953
-0.00770447
0.00261865
-0.00833317
-0.0056446
-0.00875961
-0.0137416
-0.00896458
-0.0216181
-0.0089362
-0.0292132
-0.00867011
-0.0364559
-0.00816962
-0.0432631
-0.0074454
-0.0495397
-0.00651516
-0.0551813
-0.00540304
-0.0600787
-0.00413891
-0.0641243