/*--------------------------------*- C++ -*----------------------------------*\
| =========                 |                                                 |
| \\      /  F ield         | OpenFOAM: The Open Source CFD Toolbox           |
|  \\    /   O peration     | Version:  2.3.0                                 |
|   \\  /    A nd           | Web:      www.OpenFOAM.org                      |
|    \\/     M anipulation  |                                                 |
\*---------------------------------------------------------------------------*/
FoamFile
{
    version     2.0;
    format      ascii;
    class       surfaceScalarField;
    location    "12000";
    object      phi;
}
// * * * * * * * * * * * * * * * * * * * * * * * * * * * * * * * * * * * * * //

dimensions      [0 3 -1 0 0 0 0];

internalField   nonuniform List<scalar> 
5988
(
3.59385e-08
-3.17648e-08
6.71614e-08
-3.12229e-08
9.7385e-08
-3.02237e-08
1.26185e-07
-2.87995e-08
1.53177e-07
-2.69926e-08
1.7803e-07
-2.48528e-08
2.00464e-07
-2.24338e-08
2.2025e-07
-1.9786e-08
2.37191e-07
-1.69416e-08
2.51086e-07
-1.38946e-08
2.61669e-07
-1.05833e-08
2.68558e-07
-6.88836e-09
2.71211e-07
-2.65331e-09
2.68951e-07
2.25952e-09
2.61084e-07
7.86714e-09
2.47155e-07
1.39297e-08
2.27231e-07
1.99238e-08
2.02034e-07
2.51969e-08
1.73042e-07
2.89923e-08
1.42264e-07
3.07778e-08
1.11661e-07
3.06027e-08
8.28395e-08
2.88217e-08
5.66315e-08
2.6208e-08
3.29723e-08
2.36592e-08
1.11059e-08
2.18664e-08
-1.00998e-08
2.12057e-08
-3.18925e-08
2.17926e-08
-5.54142e-08
2.35217e-08
-8.14449e-08
2.60307e-08
-1.10087e-07
2.86417e-08
-1.40544e-07
3.04574e-08
-1.71231e-07
3.06871e-08
-2.00185e-07
2.89542e-08
-2.25377e-07
2.51922e-08
-2.45288e-07
1.99101e-08
-2.59149e-07
1.38616e-08
-2.66862e-07
7.71319e-09
-2.68873e-07
2.01043e-09
-2.65881e-07
-2.99197e-09
-2.58574e-07
-7.307e-09
-2.47503e-07
-1.1071e-08
-2.33064e-07
-1.44385e-08
-2.15538e-07
-1.75259e-08
-1.95147e-07
-2.03915e-08
-1.72108e-07
-2.30389e-08
-1.46673e-07
-2.54347e-08
-1.19144e-07
-2.75293e-08
-8.98741e-08
-2.927e-08
-5.9265e-08
-3.0609e-08
-2.77587e-08
-3.15063e-08
4.17297e-09
-3.19317e-08
3.60404e-08
-3.18674e-08
6.7357e-08
-3.13167e-08
9.76579e-08
-3.03009e-08
1.26511e-07
-2.88529e-08
1.53526e-07
-2.7015e-08
1.78363e-07
-2.48367e-08
2.00733e-07
-2.23708e-08
2.20398e-07
-1.96643e-08
2.37141e-07
-1.6743e-08
2.50731e-07
-1.35904e-08
2.60864e-07
-1.01325e-08
2.67103e-07
-6.23985e-09
2.68859e-07
-1.75531e-09
2.65422e-07
3.43702e-09
2.56129e-07
9.29268e-09
2.40652e-07
1.54771e-08
2.19257e-07
2.13946e-08
1.92905e-07
2.63525e-08
1.63295e-07
2.96095e-08
1.32485e-07
3.08098e-08
1.02378e-07
3.01079e-08
7.43793e-08
2.79983e-08
4.90468e-08
2.53326e-08
2.60714e-08
2.29754e-08
4.54937e-09
2.1522e-08
-1.67102e-08
2.12595e-08
-3.89461e-08
2.22359e-08
-6.32211e-08
2.4275e-08
-9.01408e-08
2.69196e-08
-1.19545e-07
2.94037e-08
-1.50373e-07
3.08281e-08
-1.80882e-07
3.05097e-08
-2.09065e-07
2.81828e-08
-2.32995e-07
2.39299e-08
-2.51393e-07
1.83977e-08
-2.63718e-07
1.23257e-08
-2.7006e-07
6.34211e-09
-2.70965e-07
9.04301e-10
-2.67142e-07
-3.82286e-09
-2.5924e-07
-7.90128e-09
-2.47759e-07
-1.14818e-08
-2.33044e-07
-1.47146e-08
-2.15339e-07
-1.77052e-08
-1.94839e-07
-2.04995e-08
-1.71748e-07
-2.30916e-08
-1.46305e-07
-2.54427e-08
-1.18805e-07
-2.75004e-08
-8.9593e-08
-2.92116e-08
-5.90649e-08
-3.05281e-08
-2.76546e-08
-3.14103e-08
-3.18283e-08
5.42805e-08
-7.97528e-08
1.01887e-07
-7.88298e-08
1.48791e-07
-7.71273e-08
1.94697e-07
-7.47051e-08
2.39335e-07
-7.1631e-08
2.82441e-07
-6.79592e-08
3.23714e-07
-6.37061e-08
3.62758e-07
-5.883e-08
3.99039e-07
-5.32227e-08
4.31854e-07
-4.67097e-08
4.60323e-07
-3.90524e-08
4.83383e-07
-2.99482e-08
4.99768e-07
-1.90384e-08
5.07982e-07
-5.95415e-09
5.06343e-07
9.50611e-09
4.93249e-07
2.70238e-08
4.67599e-07
4.55734e-08
4.29258e-07
6.35377e-08
3.79709e-07
7.85411e-08
3.22211e-07
8.82758e-08
2.60656e-07
9.21578e-08
1.98733e-07
9.07449e-08
1.38989e-07
8.59519e-08
8.2302e-08
8.03463e-08
2.80721e-08
7.60962e-08
-2.51945e-08
7.44724e-08
-7.92863e-08
7.58844e-08
-1.35723e-07
7.99586e-08
-1.9516e-07
8.54671e-08
-2.56793e-07
9.0275e-08
-3.18138e-07
9.18023e-08
-3.75524e-07
8.80729e-08
-4.25032e-07
7.84629e-08
-4.63342e-07
6.35023e-08
-4.88895e-07
4.54624e-08
-5.01782e-07
2.67492e-08
-5.03093e-07
9.02351e-09
-4.94436e-07
-6.64595e-09
-4.77515e-07
-1.99132e-08
-4.5385e-07
-3.09726e-08
-4.2473e-07
-4.01908e-08
-3.91242e-07
-4.79262e-08
-3.54285e-07
-5.44826e-08
-3.14577e-07
-6.01003e-08
-2.72661e-07
-6.49549e-08
-2.28941e-07
-6.91545e-08
-1.8373e-07
-7.27397e-08
-1.37307e-07
-7.56938e-08
-8.99517e-08
-7.79639e-08
-4.19722e-08
-7.94857e-08
6.30232e-09
-8.02063e-08
5.45326e-08
-8.00977e-08
1.0238e-07
-7.91643e-08
1.49521e-07
-7.74415e-08
1.95655e-07
-7.49869e-08
2.40504e-07
-7.18641e-08
2.83786e-07
-6.8119e-08
3.25171e-07
-6.3755e-08
3.64221e-07
-5.87144e-08
4.00349e-07
-5.28709e-08
4.3279e-07
-4.6032e-08
4.60598e-07
-3.79407e-08
4.82636e-07
-2.82774e-08
4.97556e-07
-1.6675e-08
5.03777e-07
-2.78484e-09
4.99585e-07
1.34855e-08
4.83463e-07
3.15992e-08
4.54531e-07
5.03264e-08
4.13062e-07
6.78212e-08
3.61127e-07
8.15445e-08
3.02321e-07
8.96154e-08
2.40583e-07
9.18461e-08
1.7935e-07
8.92313e-08
1.20687e-07
8.39955e-08
6.49715e-08
7.86911e-08
1.12608e-08
7.52327e-08
-4.20884e-08
7.46088e-08
-9.68418e-08
7.69893e-08
-1.54321e-07
8.17547e-08
-2.14789e-07
8.73875e-08
-2.76922e-07
9.15366e-08
-3.37801e-07
9.17072e-08
-3.93591e-07
8.62995e-08
-4.40465e-07
7.50569e-08
-4.75553e-07
5.90176e-08
-4.97856e-07
4.07012e-08
-5.0782e-07
2.2289e-08
-5.06714e-07
5.23679e-09
-4.96205e-07
-9.60555e-09
-4.77938e-07
-2.20897e-08
-4.53348e-07
-3.24909e-08
-4.23646e-07
-4.11841e-08
-3.89845e-07
-4.85154e-08
-3.52779e-07
-5.47709e-08
-3.13106e-07
-6.01725e-08
-2.7132e-07
-6.48778e-08
-2.27786e-07
-6.89772e-08
-1.8279e-07
-7.24959e-08
-1.36596e-07
-7.54055e-08
-8.94786e-08
-7.76457e-08
-4.17399e-08
-7.9149e-08
-7.98607e-08
6.08417e-08
-1.3354e-07
1.14133e-07
-1.32121e-07
1.66495e-07
-1.29489e-07
2.17493e-07
-1.25703e-07
2.66691e-07
-1.20829e-07
3.13641e-07
-1.14909e-07
3.57873e-07
-1.07937e-07
3.98888e-07
-9.98451e-08
4.36165e-07
-9.05001e-08
4.69172e-07
-7.97169e-08
4.9739e-07
-6.72706e-08
5.2035e-07
-5.29076e-08
5.37671e-07
-3.63592e-08
5.49068e-07
-1.73514e-08
5.54144e-07
4.42996e-09
5.51742e-07
2.94258e-08
5.39363e-07
5.79522e-08
5.13796e-07
8.91051e-08
4.7258e-07
1.19757e-07
4.15601e-07
1.45255e-07
3.46272e-07
1.61486e-07
2.70252e-07
1.66766e-07
1.92381e-07
1.63823e-07
1.15341e-07
1.57387e-07
3.97105e-08
1.51726e-07
-3.52544e-08
1.49437e-07
-1.10737e-07
1.51367e-07
-1.87523e-07
1.56744e-07
-2.65117e-07
1.63061e-07
-3.40949e-07
1.66106e-07
-4.10257e-07
1.61111e-07
-4.67365e-07
1.45181e-07
-5.08708e-07
1.19806e-07
-5.34279e-07
8.90729e-08
-5.46493e-07
5.76762e-08
-5.48583e-07
2.884e-08
-5.43097e-07
3.53703e-09
-5.31218e-07
-1.85254e-08
-5.13348e-07
-3.77823e-08
-4.8978e-07
-5.45413e-08
-4.60902e-07
-6.90687e-08
-4.27199e-07
-8.16293e-08
-3.89206e-07
-9.24755e-08
-3.47473e-07
-1.01833e-07
-3.02538e-07
-1.09889e-07
-2.54916e-07
-1.16776e-07
-2.05094e-07
-1.22562e-07
-1.53535e-07
-1.27252e-07
-1.00692e-07
-1.30807e-07
-4.70114e-08
-1.33167e-07
7.05974e-09
-1.34277e-07
6.10724e-08
-1.3411e-07
1.14578e-07
-1.3267e-07
1.67129e-07
-1.29993e-07
2.18279e-07
-1.26136e-07
2.67573e-07
-1.21158e-07
3.14541e-07
-1.15088e-07
3.58691e-07
-1.07905e-07
3.99501e-07
-9.9524e-08
4.36427e-07
-8.97969e-08
4.6892e-07
-7.85254e-08
4.96455e-07
-6.54755e-08
5.18567e-07
-5.03898e-08
5.34896e-07
-3.30033e-08
5.45157e-07
-1.30462e-08
5.48828e-07
9.81443e-09
5.4439e-07
3.60374e-08
5.28996e-07
6.57207e-08
4.99468e-07
9.73486e-08
4.53873e-07
1.2714e-07
3.93088e-07
1.504e-07
3.21529e-07
1.63405e-07
2.44859e-07
1.65902e-07
1.67321e-07
1.61533e-07
9.08956e-08
1.55117e-07
1.56529e-08
1.50475e-07
-5.9376e-08
1.49638e-07
-1.35341e-07
1.52954e-07
-2.12729e-07
1.59143e-07
-2.9047e-07
1.65128e-07
-3.65278e-07
1.66344e-07
-4.31897e-07
1.58327e-07
-4.84932e-07
1.39335e-07
-5.21922e-07
1.12046e-07
-5.43743e-07
8.0839e-08
-5.53207e-07
5.01653e-08
-5.53468e-07
2.25493e-08
-5.46672e-07
-1.55835e-09
-5.33699e-07
-2.25791e-08
-5.14872e-07
-4.09169e-08
-4.90495e-07
-5.68679e-08
-4.60975e-07
-7.07041e-08
-4.26798e-07
-8.26919e-08
-3.88491e-07
-9.30784e-08
-3.46584e-07
-1.0208e-07
-3.01593e-07
-1.09868e-07
-2.5401e-07
-1.16561e-07
-2.04297e-07
-1.22208e-07
-1.529e-07
-1.26802e-07
-1.00253e-07
-1.30293e-07
-4.67898e-08
-1.32613e-07
-1.33705e-07
6.36639e-08
-1.89819e-07
1.19308e-07
-1.87765e-07
1.73759e-07
-1.8394e-07
2.26463e-07
-1.78407e-07
2.76872e-07
-1.71238e-07
3.24441e-07
-1.62479e-07
3.6864e-07
-1.52137e-07
4.08959e-07
-1.40164e-07
4.44917e-07
-1.26458e-07
4.76076e-07
-1.10876e-07
5.0205e-07
-9.32445e-08
5.22513e-07
-7.3371e-08
5.37203e-07
-5.10486e-08
5.45889e-07
-2.60374e-08
5.48322e-07
1.99717e-09
5.44217e-07
3.35307e-08
5.33276e-07
6.88932e-08
5.14742e-07
1.07639e-07
4.86067e-07
1.48431e-07
4.42759e-07
1.88563e-07
3.82144e-07
2.22101e-07
3.06596e-07
2.42314e-07
2.22436e-07
2.47983e-07
1.35008e-07
2.44815e-07
4.68929e-08
2.39842e-07
-4.12109e-08
2.37541e-07
-1.29213e-07
2.3937e-07
-2.16478e-07
2.44009e-07
-3.00557e-07
2.47141e-07
-3.7625e-07
2.41799e-07
-4.3719e-07
2.22051e-07
-4.80767e-07
1.88758e-07
-5.09488e-07
1.48527e-07
-5.27864e-07
1.07449e-07
-5.38533e-07
6.83449e-08
-5.42288e-07
3.25953e-08
-5.39433e-07
6.82488e-10
-5.30255e-07
-2.77037e-08
-5.15006e-07
-5.3031e-08
-4.93923e-07
-7.56252e-08
-4.67275e-07
-9.57164e-08
-4.354e-07
-1.13504e-07
-3.98699e-07
-1.29176e-07
-3.5763e-07
-1.42903e-07
-3.12691e-07
-1.54828e-07
-2.64416e-07
-1.65052e-07
-2.13356e-07
-1.73622e-07
-1.60075e-07
-1.80533e-07
-1.05144e-07
-1.85739e-07
-4.91335e-08
-1.89177e-07
7.37972e-09
-1.90791e-07
6.38174e-08
-1.90548e-07
1.19602e-07
-1.88454e-07
1.74158e-07
-1.84549e-07
2.26913e-07
-1.78892e-07
2.77301e-07
-1.71546e-07
3.24758e-07
-1.62545e-07
3.68737e-07
-1.51884e-07
4.08713e-07
-1.395e-07
4.44196e-07
-1.2528e-07
4.74742e-07
-1.09072e-07
4.99966e-07
-9.06995e-08
5.19549e-07
-6.9973e-08
5.33234e-07
-4.66877e-08
5.40785e-07
-2.05977e-08
5.4194e-07
8.66025e-09
5.3641e-07
4.15664e-08
5.23852e-07
7.82794e-08
5.03135e-07
1.18066e-07
4.70972e-07
1.59302e-07
4.22924e-07
1.98449e-07
3.57647e-07
2.28681e-07
2.79126e-07
2.44423e-07
1.93827e-07
2.46832e-07
1.06231e-07
2.42713e-07
1.81826e-08
2.38524e-07
-6.99378e-08
2.37758e-07
-1.57993e-07
2.4101e-07
-2.44924e-07
2.46074e-07
-3.27454e-07
2.47659e-07
-3.99634e-07
2.38523e-07
-4.55719e-07
2.14413e-07
-4.94787e-07
1.78402e-07
-5.20416e-07
1.37675e-07
-5.36818e-07
9.72411e-08
-5.45935e-07
5.92816e-08
-5.48302e-07
2.4917e-08
-5.44207e-07
-5.65374e-09
-5.33928e-07
-3.28581e-08
-5.17705e-07
-5.714e-08
-4.95771e-07
-7.88014e-08
-4.68406e-07
-9.80695e-08
-4.3595e-07
-1.15147e-07
-3.98806e-07
-1.30222e-07
-3.57424e-07
-1.43462e-07
-3.12292e-07
-1.55e-07
-2.63927e-07
-1.64926e-07
-2.12865e-07
-1.73271e-07
-1.5965e-07
-1.80018e-07
-1.04832e-07
-1.8511e-07
-4.8968e-08
-1.88477e-07
-1.90058e-07
6.42447e-08
-2.46609e-07
1.20296e-07
-2.43816e-07
1.74961e-07
-2.38605e-07
2.27606e-07
-2.31053e-07
2.77616e-07
-2.21247e-07
3.24398e-07
-2.09261e-07
3.67397e-07
-1.95135e-07
4.06101e-07
-1.78868e-07
4.40051e-07
-1.60408e-07
4.68845e-07
-1.3967e-07
4.92135e-07
-1.16535e-07
5.09626e-07
-9.0862e-08
5.21067e-07
-6.24901e-08
5.26253e-07
-3.12232e-08
5.25059e-07
3.19061e-09
5.17549e-07
4.10416e-08
5.03978e-07
8.24637e-08
4.84461e-07
1.27157e-07
4.5849e-07
1.74401e-07
4.24264e-07
2.2279e-07
3.77388e-07
2.68977e-07
3.13204e-07
3.06498e-07
2.33122e-07
3.28065e-07
1.43725e-07
3.34211e-07
5.04091e-08
3.33158e-07
-4.3907e-08
3.31857e-07
-1.372e-07
3.32662e-07
-2.2665e-07
3.3346e-07
-3.0703e-07
3.27521e-07
-3.71712e-07
3.06481e-07
-4.1895e-07
2.69289e-07
-4.53233e-07
2.23041e-07
-4.79074e-07
1.74368e-07
-4.98361e-07
1.26736e-07
-5.11629e-07
8.16123e-08
-5.18775e-07
3.97412e-08
-5.19539e-07
1.44655e-09
-5.13856e-07
-3.33869e-08
-5.0185e-07
-6.50364e-08
-4.83734e-07
-9.37415e-08
-4.59765e-07
-1.19685e-07
-4.3025e-07
-1.43019e-07
-3.95552e-07
-1.63875e-07
-3.56091e-07
-1.82364e-07
-3.12348e-07
-1.98571e-07
-2.64859e-07
-2.12541e-07
-2.14204e-07
-2.24277e-07
-1.60999e-07
-2.33737e-07
-1.05884e-07
-2.40854e-07
-4.9516e-08
-2.45545e-07
7.43801e-09
-2.47745e-07
6.4304e-08
-2.47414e-07
1.20409e-07
-2.44559e-07
1.75089e-07
-2.39228e-07
2.27689e-07
-2.31493e-07
2.77576e-07
-2.21433e-07
3.24142e-07
-2.09111e-07
3.66817e-07
-1.94559e-07
4.05078e-07
-1.77762e-07
4.38462e-07
-1.58663e-07
4.66561e-07
-1.37171e-07
4.89029e-07
-1.13167e-07
5.05572e-07
-8.65162e-08
5.15944e-07
-5.70597e-08
5.19949e-07
-2.46028e-08
5.17501e-07
1.11089e-08
5.08727e-07
5.03403e-08
4.93895e-07
9.31117e-08
4.72982e-07
1.38978e-07
4.45203e-07
1.87081e-07
4.08092e-07
2.3556e-07
3.56542e-07
2.80231e-07
2.87283e-07
3.13682e-07
2.03872e-07
3.30242e-07
1.13034e-07
3.33551e-07
1.92655e-08
3.32292e-07
-7.49903e-08
3.32014e-07
-1.67641e-07
3.3366e-07
-2.55242e-07
3.33676e-07
-3.31714e-07
3.2413e-07
-3.91203e-07
2.98012e-07
-4.34198e-07
2.57408e-07
-4.65967e-07
2.10171e-07
-4.90149e-07
1.61857e-07
-5.08095e-07
1.15187e-07
-5.20107e-07
7.12933e-08
-5.25986e-07
3.07955e-08
-5.25507e-07
-6.13264e-09
-5.18667e-07
-3.96973e-08
-5.05621e-07
-7.01865e-08
-4.86586e-07
-9.7836e-08
-4.61825e-07
-1.22831e-07
-4.31646e-07
-1.45327e-07
-3.9641e-07
-1.65458e-07
-3.56535e-07
-1.83337e-07
-3.12494e-07
-1.99041e-07
-2.64812e-07
-2.12608e-07
-2.14054e-07
-2.24029e-07
-1.60819e-07
-2.33252e-07
-1.05729e-07
-2.402e-07
-4.94214e-08
-2.44784e-07
-2.46934e-07
6.30639e-08
-3.02353e-07
1.17997e-07
-2.98749e-07
1.71413e-07
-2.92021e-07
2.22626e-07
-2.82267e-07
2.70983e-07
-2.69604e-07
3.15869e-07
-2.54146e-07
3.56719e-07
-2.35986e-07
3.9303e-07
-2.15178e-07
4.24363e-07
-1.91741e-07
4.50345e-07
-1.65652e-07
4.70664e-07
-1.36854e-07
4.85066e-07
-1.05263e-07
4.93345e-07
-7.07699e-08
4.95362e-07
-3.32399e-08
4.91075e-07
7.47761e-09
4.80609e-07
5.15073e-08
4.64262e-07
9.88112e-08
4.42379e-07
1.4904e-07
4.15238e-07
2.01542e-07
3.82695e-07
2.55333e-07
3.42999e-07
3.08672e-07
2.91689e-07
3.57808e-07
2.23931e-07
3.95823e-07
1.41256e-07
4.16886e-07
5.01984e-08
4.24216e-07
-4.3379e-08
4.25434e-07
-1.34576e-07
4.23859e-07
-2.17634e-07
4.16518e-07
-2.85981e-07
3.95867e-07
-3.37728e-07
3.58228e-07
-3.77533e-07
3.09093e-07
-4.09983e-07
2.55491e-07
-4.36933e-07
2.01318e-07
-4.58565e-07
1.48368e-07
-4.74605e-07
9.76527e-08
-4.84706e-07
4.98418e-08
-4.88566e-07
5.30639e-09
-4.86057e-07
-3.58958e-08
-4.7722e-07
-7.38729e-08
-4.62202e-07
-1.0876e-07
-4.41214e-07
-1.40674e-07
-4.14522e-07
-1.69711e-07
-3.82454e-07
-1.95943e-07
-3.45401e-07
-2.19417e-07
-3.03825e-07
-2.40147e-07
-2.58255e-07
-2.58111e-07
-2.09281e-07
-2.73251e-07
-1.57545e-07
-2.85474e-07
-1.03727e-07
-2.94671e-07
-4.85388e-08
-3.00734e-07
7.29176e-09
-3.03575e-07
6.30258e-08
-3.03148e-07
1.17926e-07
-2.9946e-07
1.71268e-07
-2.9257e-07
2.22348e-07
-2.82572e-07
2.70493e-07
-2.69578e-07
3.15076e-07
-2.53693e-07
3.55519e-07
-2.35003e-07
3.91313e-07
-2.13555e-07
4.22013e-07
-1.89363e-07
4.47245e-07
-1.62403e-07
4.66698e-07
-1.32621e-07
4.8012e-07
-9.99381e-08
4.87315e-07
-6.42545e-08
4.88158e-07
-2.54463e-08
4.82647e-07
1.66202e-08
4.7096e-07
6.20272e-08
4.53426e-07
1.10646e-07
4.30383e-07
1.6202e-07
4.02056e-07
2.15409e-07
3.67965e-07
2.69651e-07
3.25595e-07
3.22601e-07
2.69769e-07
3.69509e-07
1.97091e-07
4.0292e-07
1.11252e-07
4.1939e-07
1.89456e-08
4.24599e-07
-7.44524e-08
4.25412e-07
-1.63959e-07
4.23167e-07
-2.43285e-07
4.13001e-07
-3.0657e-07
3.87415e-07
-3.54267e-07
3.45709e-07
-3.91779e-07
2.9492e-07
-4.22832e-07
2.41224e-07
-4.48615e-07
1.87641e-07
-4.69082e-07
1.35654e-07
-4.83926e-07
8.61367e-08
-4.92798e-07
3.96681e-08
-4.9544e-07
-3.49063e-09
-4.91776e-07
-4.33619e-08
-4.81878e-07
-8.00848e-08
-4.65906e-07
-1.13808e-07
-4.44077e-07
-1.44659e-07
-4.16662e-07
-1.72742e-07
-3.83987e-07
-1.98133e-07
-3.46443e-07
-2.20881e-07
-3.04485e-07
-2.40999e-07
-2.58634e-07
-2.58459e-07
-2.09468e-07
-2.73195e-07
-1.57613e-07
-2.85108e-07
-1.03733e-07
-2.9408e-07
-4.85187e-08
-2.99998e-07
-3.02772e-07
6.04375e-08
-3.55774e-07
1.13004e-07
-3.51316e-07
1.63979e-07
-3.42995e-07
2.12649e-07
-3.30937e-07
2.58345e-07
-3.153e-07
3.00448e-07
-2.9625e-07
3.38402e-07
-2.73939e-07
3.7172e-07
-2.48496e-07
3.99988e-07
-2.2001e-07
4.22866e-07
-1.8853e-07
4.4008e-07
-1.54068e-07
4.5142e-07
-1.16603e-07
4.56738e-07
-7.60881e-08
4.55961e-07
-3.24619e-08
4.49114e-07
1.43242e-08
4.36363e-07
6.4258e-08
4.18006e-07
1.17168e-07
3.94408e-07
1.72638e-07
3.65947e-07
2.30004e-07
3.32938e-07
2.88342e-07
2.95248e-07
3.46362e-07
2.51085e-07
4.01971e-07
1.96054e-07
4.50854e-07
1.26623e-07
4.86316e-07
4.57579e-08
5.05081e-07
-3.92132e-08
5.10405e-07
-1.20395e-07
5.05041e-07
-1.90388e-07
4.86511e-07
-2.45908e-07
4.51387e-07
-2.90246e-07
4.02566e-07
-3.27893e-07
3.4674e-07
-3.60762e-07
2.88361e-07
-3.89027e-07
2.29583e-07
-4.12378e-07
1.71719e-07
-4.30434e-07
1.15709e-07
-4.42828e-07
6.22356e-08
-4.49257e-07
1.17363e-08
-4.49557e-07
-3.55966e-08
-4.43699e-07
-7.97311e-08
-4.31761e-07
-1.20697e-07
-4.139e-07
-1.58535e-07
-3.90337e-07
-1.93274e-07
-3.61361e-07
-2.24919e-07
-3.27332e-07
-2.53446e-07
-2.88687e-07
-2.78792e-07
-2.45937e-07
-3.00861e-07
-1.99668e-07
-3.1952e-07
-1.50525e-07
-3.34616e-07
-9.9207e-08
-3.45989e-07
-4.64514e-08
-3.53489e-07
6.9785e-09
-3.57005e-07
6.0307e-08
-3.56476e-07
1.1276e-07
-3.51913e-07
1.6358e-07
-3.4339e-07
2.12039e-07
-3.31031e-07
2.5745e-07
-3.14989e-07
2.99182e-07
-2.95425e-07
3.36669e-07
-2.7249e-07
3.69418e-07
-2.46304e-07
3.97013e-07
-2.16958e-07
4.19112e-07
-1.84502e-07
4.35446e-07
-1.48954e-07
4.45808e-07
-1.103e-07
4.50062e-07
-6.85087e-08
4.48154e-07
-2.35381e-08
4.40144e-07
2.46305e-08
4.26237e-07
7.59338e-08
4.06761e-07
1.30122e-07
3.82089e-07
1.86692e-07
3.526e-07
2.44898e-07
3.18536e-07
3.03715e-07
2.79438e-07
3.61699e-07
2.32688e-07
4.16259e-07
1.73469e-07
4.62139e-07
9.99758e-08
4.92883e-07
1.7045e-08
5.07529e-07
-6.76142e-08
5.10071e-07
-1.46117e-07
5.0167e-07
-2.11784e-07
4.78668e-07
-2.63463e-07
4.39094e-07
-3.05605e-07
3.87851e-07
-3.41999e-07
3.31315e-07
-3.73836e-07
2.7306e-07
-4.01062e-07
2.14867e-07
-4.23326e-07
1.57918e-07
-4.4025e-07
1.03061e-07
-4.51481e-07
5.08985e-08
-4.56749e-07
1.77774e-09
-4.5593e-07
-4.41812e-08
-4.49025e-07
-8.69892e-08
-4.36131e-07
-1.26702e-07
-4.17412e-07
-1.63378e-07
-3.93094e-07
-1.97059e-07
-3.63469e-07
-2.27759e-07
-3.28894e-07
-2.55455e-07
-2.89805e-07
-2.80089e-07
-2.46704e-07
-3.01559e-07
-2.00167e-07
-3.19732e-07
-1.50827e-07
-3.34448e-07
-9.93658e-08
-3.45541e-07
-4.6503e-08
-3.52861e-07
-3.56292e-07
5.66387e-08
-4.05835e-07
1.0583e-07
-4.00507e-07
1.534e-07
-3.90566e-07
1.98635e-07
-3.76171e-07
2.40865e-07
-3.5753e-07
2.79483e-07
-3.34868e-07
3.13954e-07
-3.0841e-07
3.43817e-07
-2.78359e-07
3.68692e-07
-2.44885e-07
3.88277e-07
-2.08115e-07
4.02345e-07
-1.68136e-07
4.10735e-07
-1.24994e-07
4.13359e-07
-7.87123e-08
4.10205e-07
-2.93077e-08
4.01354e-07
2.31758e-08
3.86997e-07
7.86148e-08
3.67432e-07
1.36732e-07
3.43027e-07
1.97044e-07
3.14186e-07
2.58844e-07
2.81319e-07
3.21209e-07
2.44727e-07
3.82955e-07
2.04201e-07
4.42496e-07
1.57942e-07
4.97114e-07
1.02568e-07
5.41691e-07
3.75233e-08
5.70125e-07
-3.17862e-08
5.79715e-07
-9.71709e-08
5.70426e-07
-1.5297e-07
5.4231e-07
-1.99448e-07
4.97865e-07
-2.39983e-07
4.43101e-07
-2.76484e-07
3.83241e-07
-3.09205e-07
3.21082e-07
-3.37854e-07
2.58231e-07
-3.6202e-07
1.95885e-07
-3.81295e-07
1.34984e-07
-3.95309e-07
7.62495e-08
-4.03761e-07
2.01886e-08
-4.06458e-07
-3.28998e-08
-4.03319e-07
-8.28701e-08
-3.9436e-07
-1.29655e-07
-3.79679e-07
-1.73216e-07
-3.59444e-07
-2.13508e-07
-3.339e-07
-2.50463e-07
-3.03368e-07
-2.83978e-07
-2.68252e-07
-3.13909e-07
-2.29036e-07
-3.40076e-07
-1.86285e-07
-3.62271e-07
-1.40635e-07
-3.80266e-07
-9.27822e-08
-3.93842e-07
-4.34688e-08
-4.02803e-07
6.53057e-09
-4.07004e-07
5.64268e-08
-4.06373e-07
1.05433e-07
-4.00919e-07
1.52781e-07
-3.90738e-07
1.97739e-07
-3.75989e-07
2.39626e-07
-3.56876e-07
2.77824e-07
-3.33623e-07
3.11787e-07
-3.06453e-07
3.41053e-07
-2.7557e-07
3.65239e-07
-2.41144e-07
3.84044e-07
-2.03308e-07
3.97245e-07
-1.62155e-07
4.0469e-07
-1.17746e-07
4.06304e-07
-7.0122e-08
4.02092e-07
-1.93263e-08
3.92164e-07
3.45589e-08
3.76743e-07
9.13549e-08
3.56152e-07
1.50713e-07
3.30774e-07
2.1207e-07
3.01024e-07
2.74648e-07
2.67295e-07
3.37444e-07
2.29807e-07
3.99187e-07
1.87999e-07
4.58067e-07
1.39394e-07
5.10743e-07
8.08641e-08
5.51413e-07
1.37153e-08
5.74678e-07
-5.52483e-08
5.79035e-07
-1.18063e-07
5.64484e-07
-1.70777e-07
5.31382e-07
-2.15234e-07
4.83551e-07
-2.54646e-07
4.27263e-07
-2.9028e-07
3.66949e-07
-3.2213e-07
3.0491e-07
-3.49852e-07
2.42589e-07
-3.7303e-07
1.81096e-07
-3.91265e-07
1.21297e-07
-4.04207e-07
6.38399e-08
-4.11581e-07
9.15212e-09
-4.13227e-07
-4.25354e-08
-4.09089e-07
-9.11267e-08
-3.99202e-07
-1.36589e-07
-3.83673e-07
-1.78908e-07
-3.62678e-07
-2.18054e-07
-3.36465e-07
-2.53972e-07
-3.05356e-07
-2.86564e-07
-2.69752e-07
-3.15693e-07
-2.30133e-07
-3.41178e-07
-1.87055e-07
-3.6281e-07
-1.41143e-07
-3.80361e-07
-9.30768e-08
-3.93607e-07
-4.35845e-08
-4.02354e-07
-4.06454e-07
5.18897e-08
-4.51697e-07
9.68882e-08
-4.45505e-07
1.40282e-07
-4.33959e-07
1.81367e-07
-4.17257e-07
2.19494e-07
-3.95658e-07
2.54082e-07
-3.69456e-07
2.84625e-07
-3.38953e-07
3.107e-07
-3.04433e-07
3.31967e-07
-2.66152e-07
3.4817e-07
-2.24318e-07
3.5913e-07
-1.79096e-07
3.64745e-07
-1.30609e-07
3.64984e-07
-7.89508e-08
3.59892e-07
-2.42165e-08
3.49602e-07
3.34658e-08
3.34337e-07
9.38802e-08
3.14406e-07
1.56664e-07
2.90184e-07
2.21266e-07
2.62096e-07
2.86932e-07
2.30608e-07
3.52697e-07
1.96194e-07
4.17369e-07
1.59245e-07
4.79445e-07
1.19644e-07
5.36715e-07
7.61565e-08
5.85179e-07
2.77777e-08
6.18504e-07
-2.31054e-08
6.30598e-07
-7.16684e-08
6.18989e-07
-1.15316e-07
5.85957e-07
-1.54938e-07
5.37488e-07
-1.9182e-07
4.79983e-07
-2.26121e-07
4.17543e-07
-2.5746e-07
3.5242e-07
-2.85359e-07
2.86131e-07
-3.09351e-07
2.19877e-07
-3.29007e-07
1.54639e-07
-3.43948e-07
9.11903e-08
-3.53861e-07
3.01022e-08
-3.58523e-07
-2.82382e-08
-3.57802e-07
-8.35908e-08
-3.51657e-07
-1.35801e-07
-3.40123e-07
-1.8475e-07
-3.23316e-07
-2.30315e-07
-3.01428e-07
-2.72351e-07
-2.74736e-07
-3.1067e-07
-2.43601e-07
-3.45044e-07
-2.08472e-07
-3.75206e-07
-1.69881e-07
-4.00862e-07
-1.28439e-07
-4.21708e-07
-8.48243e-08
-4.37457e-07
-3.97648e-08
-4.47862e-07
5.97414e-09
-4.52743e-07
5.16109e-08
-4.52009e-07
9.63661e-08
-4.45674e-07
1.39483e-07
-4.33855e-07
1.80243e-07
-4.1675e-07
2.17987e-07
-3.94619e-07
2.52122e-07
-3.67758e-07
2.82137e-07
-3.36469e-07
3.07607e-07
-3.01039e-07
3.28191e-07
-2.61728e-07
3.43637e-07
-2.18754e-07
3.53772e-07
-1.7229e-07
3.58502e-07
-1.22476e-07
3.5781e-07
-6.943e-08
3.51761e-07
-1.32773e-08
3.40509e-07
4.58107e-08
3.24304e-07
1.0756e-07
3.03476e-07
1.7154e-07
2.7842e-07
2.37126e-07
2.49576e-07
3.03492e-07
2.17417e-07
3.69603e-07
1.82414e-07
4.34189e-07
1.44872e-07
4.95609e-07
1.04363e-07
5.51252e-07
5.94152e-08
5.96361e-07
9.83321e-09
6.2426e-07
-4.08377e-08
6.29706e-07
-8.79961e-08
6.11642e-07
-1.30301e-07
5.73687e-07
-1.69138e-07
5.22389e-07
-2.05447e-07
4.63571e-07
-2.39141e-07
4.00644e-07
-2.69786e-07
3.35556e-07
-2.96907e-07
2.69709e-07
-3.20046e-07
2.04235e-07
-3.38791e-07
1.40042e-07
-3.52781e-07
7.78302e-08
-3.61728e-07
1.80996e-08
-3.65434e-07
-3.88296e-08
-3.6379e-07
-9.27707e-08
-3.56771e-07
-1.43609e-07
-3.44425e-07
-1.91253e-07
-3.26877e-07
-2.35603e-07
-3.04323e-07
-2.76525e-07
-2.77043e-07
-3.13844e-07
-2.45397e-07
-3.47339e-07
-2.09831e-07
-3.76745e-07
-1.7087e-07
-4.01771e-07
-1.29115e-07
-4.22115e-07
-8.52316e-08
-4.3749e-07
-3.99343e-08
-4.47651e-07
-4.52417e-07
4.63733e-08
-4.92681e-07
8.65218e-08
-4.85654e-07
1.25119e-07
-4.72556e-07
1.6149e-07
-4.53628e-07
1.95019e-07
-4.29187e-07
2.25162e-07
-3.99598e-07
2.51452e-07
-3.65243e-07
2.73513e-07
-3.26494e-07
2.91052e-07
-2.83691e-07
3.03863e-07
-2.3713e-07
3.11822e-07
-1.87055e-07
3.14882e-07
-1.33669e-07
3.13071e-07
-7.71398e-08
3.06492e-07
-1.76379e-08
2.95327e-07
4.4631e-08
2.79837e-07
1.0937e-07
2.60358e-07
1.76143e-07
2.37291e-07
2.44333e-07
2.11096e-07
3.13126e-07
1.82298e-07
3.81495e-07
1.51494e-07
4.48173e-07
1.19357e-07
5.11582e-07
8.65251e-08
5.69546e-07
5.32124e-08
6.18491e-07
1.91207e-08
6.52595e-07
-1.54811e-08
6.652e-07
-4.9585e-08
6.53093e-07
-8.28605e-08
6.19232e-07
-1.15602e-07
5.7023e-07
-1.47625e-07
5.12006e-07
-1.78297e-07
4.48214e-07
-2.06938e-07
3.81062e-07
-2.32946e-07
3.12139e-07
-2.55793e-07
2.42724e-07
-2.75012e-07
1.73858e-07
-2.90199e-07
1.06377e-07
-3.01015e-07
4.09184e-08
-3.07197e-07
-2.20561e-08
-3.08564e-07
-8.22232e-08
-3.05017e-07
-1.39348e-07
-2.96534e-07
-1.93233e-07
-2.83171e-07
-2.43678e-07
-2.65067e-07
-2.90454e-07
-2.42447e-07
-3.3329e-07
-2.15624e-07
-3.71867e-07
-1.85e-07
-4.05829e-07
-1.51068e-07
-4.34794e-07
-1.14399e-07
-4.58377e-07
-7.56376e-08
-4.76219e-07
-3.54818e-08
-4.88018e-07
5.33063e-09
-4.93556e-07
4.60442e-08
-4.92723e-07
8.59062e-08
-4.85536e-07
1.24187e-07
-4.72136e-07
1.60201e-07
-4.52764e-07
1.93322e-07
-4.27741e-07
2.22998e-07
-3.97434e-07
2.4876e-07
-3.6223e-07
2.70228e-07
-3.22507e-07
2.87112e-07
-2.78613e-07
2.99211e-07
-2.30853e-07
3.06409e-07
-1.79487e-07
3.08668e-07
-1.24735e-07
3.0603e-07
-6.67929e-08
2.98618e-07
-5.86493e-09
2.86632e-07
5.77964e-08
2.70357e-07
1.23836e-07
2.50149e-07
1.91748e-07
2.26429e-07
2.60846e-07
1.99679e-07
3.30243e-07
1.70445e-07
3.98837e-07
1.39353e-07
4.65282e-07
1.07092e-07
5.27871e-07
7.42208e-08
5.84123e-07
4.07561e-08
6.29826e-07
6.44228e-09
6.58574e-07
-2.81152e-08
6.64263e-07
-6.19824e-08
6.45509e-07
-9.51504e-08
6.06855e-07
-1.27846e-07
5.55085e-07
-1.59703e-07
4.95428e-07
-1.90046e-07
4.30986e-07
-2.18217e-07
3.63727e-07
-2.43642e-07
2.95134e-07
-2.65813e-07
2.26406e-07
-2.84285e-07
1.58513e-07
-2.98673e-07
9.22184e-08
-3.0866e-07
2.80869e-08
-3.14006e-07
-3.34841e-08
-3.14549e-07
-9.22273e-08
-3.10207e-07
-1.47951e-07
-3.0097e-07
-2.0049e-07
-2.86907e-07
-2.49666e-07
-2.68161e-07
-2.9527e-07
-2.44962e-07
-3.37044e-07
-2.17623e-07
-3.74678e-07
-1.86546e-07
-4.07822e-07
-1.52217e-07
-4.361e-07
-1.15201e-07
-4.59131e-07
-7.61305e-08
-4.76561e-07
-3.56927e-08
-4.88089e-07
-4.93498e-07
4.02367e-08
-5.2824e-07
7.50065e-08
-5.20424e-07
1.08313e-07
-5.05863e-07
1.39527e-07
-4.84841e-07
1.68077e-07
-4.57737e-07
1.93466e-07
-4.24987e-07
2.1528e-07
-3.87057e-07
2.33191e-07
-3.44405e-07
2.4696e-07
-2.9746e-07
2.56436e-07
-2.46605e-07
2.61548e-07
-1.92168e-07
2.62308e-07
-1.34428e-07
2.58798e-07
-7.36305e-08
2.51178e-07
-1.0018e-08
2.39679e-07
5.61303e-08
2.24604e-07
1.24446e-07
2.06324e-07
1.94423e-07
1.85275e-07
2.65382e-07
1.61959e-07
3.36442e-07
1.36956e-07
4.06498e-07
1.10945e-07
4.74184e-07
8.47289e-08
5.37798e-07
5.92054e-08
5.95069e-07
3.50899e-08
6.42607e-07
1.24024e-08
6.75283e-07
-9.66696e-09
6.87269e-07
-3.22738e-08
6.757e-07
-5.62554e-08
6.43214e-07
-8.16297e-08
5.95604e-07
-1.07697e-07
5.38073e-07
-1.33556e-07
4.74073e-07
-1.58394e-07
4.059e-07
-1.81525e-07
3.3527e-07
-2.02362e-07
2.63561e-07
-2.20399e-07
1.91895e-07
-2.35196e-07
1.21174e-07
-2.46377e-07
5.20999e-08
-2.53638e-07
-1.47948e-08
-2.56748e-07
-7.91132e-08
-2.55552e-07
-1.40545e-07
-2.49969e-07
-1.98816e-07
-2.40001e-07
-2.53647e-07
-2.25729e-07
-3.04726e-07
-2.07322e-07
-3.51697e-07
-1.85039e-07
-3.9415e-07
-1.59232e-07
-4.31637e-07
-1.3034e-07
-4.63686e-07
-9.88861e-08
-4.8983e-07
-6.54662e-08
-5.09639e-07
-3.0734e-08
-5.2275e-07
4.61723e-09
-5.28907e-07
3.98752e-08
-5.27981e-07
7.43307e-08
-5.19992e-07
1.07299e-07
-5.05104e-07
1.38139e-07
-4.83604e-07
1.66273e-07
-4.55875e-07
1.912e-07
-4.2236e-07
2.12501e-07
-3.83532e-07
2.2985e-07
-3.39856e-07
2.43012e-07
-2.91774e-07
2.5184e-07
-2.39681e-07
2.56275e-07
-1.83921e-07
2.56336e-07
-1.24797e-07
2.52125e-07
-6.25813e-08
2.43815e-07
2.44469e-09
2.31658e-07
6.99537e-08
2.15977e-07
1.39517e-07
1.97164e-07
2.10561e-07
1.75676e-07
2.82334e-07
1.52039e-07
3.53879e-07
1.26863e-07
4.24012e-07
1.00866e-07
4.91279e-07
7.48932e-08
5.53844e-07
4.98358e-08
6.0918e-07
2.62531e-08
6.53409e-07
3.89123e-09
6.80936e-07
-1.82306e-08
6.86385e-07
-4.12407e-08
6.6852e-07
-6.57625e-08
6.31377e-07
-9.15516e-08
5.80874e-07
-1.17799e-07
5.21675e-07
-1.43619e-07
4.56806e-07
-1.68242e-07
3.8835e-07
-1.91017e-07
3.17909e-07
-2.11388e-07
2.46776e-07
-2.28869e-07
1.75995e-07
-2.43042e-07
1.06392e-07
-2.53553e-07
3.85979e-08
-2.60117e-07
-2.69203e-08
-2.62522e-07
-8.98226e-08
-2.60628e-07
-1.49844e-07
-2.54372e-07
-2.06746e-07
-2.43762e-07
-2.60276e-07
-2.28891e-07
-3.10142e-07
-2.09932e-07
-3.56003e-07
-1.87147e-07
-3.97462e-07
-1.60887e-07
-4.34082e-07
-1.31588e-07
-4.65398e-07
-9.97691e-08
-4.9095e-07
-6.60163e-08
-5.10314e-07
-3.09734e-08
-5.23132e-07
-5.29149e-07
3.35984e-08
-5.57931e-07
6.2564e-08
-5.49389e-07
9.0188e-08
-5.33487e-07
1.15897e-07
-5.10551e-07
1.3918e-07
-4.81019e-07
1.59595e-07
-4.45403e-07
1.76788e-07
-4.04249e-07
1.90486e-07
-3.58103e-07
2.00507e-07
-3.07481e-07
2.06753e-07
-2.52852e-07
2.09211e-07
-1.94626e-07
2.07944e-07
-1.33161e-07
2.0309e-07
-6.87761e-08
1.94857e-07
-1.785e-09
1.83523e-07
6.74644e-08
1.69431e-07
1.38537e-07
1.52988e-07
2.10866e-07
1.34661e-07
2.83709e-07
1.14982e-07
3.56121e-07
9.45608e-08
4.26919e-07
7.41003e-08
4.94645e-07
5.4409e-08
5.57489e-07
3.63607e-08
6.13118e-07
2.06439e-08
6.58324e-07
7.18873e-09
6.88738e-07
-5.26045e-09
6.99718e-07
-1.86073e-08
6.89047e-07
-3.41586e-08
6.58765e-07
-5.20322e-08
6.13477e-07
-7.15552e-08
5.57596e-07
-9.18502e-08
4.94368e-07
-1.12101e-07
4.2615e-07
-1.31597e-07
3.54766e-07
-1.49724e-07
2.81688e-07
-1.65943e-07
2.08114e-07
-1.79783e-07
1.35014e-07
-1.90834e-07
6.31512e-08
-1.98751e-07
-6.87813e-09
-2.03255e-07
-7.46089e-08
-2.0414e-07
-1.3966e-07
-2.01273e-07
-2.01683e-07
-1.94598e-07
-2.60322e-07
-1.84142e-07
-3.15183e-07
-1.70016e-07
-3.65822e-07
-1.52423e-07
-4.11743e-07
-1.31655e-07
-4.52405e-07
-1.08091e-07
-4.8725e-07
-8.2196e-08
-5.15726e-07
-5.45051e-08
-5.3733e-07
-2.56125e-08
-5.51643e-07
3.84766e-09
-5.58367e-07
3.32223e-08
-5.57356e-07
6.18613e-08
-5.48631e-07
8.9139e-08
-5.32381e-07
1.14475e-07
-5.0894e-07
1.37351e-07
-4.78751e-07
1.57324e-07
-4.42334e-07