/*--------------------------------*- C++ -*----------------------------------*\
| =========                 |                                                 |
| \\      /  F ield         | OpenFOAM: The Open Source CFD Toolbox           |
|  \\    /   O peration     | Version:  2.3.0                                 |
|   \\  /    A nd           | Web:      www.OpenFOAM.org                      |
|    \\/     M anipulation  |                                                 |
\*---------------------------------------------------------------------------*/
FoamFile
{
    version     2.0;
    format      ascii;
    class       volScalarField;
    location    "12000";
    object      T;
}
// * * * * * * * * * * * * * * * * * * * * * * * * * * * * * * * * * * * * * //

dimensions      [0 0 0 1 0 0 0];

internalField   nonuniform List<scalar> 
765
(
40.0051
40.0646
40.0163
39.9135
39.8353
39.8856
40.1476
40.4321
40.8157
41.3279
41.6192
41.1488
40.6636
40.3117
40.0259
39.8376
39.842
39.9399
40.0334
40.0524
39.9499
39.7612
39.5155
39.2131
38.8431
38.3866
37.817
37.1028
36.2122
35.121
33.8094
32.1946
30.7108
29.6075
28.8356
28.4993
28.5855
29.0697
29.97
31.1924
32.8251
34.3149
35.5442
36.5603
37.383
38.0405
38.5652
38.9876
39.3313
39.6127
39.8394
33.0361
33.2224
33.2955
33.3025
33.3312
33.5066
33.9227
34.7412
36.0934
37.8846
38.8684
37.2877
35.5947
34.4299
33.7733
33.4048
33.2907
33.2815
33.2607
33.1538
32.9267
32.5315
32.0135
31.3981
30.6891
29.8776
28.9402
27.8304
26.4685
24.7377
22.6544
20.6912
19.0857
17.7598
16.7354
16.1846
16.3266
17.0706
18.2199
19.6375
21.352
23.4582
25.4237
27.0029
28.2605
29.3003
30.1884
30.9613
31.6368
32.2195
32.7002
28.1358
28.4572
28.7058
28.9099
29.1221
29.4327
29.9949
31.1748
33.1578
35.7691
37.1769
34.8994
32.4076
30.6848
29.7234
29.2869
29.0235
28.8206
28.6046
28.3321
27.9814
27.5487
26.9939
26.3304
25.576
24.7323
23.8026
22.7782
21.6363
20.3667
18.9069
17.2771
15.592
14.0061
12.7285
12.0255
12.2036
13.1516
14.5743
16.2215
17.9047
19.4838
20.8633
22.0814
23.1737
24.1595
25.0575
25.8681
26.5909
27.2206
27.7325
26.0195
26.3949
26.738
27.0507
27.3432
27.6679
28.2442
29.4571
31.6134
34.5489
36.1232
33.5702
30.7826
28.9453
27.9749
27.5338
27.2321
26.9347
26.6112
26.2563
25.869
25.4493
24.998
24.5129
23.998
23.4603
22.8788
22.2088
21.3818
20.3048
18.8786
17.0965
15.1026
13.1271
11.508
10.6236
10.8416
12.0404
13.8374
15.861
17.8033
19.4619
20.7481
21.7189
22.4764
23.1056
23.6654
24.1944
24.6994
25.171
25.6114
25.9998
26.336
26.6664
26.9665
27.215
27.4487
27.8899
28.9213
30.9808
33.9189
35.4795
32.9427
30.1708
28.474
27.6913
27.3553
27.1319
26.8659
26.5526
26.2177
25.8829
25.5606
25.2548
24.963
24.6753
24.3686
23.997
23.4873
22.7364
21.6183
20.0132
17.9084
15.4949
13.0684
11.0693
9.98909
10.2487
11.72
13.9353
16.4062
18.7367
20.6695
22.0834
23.05
23.6974
24.145
24.4849
24.7799
25.0665
25.3618
25.6728
26.9176
27.194
27.4622
27.6814
27.8202
27.9338
28.1831
29.0123
30.9042
33.6695
35.1001
32.7632
30.1503
28.6333
28.0557
27.8901
27.7825
27.6165
27.3769
27.1023
26.8308
26.5858
26.376
26.1965
26.028
25.8325
25.5466
25.0764
24.2992
23.0752
21.2754
18.8577
16.0297
13.1612
10.7898
9.51721
9.81773
11.5559
14.1802
17.0911
19.7975
21.9975
23.5754
24.6205
25.2702
25.6604
25.9039
26.0832
26.2517
26.4399
26.6618
28.0563
28.2712
28.4549
28.5673
28.5918
28.5985
28.77
29.518
31.1932
33.5825
34.8237
32.8131
30.5402
29.1805
28.6677
28.6021
28.5936
28.5418
28.4029
28.2053
27.9895
27.7876
27.6165
27.4765
27.3486
27.189
26.922
26.4384
25.6029
24.2709
22.3075
19.6414
16.4632
13.2061
10.4984
9.04405
9.38476
11.3698
14.3594
17.6563
20.6753
23.086
24.8066
25.9425
26.6346
27.0259
27.2436
27.3849
27.5134
27.6632
27.8462
29.0984
29.2435
29.3411
29.381
29.3933
29.4055
29.6088
30.27
31.6312
33.5397
34.5844
32.9343
31.116
29.9883
29.5059
29.3915
29.389
29.3756
29.3185
29.2043
29.0497
28.8802
28.7164
28.5664
28.4188
28.2328
27.9293
27.3914
26.4806
25.0563
22.9768
20.1487
16.7087
13.1424
10.1516
8.52549
8.90796
11.1142
14.4036
18.0056
21.2539
23.8022
25.6231
26.8432
27.6036
28.0432
28.2941
28.4602
28.6063
28.7617
28.93
29.9112
30.0235
30.1055
30.162
30.2005
30.2781
30.5124
31.0687
32.104
33.5289
34.3733
33.0888
31.7283
30.8494
30.4143
30.2459
30.1913
30.1494
30.0861
29.9958
29.8747
29.7276
29.5616
29.3789
29.1683
28.8947
28.4879
27.8435
26.8395
25.3488
23.2168
20.2889
16.6614
12.8947
9.70797
7.93514
8.35806
10.7368
14.2243
18.0314
21.4372
24.0564
25.9292
27.2261
28.0874
28.6352
28.986
29.2326
29.432
29.6097
29.7709
30.4673
30.6168
30.7415
30.8474
30.9522
31.0937
31.3394
31.7878
32.5343
33.5336
34.1808
33.2414
32.2812
31.6288
31.2542
31.0501
30.9259
30.8236
30.7135
30.5811
30.4235
30.2396
30.027
29.7773
29.4727
29.0759
28.5237
27.7296
26.5997
25.031
22.859
19.8757
16.1703
12.3559
9.09779
7.23718
7.68891
10.155
13.6961
17.5427
21.0234
23.6965
25.6221
27.0172
28.0178
28.7175
29.2081
29.5684
29.8521
30.0887
30.2917
30.5031
30.7586
30.9925
31.2101
31.4211
31.6454
31.9189
32.2956
32.8291
33.4987
33.964
33.3228
32.6691
32.1823
31.8417
31.5873
31.3695
31.1574
30.9351
30.6944
30.4308
30.1407
29.8197
29.4461
29.0012
28.4464
27.7245
26.7667
25.5088
23.8735
21.6773
18.7068
15.1159
11.4474
8.27295
6.40776
6.8686
9.30814
12.7247
16.4026
19.8174
22.5119
24.4715
25.9558
27.1012
27.9697
28.6275
29.1399
29.5575
29.9118
30.2221
29.4189
29.859
30.2743
30.6704
31.0525
31.4271
31.8061
32.2092
32.6569
33.1339
33.4568
33.0286
32.5446
32.1069
31.7108
31.3329
30.9554
30.5683
30.1657
29.7423
29.2921
28.8093
28.2913
27.7427
27.1243
26.4036
25.5354
24.4646
23.1409
21.4987
19.3576
16.5811
13.3678
10.0737
7.1712
5.41697
5.85729
8.12305
11.2212
14.5202
17.6146
20.1619
22.0854
23.5969
24.8261
25.8204
26.6328
27.3151
27.9083
28.4426
28.9478
26.0944
26.7474
27.3712
27.9749
28.5648
29.1428
29.707
30.2516
30.7645
31.2102
31.4555
31.123
30.6459
30.1174
29.5627
28.9911
28.4072
27.8116
27.2009
26.5675
25.9022
25.1987
24.462
23.7105
22.96
22.1407
21.2368
20.2111
19.002
17.5258
15.6794
13.4034
10.8012
8.11599
5.71405
4.22668
4.60539
6.50689
9.05581
11.7368
14.2387
16.3497
18.044
19.4119
20.5464
21.5227
22.3922
23.1842
23.9307
24.6789
25.4047
19.2011
19.9103
20.5971
21.2673
21.9243
22.5668
23.1882
23.7743
24.2993
24.7122
24.8933
24.6317
24.1765
23.6267
23.0251
22.3937
21.7442
21.0813
20.4047
19.7101
18.991
18.244
17.4779
16.7099
15.9506
15.2351
14.5126
13.7361
12.8627
11.8246
10.5482
9.00912
7.26893
5.46837
3.83532
2.80077
3.06729
4.37736
6.09948
7.89178
9.56595
11.0048
12.1854
13.1552
13.9875
14.7426
15.4535
16.1788
16.9379
17.7045
18.4644
7.7119
8.10418
8.49259
8.87858
9.26149
9.6373
9.99749
10.3282
10.6091
10.8116
10.8878
10.7722
10.5437
10.2448
9.90226
9.53485
9.15496
8.76969
8.38197
7.99156
7.5968
7.19819
6.8028
6.41833
6.04427
5.68297
5.34415
5.02423
4.6949
4.32794
3.89607
3.38205
2.7875
2.14246
1.52574
1.11676
1.22382
1.73353
2.37156
3.0015
3.56649
4.04769
4.45237
4.80165
5.12294
5.44366
5.79192
6.15617
6.53192
6.91878
7.31512
)
;

boundaryField
{
    top
    {
        type            fixedValue;
        value           uniform 0;
    }
    bottom
    {
        type            fixedValue;
        value           uniform 43.8;
    }
    frontAndBack
    {
        type            empty;
    }
    left_cyc
    {
        type            cyclic;
    }
    right_cyc
    {
        type            cyclic;
    }
}


// ************************************************************************* //
