/*--------------------------------*- C++ -*----------------------------------*\
| =========                 |                                                 |
| \\      /  F ield         | OpenFOAM: The Open Source CFD Toolbox           |
|  \\    /   O peration     | Version:  2.3.0                                 |
|   \\  /    A nd           | Web:      www.OpenFOAM.org                      |
|    \\/     M anipulation  |                                                 |
\*---------------------------------------------------------------------------*/
FoamFile
{
    version     2.0;
    format      ascii;
    class       volScalarField;
    location    "12000";
    object      T;
}
// * * * * * * * * * * * * * * * * * * * * * * * * * * * * * * * * * * * * * //

dimensions      [0 0 0 1 0 0 0];

internalField   nonuniform List<scalar> 
3060
(
34.179
34.1901
34.2106
34.2399
34.2776
34.3233
34.3766
34.4371
34.5047
34.5793
34.6611
34.7501
34.8461
34.9471
35.0509
35.1574
35.2664
35.3772
35.4879
35.5961
35.6986
35.7918
35.8716
35.9337
35.9737
35.9879
35.9745
35.9351
35.8735
35.794
35.7009
35.5983
35.4899
35.3788
35.2675
35.1579
35.0507
34.9462
34.8443
34.7478
34.6585
34.5767
34.5022
34.435
34.3751
34.3228
34.2783
34.2421
34.2145
34.1961
34.1874
34.1887
34.2
34.2209
34.2507
34.2892
34.3358
34.3901
34.4519
34.521
34.5974
34.6812
34.7724
34.8707
34.9733
35.0784
35.1863
35.2965
35.4079
35.5187
35.6259
35.7264
35.8163
35.8916
35.9478
35.9806
35.9869
35.9656
35.9194
35.8522
35.7684
35.6724
35.5681
35.4589
35.348
35.2375
35.1292
35.0235
34.9204
34.8202
34.726
34.6388
34.559
34.4862
34.4205
34.3618
34.3106
34.2669
34.2313
34.2043
34.1862
34.1776
29.6724
29.7034
29.7606
29.8425
29.948
30.0759
30.2254
30.3961
30.5876
30.8001
31.0339
31.2896
31.5672
31.8662
32.1781
32.4974
32.8245
33.1568
33.4887
33.8127
34.1196
34.399
34.6391
34.8267
34.9482
34.9918
34.9506
34.831
34.6449
34.4057
34.1265
33.8194
33.4947
33.1616
32.8279
32.499
32.1777
31.8632
31.5628
31.2841
31.0278
30.7938
30.5819
30.3916
30.2229
30.076
29.9515
29.8503
29.7734
29.7221
29.6976
29.7014
29.733
29.7911
29.8745
29.9819
30.1124
30.265
30.4394
30.6354
30.853
31.0928
31.3549
31.6393
31.945
32.2607
32.5841
32.9148
33.2492
33.5809
33.902
34.2029
34.4728
34.6994
34.8693
34.9693
34.9884
34.9234
34.7833
34.5806
34.3289
34.0412
33.7288
33.4019
33.0692
32.7379
32.4128
32.0959
31.7856
31.4921
31.2202
30.9703
30.7421
30.5351
30.3491
30.184
30.0401
29.918
29.8186
29.7431
29.6927
29.6687
25.476
25.5247
25.6141
25.7423
25.9075
26.1083
26.3433
26.6119
26.9138
27.249
27.6181
28.0214
28.4593
28.9309
29.4339
29.9541
30.4901
31.0358
31.5813
32.1135
32.6179
33.0779
33.4743
33.7856
33.9886
34.0619
33.9926
33.793
33.4842
33.0891
32.6296
32.1248
31.5914
31.044
30.4959
29.9572
29.434
28.9278
28.4539
28.0144
27.6103
27.2413
26.907
26.6071
26.3416
26.1107
25.9154
25.7567
25.6363
25.556
25.5177
25.5236
25.5731
25.6641
25.7947
25.9631
26.1679
26.4079
26.6824
26.9913
27.3347
27.7128
28.1262
28.5745
29.0565
29.5682
30.0964
30.6387
31.1879
31.733
32.2605
32.7552
33.1998
33.5744
33.8568
34.0241
34.0562
33.947
33.7134
33.3776
32.9624
32.489
31.9757
31.4386
30.8919
30.3479
29.8157
29.3002
28.804
28.3409
27.912
27.5177
27.1576
26.8311
26.538
26.2782
26.0521
25.8605
25.7049
25.5867
25.5078
25.4702
21.7394
21.8032
21.9205
22.0886
22.3053
22.5686
22.877
23.2293
23.6251
24.0643
24.5473
25.0748
25.647
26.2637
26.9231
27.6154
28.336
29.075
29.817
30.5427
31.2311
31.8591
32.4015
32.829
33.1093
33.2111
33.1151
32.8395
32.4154
31.8749
31.2475
30.5586
29.8313
29.0869
28.3448
27.6207
26.9248
26.2617
25.6423
25.0682
24.5398
24.0569
23.619
23.2259
22.8776
22.5747
22.3184
22.1103
21.9523
21.8469
21.7967
21.8044
21.8694
21.9888
22.1601
22.381
22.6497
22.9646
23.3247
23.7296
24.1792
24.674
25.2143
25.8002
26.4307
27.1033
27.8076
28.5379
29.2825
30.0245
30.7439
31.419
32.0262
32.5392
32.9275
33.1587
33.2032
33.0518
32.7297
32.269
31.7014
31.0551
30.3548
29.6228
28.8797
28.1441
27.4299
26.7451
26.0972
25.4922
24.9317
24.416
23.9445
23.5167
23.1324
22.7915
22.4949
22.2437
22.0395
21.8845
21.7811
21.7318
18.555
18.6317
18.7726
18.9744
19.2344
19.5499
19.9189
20.3398
20.8118
21.3346
21.9087
22.5348
23.2138
23.9457
24.729
25.5601
26.4317
27.3312
28.24
29.1341
29.9851
30.7625
31.4341
31.9643
32.313
32.4402
32.3204
31.9777
31.4517
30.7826
30.0061
29.1545
28.2586
27.3469
26.4438
25.5683
24.7331
23.946
23.2111
22.5301
21.9029
21.3289
20.8077
20.3388
19.9226
19.5601
19.2528
19.003
18.8134
18.6867
18.6263
18.6356
18.7137
18.8572
19.0629
19.3279
19.6499
20.0266
20.4567
20.9393
21.4744
22.0623
22.7035
23.3988
24.1476
24.9478
25.7944
26.6788
27.5862
28.4963
29.3835
30.2184
30.9699
31.6051
32.087
32.3748
32.4303
32.2414
31.841
31.2699
30.5672
29.7675
28.9021
28.0016
27.0931
26.1994
25.3375
24.5186
23.7482
23.0301
22.365
21.7526
21.1921
20.6826
20.224
19.8167
19.4616
19.1605
18.9155
18.7294
18.6051
18.5458
15.9495
16.0373
16.1984
16.429
16.7254
17.0842
17.5026
17.9783
18.5101
19.0975
19.7409
20.4414
21.2003
22.0187
22.8958
23.8327
24.8204
25.8446
26.8846
27.9132
28.8972
29.7989
30.5783
31.1931
31.5973
31.7449
31.6061
31.209
30.5993
29.823
28.9224
27.9379
26.9073
25.8642
24.8361
23.8441
22.903
22.022
21.2004
20.4392
19.7374
19.0941
18.5082
17.9796
17.5089
17.0977
16.7481
16.4633
16.2465
16.1016
16.0324
16.0431
16.1325
16.2966
16.5315
16.8337
17.1997
17.6267
18.1127
18.6564
19.2573
19.9159
20.6333
21.4105
22.2482
23.1452
24.1005
25.1034
26.1377
27.1804
28.2023
29.1685
30.0404
30.7772
31.3356
31.6691
31.7335
31.5143
31.0501
30.3878
29.5723
28.6451
27.6459
26.6113
25.5731
24.5569
23.5818
22.6607
21.798
20.995
20.2515
19.5662
18.9376
18.3648
17.8476
17.3868
16.9838
16.6412
16.3618
16.1491
16.0069
15.939
13.8924
13.9903
14.1697
14.426
14.7543
15.1504
15.6101
16.1304
16.7093
17.3458
18.0403
18.7942
19.6096
20.4888
21.4328
22.445
23.5156
24.6296
25.765
26.8925
27.9755
28.9714
29.8332
30.5117
30.9565
31.1184
30.9664
30.5296
29.8569
28.9987
28.0043
26.9209
25.7914
24.6527
23.5346
22.4595
21.443
20.495
19.6123
18.7942
18.0386
17.3438
16.7086
16.1328
15.6177
15.1654
14.7793
14.4635
14.2226
14.0612
13.9841
13.9959
14.0956
14.2783
14.5393
14.874
15.2778
15.7468
16.2781
16.8695
17.5204
18.231
19.003
19.8382
20.7386
21.7047
22.7374
23.8253
24.951
26.0904
27.2115
28.2759
29.2391
30.0534
30.6691
31.0355
31.1059
30.8653
30.3541
29.6226
28.7208
27.6976
26.599
25.4662
24.3339
23.2295
22.1732
21.1785
20.2513
19.389
18.5899
17.8518
17.1726
16.5513
15.9877
15.4831
15.0398
14.6611
14.3513
14.1148
13.9564
13.8807
12.314
12.4218
12.6193
12.9006
13.2596
13.6903
14.1874
14.7464
15.3641
16.039
16.7712
17.5626
18.416
19.3349
20.3227
21.3833
22.5071
23.679
24.8763
26.0686
27.2169
28.2752
29.1917
29.9121
30.382
30.5521
30.3926
29.9313
29.2174
28.3049
27.2484
26.0999
24.9056
23.7049
22.5288
21.4004
20.3352
19.3433
18.4204
17.5638
16.7701
16.0369
15.3627
14.7476
14.1936
13.7042
13.2839
12.9384
12.6739
12.4962
12.4113
12.4244
12.5341
12.7351
13.0215
13.3871
13.8261
14.3329
14.9032
15.5339
16.2236
16.9726
17.7826
18.6566
19.598
20.6093
21.6919
22.8344
24.0193
25.2215
26.4078
27.5368
28.5606
29.4262
30.0789
30.4653
30.539
30.2859
29.745
28.9678
28.0088
26.922
25.7579
24.5608
23.3674
22.2062
21.0976
20.055
19.0862
18.185
17.3483
16.5728
15.8558
15.1959
14.5934
14.0504
13.5703
13.1578
12.8187
12.5589
12.3845
12.3011
11.1257
11.2442
11.461
11.7689
12.16
12.6264
13.1607
13.7568
14.4099
15.1175
15.8794
16.6975
17.5754
18.5181
19.5309
20.6174
21.7688
22.9705
24.2
25.4261
26.6086
27.6991
28.6433
29.3837
29.8642
30.0368
29.875
29.4035
28.67
27.7303
26.6417
25.4592
24.2311
22.9983
21.7923
20.6361
19.5448
18.5274
17.5801
16.6982
15.8769
15.113
14.4051
13.754
13.1625
12.6358
12.1803
11.8037
11.514
11.3191
11.2258
11.2401
11.3607
11.5812
11.8944
12.2924
12.7673
13.3116
13.9192
14.5855
15.3081
16.0869
16.9238
17.8227
18.7882
19.8254
20.9346
22.1055
23.3209
24.5558
25.7761
26.9389
27.9937
28.8849
29.5547
29.9489
30.0235
29.7661
29.2122
28.4127
27.4245
26.3047
25.1063
23.8757
22.6507
21.4602
20.3244
19.2562
18.2629
17.338
16.4764
15.6735
14.926
14.2325
13.5941
13.0138
12.4967
12.0493
11.6794
11.3948
11.2032
11.1115
10.2369
10.3674
10.606
10.9436
11.3705
11.8762
12.4509
13.086
13.775
14.5142
15.3023
16.1412
17.0351
17.9902
19.0136
20.108
21.266
22.4738
23.7098
24.9427
26.1318
27.228
28.1754
28.916
29.3942
29.5648
29.405
28.9359
28.2023
27.2594
26.1655
24.9764
23.7417
22.5024
21.2902
20.1271
19.0274
17.9988
17.0382
16.1392
15.2959
14.5046
13.764
13.076
12.4448
11.8776
11.3834
10.9721
10.6543
10.4399
10.3372
10.353
10.4856
10.7281
11.0713
11.5054
12.0197
12.6045
13.2512
13.9534
14.7073
15.5121
16.3697
17.2844
18.2623
19.3101
20.4273
21.6049
22.8267
24.0681
25.2951
26.4642
27.524
28.4175
29.0866
29.4782
29.5517
29.2969
28.7448
27.9442
26.952
25.8262
24.621
23.3837
22.1523
20.9557
19.8131
18.7366
17.7321
16.7939
15.9151
15.09
14.3148
13.5886
12.9133
12.2933
11.7359
11.25
10.8456
10.5331
10.3222
10.2213
9.56574
9.71
9.97329
10.345
10.8125
11.3627
11.9828
12.6614
13.3899
14.1625
14.9769
15.8346
16.7401
17.7004
18.724
19.8126
20.9605
22.1554
23.3766
24.5936
25.7662
26.8452
27.7756
28.5001
28.9655
29.1305
28.9758
28.5193
27.8018
26.8761
25.7993
24.6268
23.408
22.1835
20.984
19.8306
18.7361
17.7064
16.7396
15.8276
14.964
14.1449
13.3696
12.641
11.9656
11.3529
10.8146
10.364
10.0142
9.77759
9.66431
9.68166
9.8281
10.0955
10.4729
10.9479
11.5069
12.1371
12.8273
13.5687
14.3556
15.1863
16.0622
16.9879
17.9703
19.0176
20.1285
21.2955
22.5039
23.7303
24.9412
26.0935
27.1361
28.0126
28.6663
29.0468
29.1179
28.871
28.3329
27.5489
26.5738
25.465
24.2762
23.0545
21.8375
20.6532
19.5199
18.4479
17.4417
16.4966
15.6043
14.7583
13.9549
13.1936
12.4776
11.8134
11.2105
10.6808
10.2372
9.89294
9.66004
9.54857
9.04459
9.20421
9.4954
9.90541
10.4189
11.0194
11.6908
12.4187
13.1915
14.0014
14.8447
15.7221
16.6378
17.5995
18.6161
19.6891
20.8144
21.9816
23.1712
24.3541
25.4914
26.5352
27.4323
28.1281
28.5728
28.7296
28.5824
28.1461
27.4571
26.5644
25.5228
24.3857
23.2009
22.0078
20.8357
19.7044
18.6247
17.6009
16.6315
15.7078
14.8229
13.9732
13.159
12.3849
11.6596
10.9954
10.4075
9.91238
9.52655
9.26501
9.1398
9.15895
9.32084
9.61626
10.0323
10.5534
11.1628
11.8444
12.5836
13.369
14.1928
15.0516
15.9463
16.8813
17.8642
18.903
19.9969
21.1404
22.3202
23.5144
24.6908
25.8077
26.8155
27.6598
28.2869
28.65
28.7176
28.4826
27.9678
27.214
26.2729
25.1995
24.0458
22.8577
21.6714
20.5136
19.4012
18.3429
17.3413
16.3925
15.4875
14.6194
13.7847
12.9841
12.2222
11.508
10.8538
10.2745
9.78672
9.40659
9.14894
9.02563
8.62082
8.79728
9.11914
9.57138
10.1356
10.7918
11.5202
12.3029
13.1253
13.9773
14.8534
15.7529
16.6797
17.6415
18.6466
19.6973
20.7914
21.9201
23.0656
24.2006
25.2882
26.283
27.1348
27.7926
28.2111
28.3579
28.2198
27.8091
27.1574
26.3098
25.317
24.2294
23.0924
21.9431
20.8092
19.7084
18.6501
17.6364
16.6656
15.7291
14.8203
13.9362
13.0783
12.2532
11.4723
10.7512
10.1084
9.56422
9.13871
8.8498
8.71153
8.73264
8.91147
9.23772
9.69619
10.2682
10.9335
11.672
12.4659
13.3005
14.1658
15.0564
15.972
16.9169
17.8984
18.9237
19.9937
21.1044
22.2445
23.3936
24.5215
25.5888
26.5485
27.3494
27.9417
28.2833
28.3467
28.1264
27.6413
26.9277
26.0333
25.0093
23.9052
22.7641
21.6206
20.4996
19.4162
18.3775
17.3841
16.4325
15.5135
14.6204
13.7505
12.9055
12.0923
11.3224
10.6112
9.97726
9.44061
9.02102
8.73617
8.5999
8.25545
8.44986
8.80446
9.30188
9.92046
10.6365
11.4263
12.2685
13.1454
14.0441
14.9569
15.8819
16.8218
17.7839
18.7754
19.8
20.8574
21.9406
23.0334
24.1106
25.138
26.0739
26.872
27.4859
27.8747
28.0106
27.8824
27.5004
26.892
26.0975
25.1633
24.1356
23.0562
21.9594
20.8704
19.8056
18.7723
17.7709
16.7981
15.8468
14.9108
13.988
13.0818
12.2011
11.36
10.5774
9.87573
9.27906
8.81115
8.49303
8.34085
8.36406
8.56092
8.92009
9.42394
10.0505
10.7757
11.5757
12.4289
13.3175
14.2287
15.1551
16.0948
17.051
18.0309
19.0404
20.0823
21.1545
22.2476
23.3426
24.4121
25.4195
26.3216
27.0716
27.6239
27.9413
28.0003
27.7961
27.3449
26.6783
25.8394
24.875
23.8307
22.7464
21.6539
20.5762
19.5269
18.511
17.5274
16.5723
15.6369
14.7153
13.8058
12.9119
12.0427
11.2124
10.4398
9.74712
9.15818
8.69641
8.38253
8.23244
7.92056
8.13357
8.52209
9.06629
9.74117
10.5193
11.3732
12.2778
13.2123
14.1612
15.1147
16.0683
17.0238
17.9873
18.965
19.9622
20.9802
22.0146
23.0495
24.062
25.0221
25.8923
26.6314
27.198
27.5564
27.6814
27.5629
27.2104
26.6483
25.9122
25.0431
24.0823
23.0672
22.0279
20.9871
19.9609
18.954
17.965
16.9891
16.0205
15.0538
14.0887
13.1308
12.1912
11.2871
10.4406
9.67789
9.02687
8.51504
8.16666
8.00009
8.02545
8.24101
8.63427
9.18511
9.86814
10.6555
11.5196
12.435
13.3808
14.3415
15.3073
16.2742
17.2442
18.223
19.2164
20.2285
21.2592
22.302
23.3372
24.3413
25.2818
26.1201
26.8143
27.3244
27.6173
27.672
27.484
27.068
26.4522
25.6746
24.7768
23.7995
22.7784
21.7414
20.7104
19.6976
18.7057
17.7322
16.7716
15.817
14.8634
13.9105
12.9643
12.0359
11.1424
10.3059
9.55228
8.9092
8.40374
8.05978
7.89539
7.59655
7.82833
8.25093
8.84192
9.573
10.4131
11.3311
12.2987
13.2919
14.2927
15.2896
16.2747
17.2482
18.2149
19.18
20.1501
21.1277
22.1092
23.0826
24.0282
24.919
25.7223
26.4017
26.9211
27.2491
27.3633
27.2544
26.9311
26.4153
25.7381
24.9353
24.0431
23.0944
22.116
21.1274
20.1408
19.1598
18.182
17.2013
16.2128
15.2132
14.203
13.1917
12.1925
11.2249
10.3145
9.49081
8.78552
8.22974
7.85093
7.6698
7.69735
7.93178
8.35929
8.95711
9.69652
10.546
11.4742
12.4523
13.4564
14.4686
15.4765
16.4732
17.4591
18.4385
19.4168
20.3993
21.3871
22.3746
23.3474
24.2841
25.1562
25.9295
26.5677
27.0356
27.3043
27.3547
27.1828
26.8019
26.2372
25.5217
24.6919
23.7836
22.8283
21.8511
20.8698
19.894
18.9256
17.9608
16.9928
16.0164
15.0279
14.0291
13.029
12.0405
11.0834
10.183
9.3686
8.67146
8.12225
7.74803
7.56918
7.26971
7.52009
7.97586
8.61189
9.3967
10.2959
11.2753
12.3033
13.3533
14.4045
15.4426
16.4592
17.4521
18.4235
19.3785
20.324
21.2636
22.195
23.1089
23.9888
24.8118
25.5495
26.1706
26.6441
26.9426
27.0464
26.9467
26.6517
26.1808
25.561
24.8229
23.9979
23.1141
22.1944
21.2553
20.3058
19.3482
18.3792
17.3921
16.3828
15.35
14.2972
13.2344
12.1776
11.1493
10.1778
9.29595
8.53871
7.94051
7.53196
7.33631
7.36609
7.61922
8.08006
8.7231
9.51641
10.4251
11.4145
12.4529
13.5133
14.5748
15.6231
16.6499
17.6531
18.6349
19.6004
20.5558
21.503
22.4384
23.3505
24.2213
25.0264
25.7364
26.32
26.7471
26.9922
27.0386
26.8823
26.5355
26.0204
25.3656
24.6025
23.7619
22.871
21.9511
21.0169
20.0757
19.1282
18.1698
17.1929
16.1937
15.171
14.1284
13.0759
12.0294
11.0114
10.0499
9.17749
8.42859
7.83717
7.43338
7.24013
6.92967
7.19745
7.68354
8.36009
9.1928
10.1445
11.1784
12.2607
13.3624
14.4605
15.5386
16.5864
17.5995
18.5777
19.5257
20.4508
21.3568
22.2428
23.1018
23.9205
24.6797
25.3555
25.9217
26.3517
26.6223
26.7163
26.6252
26.3569
25.9283
25.3624
24.6853
23.9233
23.1
22.2344
21.3397
20.4228
19.4847
18.5214
17.526
16.4951
15.4299
14.3361
13.2255
12.1165
11.0338
10.0081
9.07458
8.27098
7.63451
7.19866
6.98934
7.02126
7.29185
7.78313
8.46683
9.30814
10.2694
11.3134
12.4058
13.5174
14.6252
15.7125
16.7692
17.7908
18.777
19.7331
20.6655
21.5769
22.4649
23.3209
24.1302
24.8723
25.5228
26.0551
26.4436
26.6667
26.7093
26.5677
26.2532
25.785
25.1874
24.4871
23.7101
22.8791
22.0119
21.1202
20.2092
19.2786
18.3234
17.336
16.3136
15.2571
14.1725
13.0716
11.9726
10.9001
9.8844
8.96042
8.1653
7.53576
7.1048
6.89794
6.56824
6.85074
7.3621
8.07201
8.94388
9.93849
11.0173
12.1448
13.2904
14.4294
15.5436
16.6207
17.6539
18.6405
19.5852
20.4946
21.3729
22.2199
23.0306
23.7944
24.496
25.1156
25.6316
26.022
26.2671
26.3518
26.2687
26.0247
25.6346
25.1178
24.4959
23.7906
23.0212
22.2031
21.3465
20.4564
19.5329
18.5719
17.5669
16.5149
15.4195
14.2889
13.137
11.9838
10.856
9.78572
8.81006
7.96852
7.30051
6.84184
6.62091
6.65467
6.94003
7.45663
8.17376
9.05431
10.0585
11.1473
12.2848
13.4401
14.5882
15.7108
16.7956
17.8357
18.8283
19.7788
20.6932
21.5747
22.4219
23.2285
23.9827
24.6681
25.2645
25.7501
26.1035
26.3064
26.3456
26.2176
25.9327
25.5073
24.9618
24.3186
23.5989
22.8213
22.0002
21.1446
20.2583
19.3401
18.385
17.386
16.3408
15.2531
14.131
12.9882
11.8448
10.727
9.66683
8.70075
7.86778
7.20678
6.75308
6.53466
6.17957
6.47291
7.00243
7.73593
8.63523
9.65994
10.7706
11.9308
13.1092
14.28
15.4234
16.5253
17.5766
18.5723
19.5165
20.4151
21.2718
22.087
22.8572
23.5742
24.2258
24.7964
25.2683
25.6236
25.8459
25.9225
25.8463
25.6238
25.2676
24.7938
24.22
23.5636
22.8402
22.0616
21.2359
20.3665
19.453
18.4916
17.4768
16.4059
15.2854
14.1254
12.9416
11.7557
10.5953
9.49364
8.48847
7.62035
6.92998
6.45486
6.22534
6.26048
6.55668
7.09145
7.83218
8.74017
9.77449
10.8951
12.0652
13.2531
14.4326
15.5837
16.6923
17.7492
18.7491
19.6973
20.599
21.4569
22.2708
23.0358
23.7429
24.3792
24.9285
25.3731
25.6956
25.8807
25.917
25.8011
25.5424
25.1548
24.6552
24.0616
23.3914
22.6593
21.8766
21.0502
20.1826
19.2724
18.3151
17.3045
16.2393
15.1255
13.9734
12.7985
11.6222
10.4718
9.38016
8.38458
7.52506
6.84173
6.37158
6.1446
5.75954
6.05869
6.59736
7.34214
8.25415
9.29278
10.4186
11.5953
12.7916
13.981
15.1429
16.2616
17.3263
18.3293
19.2743
20.1657
21.0064
21.7969
22.5345
23.2131
23.8232
24.3525
24.7871
25.1125
25.3155
25.3849
25.3145
25.1103
24.7828
24.3451
23.8115
23.1957
22.5097
21.7629
20.9611
20.107
19.2
18.2373
17.2147
16.1304
14.993
13.8148
12.6128
11.4095
10.233
9.11658
8.09787
7.21744
6.51632
6.03282
5.79863
5.83456
6.13653
6.6804
7.43233
8.35297
9.40113
10.5368
11.7234
12.9289
14.1268
15.296
16.4207
17.4899
18.4959
19.4434
20.3362
21.1766
21.9644
22.6959
23.3645
23.96
24.4698
24.8799
25.1762
25.3462
25.38
25.2746
25.0383
24.6828
24.2219
23.67
23.0408
22.3458
21.5938
20.7899
19.9359
19.0306
18.0705
17.0508
15.9713
14.8401
13.6693
12.476
11.2822
10.1157
9.00922
8.00004
7.12814
6.434
5.95545
5.72378
5.30531
5.60421
6.14123
6.88257
7.78967
8.82267
9.9432
11.1161
12.3107
13.5011
14.6661
15.7894
16.8584
17.8636
18.8075
19.6927
20.5208
21.292
22.0039
22.6519
23.2286
23.7244
24.1284
24.4292
24.616
24.6795
24.6139
24.4245
24.1205
23.7123
23.2112
22.6279
21.9717
21.2498
20.4667
19.6247
18.7236
17.7619
16.7372
15.649
14.5077
13.327
12.1249
10.924
9.75193
8.64106
7.62803
6.75236
6.05435
5.57217
5.33806
5.37405
5.67569
6.21777
6.96611
7.88165
8.92403
10.0543
11.237
12.4407
13.6393
14.8113
15.9401
17.013
18.0205
18.9659
19.8513
20.6779
21.4452
22.1505
22.7883
23.351
23.8288
24.2107
24.4856
24.6432
24.6751
24.5785
24.3607
24.0317
23.6024
23.0843
22.488
21.8225
21.0946
20.3083
19.4651
18.5645
17.6043
16.5818
15.4977
14.3623
13.1889
11.9954
10.8039
9.64162
8.54063
7.53698
6.66966
5.97848
5.50113
5.26948
4.81502
5.10671
5.62972
6.35082
7.23273
8.23745
9.32866
10.4732
11.6421
12.8106
13.9581
15.068
16.1269
17.1241
18.0603
18.9358
19.7509
20.5047
21.1951
21.8179
22.3673
22.8359
23.2152
23.496
23.6697
23.7283
23.6664
23.4891
23.2039
22.8196
22.3447
21.7878
21.1561
20.4552
19.6891
18.86
17.9686
17.015
15.9991
14.922
13.7952
12.6334
11.4543
10.2801
9.137
8.05564
7.07057
6.21924
5.5402
5.07046
4.84189
4.87708
5.17139
5.69924
6.42705
7.3171
8.3309
9.43162
10.5857
11.7635
12.9401
14.0944
15.2094
16.2716
17.2712
18.2084
19.0835
19.8962
20.6455
21.3287
21.9414
22.4775
22.9294
23.2886
23.5462
23.6939
23.7243
23.6348
23.4322
23.1246
22.721
22.2303
21.6609
21.0198
20.3124
19.5422
18.7111
17.8193
16.8667
15.8527
14.7795
13.6585
12.5038
11.3332
10.1683
9.03482
7.96306
6.98707
6.14379
5.47131
5.00619
4.77997
4.28769
4.5645
5.05993
5.74229
6.57664
7.52777
8.56237
9.65021
10.7648
11.8833
12.9868
14.0591
15.087
16.0594
16.9747
17.8309
18.6266
19.3597
20.0275
20.6263
21.1512
21.5961
21.9541
22.218
22.3805
22.4349
22.3762
22.209
21.9399
21.576
21.1242
20.5913
19.9831
19.3045
18.5591
17.7496
16.8781
15.9464
14.9567
13.9122
12.8247
11.7086
10.581
9.4622
8.37643
7.35161
6.41931
5.61395
4.97132
4.52621
4.3092
4.34267
4.62191
5.12187
5.81052
6.65253
7.61226
8.65593
9.75287
10.8761
12.0026
13.1127
14.19
15.2211
16.1961
17.1124
17.9679
18.7608
19.489
20.1496
20.7385
21.2508
21.6802
22.0199
22.2629
22.4022
22.4314
22.3479
22.1581
21.8688
21.4872
21.0207
20.4758
19.8583
19.173
18.4231
17.6112
16.739
15.8081
14.8205
13.7799
12.6982
11.5893
10.4699
9.3601
8.2836
7.26794
6.34423
5.54644
4.90995
4.46916
4.25436
3.72311
3.97692
4.43048
5.0546
5.81762
6.68806
7.63639
8.63606
9.66382
10.6997
11.7269
12.731
13.6999
14.623
15.4964
16.3157
17.0777
17.7792
18.4168
18.9866
19.484
19.904
20.2405
20.4878
20.6397
20.6901
20.6345
20.4773
20.2243
19.8812
19.454
18.9482
18.369
17.7208
17.0074
16.2324
15.399
14.5108
13.5724
12.5891
11.572
10.5342
9.49079
8.45996
7.4628
6.52383
5.67084
4.93436
4.34652
3.93892
3.73985
3.77059
4.02661
4.48427
5.1141
5.88411
6.76244
7.71917
8.72735
9.76333
10.8068
11.8405
12.8498
13.8221
14.7482
15.6227
16.4413
17.2005
17.8971
18.5277
19.0881
19.5738
19.9795
20.2995
20.528
20.659
20.6869
20.6093
20.4318
20.1604
19.8014
19.3605
18.8435
18.2554
17.6007
16.8829
16.1054
15.2713
14.3842
13.4483
12.4693
11.4579
10.4271
9.39161
8.36923
7.38072
6.45021
5.60508
4.87551
4.29324
3.88956
3.69248
3.12179
3.34442
3.7417
4.2879
4.95552
5.71755
6.54894
7.42735
8.33341
9.2506
10.1649
11.0647
11.9397
12.7814
13.5833
14.3392
15.0443
15.6944
16.2854
16.8131
17.2732
17.6608
17.9708
18.1981
18.3375
18.3835
18.332
18.1869
17.9536
17.6369
17.2421
16.7739
16.2371
15.6362
14.9753
14.2585
13.4902
12.6756
11.8214
10.9345
10.0243
9.10138
8.17841
7.27029
6.39455
5.57166
4.82505
4.18068
3.66617
3.30907
3.13439
3.1614
3.38593
3.78676
4.33793
5.01166
5.78062
6.61945
7.50549
8.41903
9.34325
10.2639
11.1688
12.0477
12.8928
13.696
14.4514
15.154
15.7997
16.3842
16.9035
17.3529
17.7277
18.0229
18.2336
18.3546
18.3807
18.3096
18.1467
17.8971
17.5662
17.1591
16.6807
16.1359
15.5289
14.864
14.145
13.3765
12.5633
11.7122
10.8298
9.92521
9.00892
8.09322
7.19273
6.32469
5.50928
4.76956
4.13121
3.62154
3.26783
3.09487
2.48493
2.66853
2.99573
3.44516
3.99428
4.62117
5.30575
6.0303
6.77966
7.54109
8.30404
9.05986
9.80153
10.5234
11.2167
11.8743
12.4903
13.0601
13.5793
14.0435
14.4483
14.7892
15.0619
15.2616
15.384
15.4242
15.3786
15.2507
15.0452
14.7664
14.4187
14.0066
13.5344
13.0066
12.4275
11.8016
11.1339
10.4306
9.69927
8.94867
8.18491
7.41556
6.64991
5.89927
5.17722
4.49982
3.88568
3.35568
2.93227
2.63809
2.49399
2.51629
2.70144
3.03153
3.48502
4.03914
4.67175
5.36251
6.09346
6.84919
7.61676
8.3854
9.14629
9.89226
10.6175
11.3124
11.9698
12.5839
13.1501
13.6637
14.1206
14.5162
14.8463
15.1063
15.2919
15.3986
15.4218
15.3595
15.2164
14.9971
14.706
14.3478
13.927
13.4479
12.915
12.3326
11.7051
11.0376
10.3361
9.60844
8.86234
8.10381
7.34029
6.58088
5.83669
5.12106
4.44983
3.84135
3.31628
2.89681
2.6054
2.4627
1.81429
1.95179
2.19652
2.53231
2.94226
3.41008
3.92102
4.46221
5.02283
5.59401
6.16874
6.74171
7.30928
7.8697
8.41277
8.93123
9.41956
9.87314
10.2877
10.6594
10.984
11.2578
11.4769
11.6375
11.7358
11.7681
11.7312
11.6282
11.4627
11.2385
10.9592
10.6286
10.2506
9.82918
9.36843
8.87268
8.34676
7.79659
7.23007
6.65645
6.07806
5.49895
4.92491
4.36354
3.82433
3.3188
2.86048
2.46477
2.14836
1.92828
1.82033
1.83705
1.9757
2.22257
2.56136
2.97501
3.44709
3.96264
4.50865
5.07415
5.65016
6.22955
6.80701
7.37893
7.94237
8.48701
9.00564
9.49271
9.94358
10.354
10.72
11.0375
11.3027
11.5119
11.6613
11.7473
11.7662
11.7162
11.6011
11.4248
11.191
10.9035
10.5661
10.1827
9.7575
9.29437
8.79768
8.27227
7.72414
7.16145
6.59189
6.01784
5.44333
4.87408
4.31758
3.78319
3.28225
2.82813
2.43606
2.12257
1.90453
1.79762
1.11196
1.19751
1.34958
1.55794
1.81196
2.10148
2.41734
2.7517
3.09804
3.45123
3.80749
4.16448
4.52162
4.88068
5.23202
5.56974
5.88958
6.18802
6.46188
6.70813
6.92382
7.10609
7.25214
7.35929
7.42493
7.44645
7.42174
7.35288
7.2424
7.09286
6.9069
6.68728
6.43687
6.15863
5.85563
5.53117
5.18892
4.83346
4.47134
4.11094
3.75088
3.39208
3.0372
2.69041
2.35726
2.04469
1.761
1.51575
1.31937
1.18259
1.11542
1.12583
1.21208
1.36545
1.57564
1.83193
2.12404
2.44273
2.78005
3.12943
3.48569
3.84504
4.20526
4.56599
4.92735
5.27997
5.61802
5.93723
6.23406
6.50531
6.74793
6.959
7.13567
7.27521
7.37501
7.43253
7.4452
7.41182
7.33503
7.21741
7.06158
6.87025
6.64624
6.39244
6.11182
5.80745
5.4826
5.14098
4.7873
4.42852
4.07112
3.71396
3.35809
3.00618
2.66239
2.33218
2.02241
1.74128
1.49824
1.30365
1.16812
1.10158
0.380035
0.409366
0.461417
0.532578
0.619103
0.717421
0.82434
0.937143
1.05363
1.17211
1.29147
1.41132
1.5325
1.6584
1.78306
1.90374
2.01872
2.12656
2.22597
2.31572
2.3946
2.46144
2.5151
2.55453
2.5787
2.58663
2.57752
2.55216
2.51151
2.45657
2.38839
2.30811
2.21688
2.11592
2.0065
1.88994
1.76775
1.64182
1.51531
1.39325
1.27242
1.15219
1.0331
0.91641
0.803953
0.698091
0.601701
0.518121
0.451027
0.404197
0.381163
0.384736
0.4143
0.466785
0.538555
0.625827
0.724998
0.83284
0.946609
1.06408
1.18357
1.304
1.4251
1.54805
1.67495
1.80018
1.92108
2.03591
2.14325
2.24178
2.33025
2.40748
2.47229
2.52358
2.56031
2.5815
2.58617
2.57388
2.5456
2.50233
2.4451
2.37499
2.29314
2.20073
2.09898
1.98914
1.87254
1.75069
1.6256
1.50087
1.37999
1.26017
1.1409
1.02278
0.907054
0.795551
0.690602
0.595054
0.512209
0.445707
0.399294
0.376472
)
;

boundaryField
{
    top
    {
        type            fixedValue;
        value           uniform 0;
    }
    bottom
    {
        type            fixedValue;
        value           uniform 36.5;
    }
    frontAndBack
    {
        type            empty;
    }
    left_cyc
    {
        type            cyclic;
    }
    right_cyc
    {
        type            cyclic;
    }
}


// ************************************************************************* //
