/*--------------------------------*- C++ -*----------------------------------*\
| =========                 |                                                 |
| \\      /  F ield         | OpenFOAM: The Open Source CFD Toolbox           |
|  \\    /   O peration     | Version:  2.3.0                                 |
|   \\  /    A nd           | Web:      www.OpenFOAM.org                      |
|    \\/     M anipulation  |                                                 |
\*---------------------------------------------------------------------------*/
FoamFile
{
    version     2.0;
    format      ascii;
    class       volVectorField;
    location    "12000";
    object      U;
}
// * * * * * * * * * * * * * * * * * * * * * * * * * * * * * * * * * * * * * //

dimensions      [0 1 -1 0 0 0 0];

internalField   nonuniform List<vector> 
765
(
(46.1692 0 0.562042)
(46.2879 0 -0.0198819)
(47.6797 0 -0.794953)
(50.5249 0 -1.65704)
(54.5969 0 -2.31893)
(58.9 0 -2.28405)
(61.3793 0 -0.947094)
(58.9597 0 2.01941)
(48.106 0 6.46968)
(26.0967 0 11.272)
(-5.29693 0 13.3135)
(-34.6723 0 9.83123)
(-52.8834 0 4.90736)
(-60.6434 0 0.868036)
(-61.0782 0 -1.54458)
(-57.6989 0 -2.42111)
(-53.2673 0 -2.16429)
(-49.5129 0 -1.38673)
(-47.1331 0 -0.526229)
(-46.1838 0 0.193517)
(-46.4123 0 0.714472)
(-47.4825 0 1.07001)
(-49.1148 0 1.35199)
(-51.1617 0 1.64597)
(-53.5808 0 2.03227)
(-56.4196 0 2.6018)
(-59.8172 0 3.46667)
(-63.9977 0 4.71587)
(-69.1207 0 6.24009)
(-75.0051 0 7.28894)
(-79.7225 0 5.65795)
(-78.1789 0 -0.565067)
(-67.972 0 -9.4259)
(-51.0762 0 -18.3277)
(-29.3482 0 -24.5782)
(-7.17313 0 -25.7085)
(15.0573 0 -25.5448)
(37.2022 0 -23.0128)
(57.849 0 -15.2098)
(72.5208 0 -6.18791)
(79.778 0 2.27017)
(78.2857 0 6.73463)
(72.7665 0 7.0313)
(67.1168 0 5.65238)
(62.3673 0 4.1997)
(58.5117 0 3.10255)
(55.3434 0 2.36343)
(52.6676 0 1.8748)
(50.3807 0 1.53343)
(48.4659 0 1.25597)
(46.9974 0 0.96185)
(81.2263 0 0.100724)
(82.914 0 -1.61492)
(85.7007 0 -3.66507)
(89.5129 0 -5.59161)
(93.795 0 -6.4803)
(97.2076 0 -4.91422)
(97.354 0 0.740797)
(90.557 0 11.7466)
(72.3463 0 27.8417)
(38.9534 0 45.0559)
(-7.91994 0 52.1637)
(-51.7708 0 39.9375)
(-79.9299 0 22.2222)
(-93.9711 0 7.55245)
(-98.0178 0 -1.66358)
(-96.4266 0 -5.84492)
(-92.5038 0 -6.41851)
(-88.2573 0 -5.04513)
(-84.7359 0 -2.99249)
(-82.3052 0 -1.01217)
(-80.9362 0 0.557551)
(-80.4076 0 1.64567)
(-80.4166 0 2.36187)
(-80.6393 0 2.84969)
(-80.7673 0 3.22722)
(-80.4834 0 3.57984)
(-79.431 0 3.95746)
(-77.1857 0 4.28706)
(-73.2032 0 4.14622)
(-67.0326 0 2.25912)
(-57.8982 0 -4.0834)
(-45.7096 0 -14.9638)
(-32.4151 0 -22.2095)
(-21.151 0 -24.2772)
(-12.0761 0 -25.9805)
(-3.07266 0 -26.8603)
(6.1239 0 -26.6799)
(15.1139 0 -25.4545)
(24.6334 0 -23.7544)
(37.0382 0 -20.7754)
(50.3698 0 -10.65)
(61.5562 0 -1.10644)
(69.5754 0 3.24385)
(74.9041 0 4.26835)
(78.1924 0 4.16623)
(79.9458 0 3.80868)
(80.6678 0 3.45036)
(80.754 0 3.10268)
(80.5433 0 2.70283)
(80.3432 0 2.15808)
(80.4642 0 1.33894)
(85.5288 0 -1.92126)
(87.9435 0 -4.40863)
(90.7972 0 -7.16665)
(93.85 0 -9.38762)
(96.5052 0 -9.58482)
(97.6222 0 -5.51268)
(95.2989 0 5.54537)
(86.7165 0 25.9639)
(68.2414 0 55.6474)
(36.5099 0 87.5944)
(-7.40542 0 100.586)
(-48.5279 0 78.0989)
(-75.6506 0 45.2482)
(-90.511 0 18.2135)
(-96.6551 0 0.960913)
(-97.5804 0 -7.53179)
(-95.7956 0 -9.91163)
(-92.9109 0 -8.83026)
(-89.8705 0 -6.29823)
(-87.1368 0 -3.56188)
(-84.8653 0 -1.2489)
(-83.0287 0 0.407191)
(-81.4664 0 1.38938)
(-79.9069 0 1.77726)
(-77.9925 0 1.64348)
(-75.2851 0 1.02075)
(-71.2683 0 -0.085861)
(-65.3955 0 -1.70737)
(-57.2999 0 -4.0027)
(-47.3302 0 -7.50754)
(-36.1155 0 -13.4856)
(-28.5648 0 -22.3432)
(-22.5871 0 -29.4278)
(-16.23 0 -33.1953)
(-9.35191 0 -35.0953)
(-2.35508 0 -35.8876)
(4.69671 0 -35.7352)
(11.6768 0 -34.6083)
(18.4064 0 -32.211)
(24.591 0 -27.4616)
(30.5242 0 -18.9958)
(40.1744 0 -11.0489)
(51.1668 0 -6.10764)
(60.5354 0 -3.10804)
(67.803 0 -1.06632)
(72.9273 0 0.37642)
(76.3908 0 1.31669)
(78.7392 0 1.77168)
(80.4609 0 1.73214)
(81.964 0 1.15477)
(83.5756 0 -0.0424818)
(76.5846 0 -4.17222)
(78.5653 0 -6.81492)
(80.4199 0 -9.53239)
(81.8473 0 -11.288)
(82.3337 0 -10.2565)
(81.0546 0 -3.70078)
(76.7694 0 11.7586)
(67.7847 0 39.1914)
(51.9503 0 78.7942)
(27.2646 0 121.512)
(-5.44205 0 138.704)
(-36.312 0 108.833)
(-57.9716 0 64.9096)
(-71.3593 0 28.8278)
(-78.6019 0 5.4725)
(-81.7592 0 -6.70116)
(-82.3597 0 -11.0922)
(-81.4956 0 -10.9496)
(-79.8816 0 -8.71713)
(-77.9549 0 -5.93879)
(-75.9632 0 -3.44671)
(-74.0122 0 -1.61913)
(-72.0932 0 -0.600408)
(-70.074 0 -0.434402)
(-67.6951 0 -1.16287)
(-64.5738 0 -2.84674)
(-60.2242 0 -5.52357)
(-54.1367 0 -9.10865)
(-46.0287 0 -13.3173)
(-36.5207 0 -17.7381)
(-26.3041 0 -22.3901)
(-20.4117 0 -28.2833)
(-16.2322 0 -34.3447)
(-11.8846 0 -38.3124)
(-6.99755 0 -40.8025)
(-1.78399 0 -41.9574)
(3.531 0 -41.7192)
(8.64629 0 -40.1022)
(13.3381 0 -37.1573)
(17.5303 0 -32.5345)
(21.8435 0 -26.2022)
(29.9195 0 -20.751)
(40.0675 0 -16.208)
(49.1938 0 -11.7716)
(56.5638 0 -7.71376)
(61.9564 0 -4.41999)
(65.7888 0 -2.0926)
(68.5769 0 -0.753449)
(70.7738 0 -0.344274)
(72.7183 0 -0.806277)
(74.626 0 -2.10261)
(60.9523 0 -5.78337)
(61.8077 0 -8.16244)
(62.15 0 -10.3716)
(61.7104 0 -11.2455)
(60.1315 0 -8.78639)
(56.9374 0 -0.0187639)
(51.5242 0 18.7132)
(43.2482 0 50.7059)
(31.4213 0 96.1544)
(15.7132 0 144.707)
(-2.98374 0 163.973)
(-21.0524 0 130.396)
(-35.5765 0 80.3101)
(-46.2376 0 38.7368)
(-53.5475 0 11.2565)
(-58.2019 0 -3.82085)
(-60.8292 0 -10.1502)
(-61.9992 0 -11.2428)
(-62.1511 0 -9.75898)
(-61.614 0 -7.39912)
(-60.6333 0 -5.11717)
(-59.3782 0 -3.39908)
(-57.9383 0 -2.49653)
(-56.3069 0 -2.57809)
(-54.3573 0 -3.81713)
(-51.8279 0 -6.40304)
(-48.3348 0 -10.4554)
(-43.4367 0 -15.811)
(-36.8121 0 -21.7561)
(-28.9397 0 -26.8946)
(-20.3056 0 -29.8698)
(-14.3187 0 -32.9519)
(-11.0653 0 -38.1938)
(-8.02998 0 -42.3061)
(-4.72577 0 -45.0836)
(-1.21411 0 -46.3955)
(2.37578 0 -46.1194)
(5.8217 0 -44.2863)
(9.0085 0 -41.0284)
(12.0753 0 -36.427)
(15.6518 0 -31.8633)
(23.3797 0 -29.2068)
(31.7521 0 -25.3275)
(39.3285 0 -19.6365)
(45.3235 0 -13.7427)
(49.6676 0 -8.7924)
(52.7626 0 -5.26215)
(55.0414 0 -3.17491)
(56.8495 0 -2.36479)
(58.4005 0 -2.64255)
(59.7773 0 -3.84187)
(40.254 0 -6.2355)
(39.8089 0 -8.05446)
(38.662 0 -9.49121)
(36.6448 0 -9.34714)
(33.5932 0 -5.59105)
(29.3664 0 4.77427)
(23.9197 0 25.3627)
(17.4331 0 59.3296)
(10.4437 0 106.527)
(4.16745 0 155.97)
(-0.551433 0 175.255)
(-5.74377 0 141.584)
(-12.5303 0 90.2552)
(-19.5335 0 46.7826)
(-25.7771 0 17.3273)
(-30.878 0 0.452392)
(-34.7354 0 -7.39317)
(-37.4438 0 -9.69837)
(-39.164 0 -9.15397)
(-40.0664 0 -7.49553)
(-40.3204 0 -5.7144)
(-40.0841 0 -4.34474)
(-39.4905 0 -3.70382)
(-38.6222 0 -4.05364)
(-37.4782 0 -5.68849)
(-35.9415 0 -8.93158)
(-33.7676 0 -14.0089)
(-30.6197 0 -20.7527)
(-26.1708 0 -28.1905)
(-20.5937 0 -34.3361)
(-14.2156 0 -36.8546)
(-8.73769 0 -37.4351)
(-6.5277 0 -40.9441)
(-4.66416 0 -44.7613)
(-2.75752 0 -47.6835)
(-0.717422 0 -49.1339)
(1.37652 0 -48.8229)
(3.37735 0 -46.8191)
(5.21076 0 -43.5288)
(7.256 0 -39.5422)
(10.242 0 -37.2463)
(16.5972 0 -36.634)
(22.5628 0 -32.5275)
(27.812 0 -25.5642)
(31.7681 0 -18.1613)
(34.5348 0 -11.938)
(36.4556 0 -7.52036)
(37.8392 0 -4.88316)
(38.8859 0 -3.73817)
(39.6697 0 -3.7644)
(40.1598 0 -4.68447)
(15.9112 0 -5.46354)
(14.378 0 -6.60776)
(12.143 0 -7.25263)
(9.15472 0 -6.22982)
(5.42235 0 -1.56348)
(1.092 0 9.60493)
(-3.42239 0 30.6279)
(-7.29564 0 64.2275)
(-8.96697 0 109.618)
(-6.14482 0 155.791)
(1.56611 0 173.497)
(8.02042 0 142.618)
(9.00443 0 94.2318)
(6.29934 0 52.0035)
(2.02044 0 22.5681)
(-2.54373 0 5.08361)
(-6.7318 0 -3.64007)
(-10.2407 0 -6.86435)
(-12.9897 0 -7.1786)
(-14.9956 0 -6.27772)
(-16.3251 0 -5.12902)
(-17.0792 0 -4.25538)
(-17.3836 0 -3.98312)
(-17.365 0 -4.61593)
(-17.1114 0 -6.52842)
(-16.629 0 -10.1559)
(-15.8188 0 -15.8393)
(-14.4905 0 -23.4682)
(-12.4209 0 -31.9625)
(-9.64445 0 -39.0007)
(-6.20997 0 -41.6924)
(-3.16787 0 -40.4752)
(-2.31642 0 -42.5324)
(-1.67688 0 -46.014)
(-1.04083 0 -48.987)
(-0.282476 0 -50.5274)
(0.516408 0 -50.1924)
(1.23752 0 -48.0828)
(1.8155 0 -44.8775)
(2.60521 0 -41.7201)
(4.20657 0 -41.0332)
(7.59801 0 -41.4377)
(10.5978 0 -36.8431)
(13.1096 0 -28.928)
(14.8846 0 -20.5314)
(16.0171 0 -13.5336)
(16.7139 0 -8.60302)
(17.1297 0 -5.63293)
(17.3246 0 -4.21973)
(17.2605 0 -3.94109)
(16.8325 0 -4.4533)
(-9.69602 0 -3.79031)
(-11.883 0 -4.29817)
(-14.6867 0 -4.2794)
(-18.0666 0 -2.63218)
(-21.8612 0 2.47712)
(-25.6537 0 13.6254)
(-28.6219 0 33.7533)
(-29.3288 0 64.9019)
(-25.5081 0 105.568)
(-14.5459 0 145.518)
(3.20786 0 160.65)
(19.3078 0 134.403)
(27.5952 0 92.0861)
(29.572 0 53.7782)
(27.8567 0 26.1742)
(24.4625 0 9.2134)
(20.5844 0 0.304858)
(16.8819 0 -3.44802)
(13.6679 0 -4.41123)
(11.0535 0 -4.17114)
(9.05257 0 -3.63876)
(7.61742 0 -3.29163)
(6.64565 0 -3.42202)
(5.99561 0 -4.32958)
(5.52708 0 -6.42773)
(5.14309 0 -10.2244)
(4.79806 0 -16.1404)
(4.48395 0 -24.1162)
(4.1918 0 -33.0399)
(3.79371 0 -40.4702)
(3.65919 0 -43.3097)
(2.74898 0 -41.1582)
(1.87783 0 -42.5743)
(1.1409 0 -46.0086)
(0.559772 0 -49.0816)
(0.120969 0 -50.702)
(-0.276568 0 -50.3453)
(-0.766482 0 -48.128)
(-1.42009 0 -44.8674)
(-2.14693 0 -42.053)
(-3.31818 0 -42.1101)
(-3.82355 0 -42.8993)
(-4.17931 0 -38.0873)
(-4.52943 0 -29.8188)
(-4.80035 0 -21.0511)
(-5.091 0 -13.7648)
(-5.41215 0 -8.6351)
(-5.78812 0 -5.49765)
(-6.28076 0 -3.87272)
(-7.00251 0 -3.27654)
(-8.09736 0 -3.34142)
(-33.7928 0 -1.68499)
(-36.188 0 -1.61823)
(-39.1437 0 -1.06248)
(-42.5364 0 0.955955)
(-46.0287 0 6.03793)
(-48.9204 0 16.3674)
(-49.9854 0 34.3013)
(-47.299 0 61.1475)
(-38.3172 0 94.993)
(-20.7378 0 127.119)
(4.31825 0 139.21)
(27.648 0 118.444)
(42.197 0 84.0554)
(48.7962 0 51.7601)
(49.9638 0 27.6765)
(48.104 0 12.3617)
(44.8956 0 3.95495)
(41.3664 0 0.0620201)
(38.0795 0 -1.34642)
(35.2864 0 -1.6658)
(33.0653 0 -1.70128)
(31.3939 0 -1.85866)
(30.1699 0 -2.37031)
(29.2233 0 -3.50237)
(28.3618 0 -5.6765)
(27.4096 0 -9.42599)
(26.1802 0 -15.1778)
(24.4487 0 -22.8547)
(21.9212 0 -31.3258)
(18.2822 0 -38.2596)
(14.3063 0 -40.8075)
(8.74311 0 -38.8294)
(6.15698 0 -40.7264)
(4.02246 0 -44.6825)
(2.20894 0 -47.9891)
(0.532896 0 -49.6915)
(-1.10784 0 -49.3167)
(-2.84249 0 -46.9753)
(-4.73237 0 -43.3879)
(-7.0191 0 -39.7817)
(-11.3733 0 -39.6198)
(-16.262 0 -40.5094)
(-20.0796 0 -36.0953)
(-23.2445 0 -28.3368)
(-25.3801 0 -19.9655)
(-26.852 0 -12.9214)
(-27.9164 0 -7.90527)
(-28.7843 0 -4.7663)
(-29.6286 0 -3.01184)
(-30.6259 0 -2.13428)
(-31.9641 0 -1.76965)
(-53.658 0 0.436273)
(-55.9267 0 1.05872)
(-58.7241 0 2.07319)
(-61.8389 0 4.25277)
(-64.7686 0 8.8587)
(-66.5629 0 17.5845)
(-65.6647 0 32.1445)
(-59.8864 0 53.2734)
(-46.7488 0 79.1003)
(-24.5805 0 102.901)
(4.8952 0 111.856)
(32.7852 0 96.6861)
(51.95 0 70.9793)
(62.4569 0 46.0471)
(66.3713 0 26.8743)
(66.1743 0 14.2777)
(63.8617 0 7.04169)
(60.7797 0 3.36945)
(57.7163 0 1.67449)
(55.0636 0 0.848366)
(52.9667 0 0.254733)
(51.4239 0 -0.402122)
(50.3176 0 -1.26212)
(49.4193 0 -2.52963)
(48.4556 0 -4.61478)
(47.1622 0 -8.03696)
(45.22 0 -13.1568)
(42.2356 0 -19.8169)
(37.7179 0 -26.8797)
(31.2854 0 -32.3485)
(23.7829 0 -34.1586)
(14.2635 0 -33.6611)
(10.5637 0 -37.3552)
(7.2302 0 -42.0933)
(4.07782 0 -45.6356)
(0.992626 0 -47.3786)
(-2.09879 0 -46.9931)
(-5.23247 0 -44.5614)
(-8.40791 0 -40.4724)
(-11.9957 0 -35.0952)
(-17.626 0 -33.6187)
(-26.9365 0 -34.0912)
(-34.0026 0 -30.784)
(-39.7561 0 -24.5154)
(-43.6247 0 -17.3995)
(-46.1604 0 -11.2131)
(-47.8023 0 -6.69848)
(-48.927 0 -3.78869)
(-49.8208 0 -2.04072)
(-50.7426 0 -0.950957)
(-51.9564 0 -0.178053)
(-66.4741 0 2.30612)
(-68.3713 0 3.46885)
(-70.7038 0 4.87561)
(-73.2163 0 7.03846)
(-75.3245 0 10.8152)
(-75.951 0 17.3451)
(-73.4083 0 27.7394)
(-65.4912 0 42.3831)
(-49.9801 0 59.8524)
(-25.8266 0 75.6187)
(4.93289 0 81.5998)
(34.3569 0 71.6454)
(55.8019 0 54.5105)
(68.7247 0 37.4886)
(74.6723 0 24.0622)
(75.9762 0 14.9429)
(74.7121 0 9.39812)
(72.3719 0 6.24064)
(69.8603 0 4.39387)
(67.6395 0 3.10465)
(65.8912 0 1.9603)
(64.6365 0 0.812325)
(63.7631 0 -0.344004)
(62.9952 0 -1.60834)
(61.9877 0 -3.38041)
(60.3994 0 -6.16061)
(57.8053 0 -10.237)
(53.7226 0 -15.4396)
(47.6203 0 -20.6973)
(39.2846 0 -24.3323)
(29.0869 0 -24.9865)
(20.0111 0 -25.9452)
(15.496 0 -32.8958)
(11.0511 0 -38.2484)
(6.33218 0 -41.8069)
(1.54381 0 -43.492)
(-3.30653 0 -43.1131)
(-8.08048 0 -40.7258)
(-12.7506 0 -36.4373)
(-17.1432 0 -30.2325)
(-21.8581 0 -25.3468)
(-32.9143 0 -24.9813)
(-42.4395 0 -23.2746)
(-50.1051 0 -18.9788)
(-55.437 0 -13.5809)
(-58.9499 0 -8.72188)
(-61.1304 0 -5.1027)
(-62.4713 0 -2.70981)
(-63.3543 0 -1.16777)
(-64.1123 0 0.0220126)
(-65.0765 0 1.16797)
(-69.3465 0 3.5948)
(-70.6249 0 5.12416)
(-72.0832 0 6.70371)
(-73.5181 0 8.5946)
(-74.4281 0 11.2507)
(-73.8552 0 15.2758)
(-70.2921 0 21.259)
(-61.803 0 29.405)
(-46.5398 0 38.9504)
(-23.842 0 47.4976)
(4.36864 0 50.8132)
(31.5431 0 45.4148)
(52.0355 0 36.1078)
(65.0734 0 26.7469)
(71.8077 0 19.2016)
(74.2319 0 13.8562)
(74.1917 0 10.3199)
(73.0271 0 7.96117)
(71.5394 0 6.20827)
(70.1193 0 4.66313)
(68.9064 0 3.12387)
(67.9223 0 1.58062)
(67.0954 0 0.20401)
(66.2214 0 -0.914121)
(65.0142 0 -2.15379)
(63.0962 0 -4.02814)
(59.958 0 -6.71166)
(55.1087 0 -9.96548)
(48.3088 0 -12.5118)
(40.4824 0 -12.979)
(31.5066 0 -14.6206)
(26.2916 0 -20.4755)
(21.3913 0 -27.7656)
(15.4264 0 -32.9225)
(8.93565 0 -36.1724)
(2.18032 0 -37.6916)
(-4.6694 0 -37.3471)
(-11.3371 0 -35.1849)
(-17.7073 0 -31.259)
(-23.1496 0 -25.3421)
(-27.9011 0 -18.1378)
(-34.9234 0 -13.2387)
(-43.3493 0 -12.9508)
(-50.9868 0 -11.8564)
(-57.0586 0 -8.85665)
(-61.2817 0 -5.74489)
(-63.9303 0 -3.33292)
(-65.5582 0 -1.70174)
(-66.615 0 -0.567305)
(-67.4423 0 0.603955)
(-68.2972 0 2.04721)
(-61.4457 0 5.45221)
(-61.6933 0 7.19641)
(-61.6452 0 8.99147)
(-61.2409 0 10.8827)
(-60.2377 0 12.9511)
(-58.0962 0 15.299)
(-53.9041 0 18.0195)
(-46.4361 0 21.1254)
(-34.4776 0 24.4158)
(-17.5661 0 27.2723)
(3.07569 0 28.4295)
(23.0597 0 26.6088)
(38.5579 0 23.4875)
(49.0778 0 20.1857)
(55.4047 0 17.1757)
(58.8408 0 14.5701)
(60.5447 0 12.3159)
(61.3161 0 10.3096)
(61.5923 0 8.45256)
(61.5462 0 6.67296)
(61.2052 0 4.93872)
(60.5775 0 3.28497)
(59.6989 0 1.87514)
(58.7215 0 0.821937)
(57.7368 0 -0.0821593)
(56.4414 0 -1.02829)
(54.4254 0 -2.0785)
(51.2937 0 -3.3666)
(46.5953 0 -5.12778)
(41.6297 0 -7.43608)
(37.5845 0 -10.7438)
(33.289 0 -15.9663)
(27.2973 0 -21.7345)
(19.7704 0 -26.0031)
(11.5044 0 -28.7576)
(2.80672 0 -30.0495)
(-6.00912 0 -29.757)
(-14.5803 0 -27.9219)
(-22.6299 0 -24.643)
(-29.6768 0 -19.796)
(-35.0739 0 -13.8528)
(-39.1572 0 -9.39293)
(-43.1733 0 -6.59466)
(-48.4855 0 -4.49863)
(-52.5825 0 -2.92118)
(-55.3139 0 -1.73734)
(-57.0388 0 -0.728281)
(-58.1894 0 0.195373)
(-59.1392 0 1.11607)
(-60.1043 0 2.26578)
(-60.906 0 3.7675)
(-54.3779 0 3.10606)
(-52.2878 0 3.91664)
(-49.5534 0 4.71028)
(-46.1692 0 5.50831)
(-42.101 0 6.31634)
(-37.2813 0 7.11766)
(-31.6079 0 7.86889)
(-24.954 0 8.50124)
(-17.202 0 8.93768)
(-8.34575 0 9.13979)
(1.36349 0 9.16332)
(10.9342 0 9.10179)
(19.4869 0 8.83665)
(26.912 0 8.33708)
(33.2613 0 7.66018)
(38.6686 0 6.88616)
(43.2562 0 6.0781)
(47.1163 0 5.27134)
(50.3056 0 4.47523)
(52.8489 0 3.67834)
(54.7443 0 2.85713)
(55.9741 0 2.0113)
(56.5174 0 1.23829)
(56.492 0 0.616079)
(56.0538 0 0.0451043)
(55.2118 0 -0.544369)
(53.9103 0 -1.15623)
(52.1079 0 -1.82031)
(49.7131 0 -2.69024)
(46.7378 0 -4.09351)
(43.153 0 -6.50757)
(38.3964 0 -9.89009)
(31.6158 0 -13.5353)
(23.0947 0 -16.3862)
(13.5128 0 -18.2821)
(3.30498 0 -19.1744)
(-7.06137 0 -18.9714)
(-17.0912 0 -17.7029)
(-26.3435 0 -15.4595)
(-34.321 0 -12.2735)
(-40.3487 0 -8.56654)
(-44.5507 0 -5.53213)
(-47.877 0 -3.53521)
(-50.6903 0 -2.36839)
(-52.8723 0 -1.60236)
(-54.5124 0 -0.966244)
(-55.6612 0 -0.361816)
(-56.371 0 0.220327)
(-56.6875 0 0.795513)
(-56.5595 0 1.45604)
(-55.8109 0 2.26461)
(-52.6372 0 2.92959)
(-50.3639 0 3.11504)
(-47.442 0 3.28573)
(-43.8484 0 3.44602)
(-39.5485 0 3.59792)
(-34.5044 0 3.74003)
(-28.6879 0 3.86727)
(-22.1031 0 3.97145)
(-14.8168 0 4.04422)
(-6.98936 0 4.08224)
(1.13095 0 4.09359)
(9.2028 0 4.07624)
(16.8985 0 4.03025)
(23.9962 0 3.9482)
(30.3616 0 3.83629)
(35.9507 0 3.70358)
(40.772 0 3.55781)
(44.8592 0 3.40303)
(48.2505 0 3.2396)
(50.9774 0 3.06458)
(53.0598 0 2.87341)
(54.5105 0 2.6652)
(55.3727 0 2.44721)
(55.7523 0 2.21331)
(55.7261 0 1.93545)
(55.3143 0 1.60912)
(54.5387 0 1.22039)
(53.4352 0 0.703364)
(51.967 0 -0.107808)
(49.9427 0 -1.42631)
(46.881 0 -3.43204)
(42.0524 0 -6.03447)
(34.9219 0 -8.70911)
(25.7442 0 -10.8717)
(15.1529 0 -12.3658)
(3.71776 0 -13.0788)
(-7.92817 0 -12.9174)
(-19.124 0 -11.909)
(-29.2664 0 -10.1621)
(-37.7724 0 -7.7861)
(-44.0505 0 -5.04861)
(-48.1482 0 -2.65453)
(-50.7861 0 -0.914368)
(-52.5974 0 0.205696)
(-53.939 0 0.887279)
(-54.9489 0 1.34829)
(-55.6186 0 1.71228)
(-55.9154 0 2.0233)
(-55.8215 0 2.28611)
(-55.3064 0 2.51143)
(-54.2755 0 2.72669)
)
;

boundaryField
{
    top
    {
        type            directionMixed;
        refValue        uniform (0 0 0);
        refGradient     uniform (0 0 0);
        valueFraction   uniform (0 0 0 0 0 1);
        value           nonuniform List<vector> 
51
(
(-52.6372 0 0)
(-50.3639 0 0)
(-47.442 0 0)
(-43.8484 0 0)
(-39.5485 0 0)
(-34.5044 0 0)
(-28.6879 0 0)
(-22.1031 0 0)
(-14.8168 0 0)
(-6.98936 0 0)
(1.13095 0 0)
(9.2028 0 0)
(16.8985 0 0)
(23.9962 0 0)
(30.3616 0 0)
(35.9507 0 0)
(40.772 0 0)
(44.8592 0 0)
(48.2505 0 0)
(50.9774 0 0)
(53.0598 0 0)
(54.5105 0 0)
(55.3727 0 0)
(55.7523 0 0)
(55.7261 0 0)
(55.3143 0 0)
(54.5387 0 0)
(53.4352 0 0)
(51.967 0 0)
(49.9427 0 0)
(46.881 0 0)
(42.0524 0 0)
(34.9219 0 0)
(25.7442 0 0)
(15.1529 0 0)
(3.71776 0 0)
(-7.92817 0 0)
(-19.124 0 0)
(-29.2664 0 0)
(-37.7724 0 0)
(-44.0505 0 0)
(-48.1482 0 0)
(-50.7861 0 0)
(-52.5974 0 0)
(-53.939 0 0)
(-54.9489 0 0)
(-55.6186 0 0)
(-55.9154 0 0)
(-55.8215 0 0)
(-55.3064 0 0)
(-54.2755 0 0)
)
;
    }
    bottom
    {
        type            fixedValue;
        value           uniform (0 0 0);
    }
    frontAndBack
    {
        type            empty;
    }
    left_cyc
    {
        type            cyclic;
    }
    right_cyc
    {
        type            cyclic;
    }
}


// ************************************************************************* //
