/*--------------------------------*- C++ -*----------------------------------*\
| =========                 |                                                 |
| \\      /  F ield         | OpenFOAM: The Open Source CFD Toolbox           |
|  \\    /   O peration     | Version:  2.3.0                                 |
|   \\  /    A nd           | Web:      www.OpenFOAM.org                      |
|    \\/     M anipulation  |                                                 |
\*---------------------------------------------------------------------------*/
FoamFile
{
    version     2.0;
    format      ascii;
    class       volVectorField;
    location    "12000";
    object      U;
}
// * * * * * * * * * * * * * * * * * * * * * * * * * * * * * * * * * * * * * //

dimensions      [0 1 -1 0 0 0 0];

internalField   nonuniform List<vector> 
3060
(
(0.613447 0 -0.448174)
(1.57571 0 -0.432213)
(2.5141 0 -0.402577)
(3.41477 0 -0.359801)
(4.26476 0 -0.304868)
(5.05227 0 -0.239784)
(5.76715 0 -0.168093)
(6.40132 0 -0.0949172)
(6.94885 0 -0.0260939)
(7.40523 0 0.0334031)
(7.76552 0 0.0808382)
(8.02204 0 0.116004)
(8.16236 0 0.140437)
(8.16836 0 0.156469)
(8.01892 0 0.169011)
(7.69389 0 0.188201)
(7.18432 0 0.222506)
(6.49831 0 0.266167)
(5.66356 0 0.299682)
(4.73691 0 0.306713)
(3.78738 0 0.288168)
(2.87532 0 0.251918)
(2.04253 0 0.209922)
(1.30063 0 0.173297)
(0.63343 0 0.149175)
(0.00752091 0 0.140728)
(-0.617657 0 0.148741)
(-1.28274 0 0.172469)
(-2.02139 0 0.208821)
(-2.85037 0 0.250767)
(-3.75871 0 0.287226)
(-4.70506 0 0.306173)
(-5.62906 0 0.299609)
(-6.46138 0 0.26647)
(-7.14446 0 0.222861)
(-7.6497 0 0.188248)
(-7.96825 0 0.168456)
(-8.10889 0 0.154989)
(-8.09178 0 0.137711)
(-7.93839 0 0.111732)
(-7.66695 0 0.0747311)
(-7.29009 0 0.0253366)
(-6.8158 0 -0.0359538)
(-6.24944 0 -0.106061)
(-5.59617 0 -0.179745)
(-4.86263 0 -0.251075)
(-4.05761 0 -0.314998)
(-3.19194 0 -0.368109)
(-2.27798 0 -0.408525)
(-1.32921 0 -0.435323)
(-0.359926 0 -0.44796)
(0.614953 0 -0.446037)
(1.58028 0 -0.429647)
(2.52128 0 -0.399225)
(3.42386 0 -0.355367)
(4.27479 0 -0.299189)
(5.06207 0 -0.232925)
(5.77535 0 -0.160432)
(6.40642 0 -0.0871086)
(6.94913 0 -0.0188739)
(7.39849 0 0.0394865)
(7.74865 0 0.0855848)
(7.99059 0 0.119518)
(8.11025 0 0.142997)
(8.08802 0 0.158598)
(7.90256 0 0.172503)
(7.53514 0 0.195795)
(6.98174 0 0.234067)
(6.25557 0 0.277075)
(5.39267 0 0.304128)
(4.45611 0 0.303457)
(3.51448 0 0.27886)
(2.62417 0 0.239788)
(1.81908 0 0.198381)
(1.10223 0 0.164849)
(0.451271 0 0.145075)
(-0.170099 0 0.141366)
(-0.803084 0 0.154063)
(-1.48715 0 0.18191)
(-2.25232 0 0.220817)
(-3.1083 0 0.262483)
(-4.03528 0 0.295211)
(-4.98531 0 0.307589)
(-5.89444 0 0.293061)
(-6.69452 0 0.254764)
(-7.33586 0 0.21203)
(-7.79711 0 0.181872)
(-8.07443 0 0.165621)
(-8.18104 0 0.152895)
(-8.13768 0 0.134923)
(-7.9653 0 0.107883)
(-7.68051 0 0.0695869)
(-7.29436 0 0.0188595)
(-6.81358 0 -0.0434672)
(-6.24278 0 -0.113987)
(-5.58672 0 -0.187335)
(-4.85185 0 -0.257729)
(-4.04683 0 -0.320417)
(-3.18231 0 -0.372294)
(-2.27041 0 -0.411681)
(-1.32437 0 -0.437764)
(-0.358201 0 -0.450053)
(0.915394 0 -1.67648)
(2.35846 0 -1.65549)
(3.78445 0 -1.61684)
(5.18374 0 -1.56197)
(6.54778 0 -1.49257)
(7.86883 0 -1.41015)
(9.13884 0 -1.31546)
(10.3478 0 -1.20788)
(11.4818 0 -1.08513)
(12.522 0 -0.943089)
(13.4442 0 -0.775562)
(14.2194 0 -0.574014)
(14.8139 0 -0.327716)
(15.1882 0 -0.0261662)
(15.2943 0 0.330348)
(15.079 0 0.712033)
(14.4998 0 1.0639)
(13.5394 0 1.34916)
(12.2076 0 1.55277)
(10.574 0 1.66168)
(8.75323 0 1.67124)
(6.86802 0 1.58854)
(5.0231 0 1.4531)
(3.27351 0 1.31672)
(1.61993 0 1.21979)
(0.0242881 0 1.18439)
(-1.56985 0 1.21723)
(-3.21909 0 1.31192)
(-4.9622 0 1.44678)
(-6.79964 0 1.5818)
(-8.67754 0 1.66508)
(-10.4917 0 1.65629)
(-12.119 0 1.54746)
(-13.4436 0 1.34304)
(-14.3949 0 1.05579)
(-14.9626 0 0.700595)
(-15.1636 0 0.314724)
(-15.0407 0 -0.0456807)
(-14.6478 0 -0.350321)
(-14.0332 0 -0.599024)
(-13.237 0 -0.802347)
(-12.2936 0 -0.971035)
(-11.2324 0 -1.11363)
(-10.078 0 -1.23633)
(-8.84934 0 -1.34325)
(-7.56058 0 -1.43664)
(-6.22191 0 -1.51704)
(-4.8417 0 -1.58368)
(-3.4281 0 -1.63508)
(-1.99009 0 -1.66962)
(-0.537611 0 -1.68598)
(0.918794 0 -1.6835)
(2.3685 0 -1.66229)
(3.80105 0 -1.62319)
(5.20673 0 -1.56764)
(6.57685 0 -1.49727)
(7.9033 0 -1.41344)
(9.17744 0 -1.31663)
(10.3882 0 -1.20586)
(11.5203 0 -1.07842)
(12.5532 0 -0.92966)
(13.4611 0 -0.752805)
(14.2132 0 -0.538679)
(14.7737 0 -0.27622)
(15.1009 0 0.0439192)
(15.1442 0 0.415533)
(14.85 0 0.79893)
(14.1826 0 1.13854)
(13.1303 0 1.40532)
(11.7169 0 1.58562)
(10.0284 0 1.66856)
(8.18588 0 1.65083)
(6.31033 0 1.54923)
(4.49473 0 1.40946)
(2.77819 0 1.28204)
(1.14817 0 1.20221)
(-0.440654 0 1.18717)
(-2.04648 0 1.23988)
(-3.72278 0 1.35002)
(-5.49953 0 1.49077)
(-7.3626 0 1.61734)
(-9.24246 0 1.67871)
(-11.0263 0 1.64258)
(-12.5906 0 1.50806)
(-13.8288 0 1.28164)
(-14.6885 0 0.977066)
(-15.1696 0 0.612373)
(-15.2954 0 0.232365)
(-15.1136 0 -0.111115)
(-14.6773 0 -0.397432)
(-14.0317 0 -0.63088)
(-13.2147 0 -0.82253)
(-12.2588 0 -0.982634)
(-11.1919 0 -1.11909)
(-10.0365 0 -1.23753)
(-8.81032 0 -1.34157)
(-7.52603 0 -1.43304)
(-6.19293 0 -1.51215)
(-4.81884 0 -1.57789)
(-3.41165 0 -1.62866)
(-1.98019 0 -1.66278)
(-0.534353 0 -1.67895)
(1.02643 0 -3.17933)
(2.64366 0 -3.14486)
(4.23928 0 -3.08103)
(5.80025 0 -2.98958)
(7.31361 0 -2.87245)
(8.76624 0 -2.73099)
(10.1444 0 -2.5652)
(11.4335 0 -2.3732)
(12.6178 0 -2.15111)
(13.6808 0 -1.89333)
(14.6058 0 -1.59289)
(15.377 0 -1.24174)
(15.9809 0 -0.831108)
(16.4077 0 -0.352236)
(16.6505 0 0.203775)
(16.6938 0 0.848759)
(16.4862 0 1.59318)
(15.9289 0 2.40303)
(14.9277 0 3.13912)
(13.4388 0 3.62786)
(11.5064 0 3.84576)
(9.2759 0 3.83725)
(6.92652 0 3.672)
(4.58294 0 3.45577)
(2.29134 0 3.28598)
(0.0400802 0 3.22112)
(-2.20932 0 3.27992)
(-4.49567 0 3.44453)
(-6.83167 0 3.65747)
(-9.17301 0 3.8219)
(-11.3968 0 3.83118)
(-13.3242 0 3.61429)
(-14.8082 0 3.1261)
(-15.8024 0 2.38813)
(-16.3497 0 1.57348)
(-16.5446 0 0.823288)
(-16.4868 0 0.172593)
(-16.2279 0 -0.388708)
(-15.7831 0 -0.872213)
(-15.1595 0 -1.28665)
(-14.3673 0 -1.64065)
(-13.4203 0 -1.9429)
(-12.3348 0 -2.20143)
(-11.1281 0 -2.42322)
(-9.81701 0 -2.6139)
(-8.41782 0 -2.77731)
(-6.94558 0 -2.91529)
(-5.41443 0 -3.02778)
(-3.83794 0 -3.11347)
(-2.22947 0 -3.17054)
(-0.602463 0 -3.19744)
(1.02956 0 -3.19338)
(2.65302 0 -3.15846)
(4.2544 0 -3.09373)
(5.82032 0 -3.00086)
(7.33737 0 -2.8816)
(8.79188 0 -2.73703)
(10.1695 0 -2.56673)
(11.4548 0 -2.36834)
(12.6315 0 -2.13751)
(13.6823 0 -1.86823)
(14.5902 0 -1.5532)
(15.3394 0 -1.18418)
(15.9169 0 -0.752413)
(16.3135 0 -0.249376)
(16.5219 0 0.333999)
(16.5207 0 1.01042)
(16.2441 0 1.78456)
(15.5872 0 2.59734)
(14.4658 0 3.28223)
(12.8565 0 3.69603)
(10.834 0 3.84813)
(8.56352 0 3.78978)
(6.21487 0 3.60186)
(3.89048 0 3.39366)
(1.61658 0 3.25302)
(-0.6292 0 3.22639)
(-2.88793 0 3.32204)
(-5.19385 0 3.51144)
(-7.54655 0 3.72486)
(-9.87973 0 3.85812)
(-12.05 0 3.81286)
(-13.8765 0 3.5273)
(-15.2373 0 2.96441)
(-16.115 0 2.1898)
(-16.57 0 1.3884)
(-16.7035 0 0.669891)
(-16.605 0 0.0496568)
(-16.313 0 -0.485193)
(-15.8389 0 -0.945321)
(-15.1899 0 -1.33947)
(-14.3769 0 -1.67647)
(-13.414 0 -1.96496)
(-12.3175 0 -2.21274)
(-11.104 0 -2.42644)
(-9.79003 0 -2.61124)
(-8.39088 0 -2.77054)
(-6.92098 0 -2.90567)
(-5.39383 0 -3.01621)
(-3.82249 0 -3.10058)
(-2.21991 0 -3.15684)
(-0.599191 0 -3.18337)
(1.07437 0 -4.86149)
(2.76525 0 -4.80888)
(4.4285 0 -4.71102)
(6.0474 0 -4.56983)
(7.60538 0 -4.3873)
(9.08602 0 -4.1648)
(10.4732 0 -3.90242)
(11.7511 0 -3.59857)
(12.9049 0 -3.25003)
(13.9205 0 -2.85225)
(14.7851 0 -2.39978)
(15.4879 0 -1.88635)
(16.0195 0 -1.30492)
(16.3723 0 -0.646962)
(16.539 0 0.0995107)
(16.511 0 0.951533)
(16.2799 0 1.92053)
(15.8372 0 2.98638)
(15.1511 0 4.09158)
(14.1079 0 5.13712)
(12.5399 0 5.91129)
(10.447 0 6.22676)
(7.98625 0 6.18874)
(5.36471 0 5.98948)
(2.70789 0 5.79802)
(0.053604 0 5.71955)
(-2.59889 0 5.7883)
(-5.25079 0 5.97173)
(-7.86619 0 6.16653)
(-10.3228 0 6.20458)
(-12.4145 0 5.89314)
(-13.9822 0 5.12224)
(-15.0217 0 4.07367)
(-15.6998 0 2.9624)
(-16.1317 0 1.88934)
(-16.3501 0 0.912812)
(-16.3635 0 0.0534355)
(-16.1803 0 -0.699988)
(-15.8091 0 -1.36425)
(-15.2575 0 -1.95105)
(-14.5332 0 -2.46862)
(-13.6459 0 -2.92382)
(-12.6069 0 -3.3228)
(-11.4295 0 -3.67097)
(-10.1282 0 -3.97287)
(-8.71861 0 -4.23166)
(-7.21712 0 -4.44888)
(-5.64045 0 -4.62444)
(-4.00558 0 -4.75701)
(-2.32964 0 -4.84474)
(-0.62989 0 -4.88595)
(1.0763 0 -4.87972)
(2.77149 0 -4.82621)
(4.43833 0 -4.72656)
(6.05961 0 -4.58256)
(7.61823 0 -4.396)
(9.09725 0 -4.16794)
(10.48 0 -3.89807)
(11.7503 0 -3.5844)
(12.8928 0 -3.22337)
(13.8932 0 -2.81019)
(14.7389 0 -2.33922)
(15.4187 0 -1.80416)
(15.9237 0 -1.19789)
(16.2463 0 -0.511557)
(16.3787 0 0.267868)
(16.3124 0 1.1577)
(16.0389 0 2.16329)
(15.5479 0 3.25324)
(14.7907 0 4.36086)
(13.6255 0 5.36343)
(11.9113 0 6.01822)
(9.70438 0 6.22054)
(7.18801 0 6.123)
(4.55554 0 5.91708)
(1.90235 0 5.75685)
(-0.75 0 5.72624)
(-3.40565 0 5.84034)
(-6.05963 0 6.04708)
(-8.65568 0 6.22207)
(-11.0404 0 6.18553)
(-13.0064 0 5.75062)
(-14.4269 0 4.8775)
(-15.3592 0 3.80189)
(-15.9746 0 2.69979)
(-16.3606 0 1.65506)
(-16.5375 0 0.716501)
(-16.5136 0 -0.106089)
(-16.2972 0 -0.827886)
(-15.8967 0 -1.46479)
(-15.3193 0 -2.02763)
(-14.573 0 -2.52441)
(-13.6675 0 -2.96194)
(-12.6143 0 -3.34628)
(-11.4265 0 -3.68268)
(-10.1184 0 -3.97537)
(-8.70506 0 -4.22718)
(-7.2025 0 -4.43923)
(-5.6269 0 -4.61106)
(-3.99472 0 -4.74106)
(-2.32257 0 -4.82718)
(-0.627227 0 -4.86764)
(1.08459 0 -6.5923)
(2.78994 0 -6.51919)
(4.46321 0 -6.38286)
(6.08507 0 -6.1854)
(7.6367 0 -5.92908)
(9.09989 0 -5.61562)
(10.4573 0 -5.24565)
(11.6929 0 -4.8184)
(12.7919 0 -4.3317)
(13.7413 0 -3.78229)
(14.5299 0 -3.16623)
(15.1475 0 -2.47902)
(15.586 0 -1.71554)
(15.8378 0 -0.869331)
(15.8975 0 0.0687384)
(15.7631 0 1.1108)
(15.4404 0 2.26564)
(14.9379 0 3.52691)
(14.2534 0 4.8705)
(13.3645 0 6.23809)
(12.1879 0 7.49079)
(10.5436 0 8.39852)
(8.32031 0 8.7606)
(5.70455 0 8.73135)
(2.91299 0 8.5919)
(0.0636007 0 8.5223)
(-2.78461 0 8.57913)
(-5.57347 0 8.70894)
(-8.18822 0 8.73538)
(-10.4152 0 8.37833)
(-12.0636 0 7.47502)
(-13.238 0 6.2201)
(-14.1205 0 4.84599)
(-14.7959 0 3.4937)
(-15.2875 0 2.22293)
(-15.5973 0 1.05837)
(-15.7168 0 0.0067754)
(-15.6404 0 -0.940323)
(-15.3699 0 -1.79474)
(-14.9112 0 -2.56525)
(-14.2717 0 -3.25797)
(-13.4602 0 -3.87774)
(-12.487 0 -4.42886)
(-11.3639 0 -4.91516)
(-10.1046 0 -5.33981)
(-8.72445 0 -5.70488)
(-7.24026 0 -6.01112)
(-5.67004 0 -6.25789)
(-4.0327 0 -6.44353)
(-2.34774 0 -6.56596)
(-0.635087 0 -6.62335)
(1.08505 0 -6.61468)
(2.79239 0 -6.54012)
(4.46679 0 -6.40094)
(6.08842 0 -6.1991)
(7.6379 0 -5.93663)
(9.09654 0 -5.61496)
(10.4466 0 -5.2344)
(11.6716 0 -4.79383)
(12.7567 0 -4.29085)
(13.6886 0 -3.72209)
(14.4559 0 -3.08358)
(15.0488 0 -2.37092)
(15.4588 0 -1.57901)
(15.6789 0 -0.70125)
(15.7038 0 0.272036)
(15.5335 0 1.35285)
(15.1753 0 2.5467)
(14.6364 0 3.84197)
(13.9102 0 5.2085)
(12.9634 0 6.56867)
(11.6858 0 7.75753)
(9.88178 0 8.52433)
(7.52912 0 8.75343)
(4.85166 0 8.67542)
(2.03982 0 8.55321)
(-0.81355 0 8.52883)
(-3.65458 0 8.62675)
(-6.4156 0 8.76019)
(-8.95221 0 8.7151)
(-11.0329 0 8.20966)
(-12.5331 0 7.18434)
(-13.6205 0 5.88292)
(-14.4514 0 4.51184)
(-15.0869 0 3.18642)
(-15.5427 0 1.95141)
(-15.8169 0 0.826312)
(-15.9005 0 -0.187282)
(-15.7899 0 -1.10019)
(-15.4884 0 -1.92395)
(-15.0021 0 -2.66687)
(-14.3386 0 -3.33493)
(-13.5068 0 -3.93307)
(-12.5169 0 -4.46564)
(-11.3806 0 -4.93644)
(-10.1115 0 -5.34847)
(-8.72466 0 -5.70356)
(-7.2365 0 -6.00211)
(-5.6646 0 -6.24315)
(-4.02737 0 -6.42475)
(-2.34378 0 -6.54463)
(-0.633234 0 -6.60084)
(1.06516 0 -8.29505)
(2.73855 0 -8.19824)
(4.37676 0 -8.01757)
(5.95878 0 -7.75566)
(7.46441 0 -7.41553)
(8.87446 0 -6.99999)
(10.1712 0 -6.51105)
(11.3384 0 -5.9496)
(12.362 0 -5.31533)
(13.2297 0 -4.60684)
(13.9311 0 -3.82183)
(14.4575 0 -2.95718)
(14.8016 0 -2.00893)
(14.9578 0 -0.971968)
(14.9225 0 0.160049)
(14.6965 0 1.39348)
(14.2868 0 2.72953)
(13.7045 0 4.15806)
(12.9597 0 5.65915)
(12.0581 0 7.20459)
(10.9863 0 8.73334)
(9.66173 0 10.0925)
(7.8982 0 11.0278)
(5.57908 0 11.4036)
(2.89758 0 11.4453)
(0.0686699 0 11.4225)
(-2.76044 0 11.4317)
(-5.44371 0 11.3822)
(-7.76977 0 11.0084)
(-9.54025 0 10.0779)
(-10.865 0 8.71713)
(-11.9319 0 7.18127)
(-12.8261 0 5.6262)
(-13.5617 0 4.11439)
(-14.133 0 2.67456)
(-14.5299 0 1.32699)
(-14.7411 0 0.0821947)
(-14.7598 0 -1.06066)
(-14.5852 0 -2.10754)
(-14.2209 0 -3.06438)
(-13.673 0 -3.93585)
(-12.9488 0 -4.72557)
(-12.0576 0 -5.43631)
(-11.0102 0 -6.07015)
(-9.81954 0 -6.6283)
(-8.50052 0 -7.11093)
(-7.07001 0 -7.51708)
(-5.54657 0 -7.84473)
(-3.95015 0 -8.09117)
(-2.30169 0 -8.2536)
(-0.622901 0 -8.3297)
(1.0641 0 -8.3182)
(2.73708 0 -8.21933)
(4.37397 0 -8.03464)
(5.95327 0 -7.76666)
(7.45424 0 -7.41821)
(8.85728 0 -6.99186)
(10.1442 0 -6.48938)
(11.2987 0 -5.91144)
(12.3063 0 -5.25757)
(13.1547 0 -4.52631)
(13.8335 0 -3.71541)
(14.334 0 -2.82188)
(14.649 0 -1.84187)
(14.7732 0 -0.770382)
(14.7037 0 0.398714)
(14.4428 0 1.67075)
(13.9991 0 3.04404)
(13.3837 0 4.50496)
(12.6065 0 6.03158)
(11.6697 0 7.59003)
(10.5485 0 9.10058)
(9.12695 0 10.3744)
(7.20884 0 11.1557)
(4.76314 0 11.4135)
(2.02537 0 11.428)
(-0.816841 0 11.4261)
(-3.62264 0 11.449)
(-6.23417 0 11.3506)
(-8.41532 0 10.8375)
(-10.0435 0 9.76575)
(-11.2865 0 8.33972)
(-12.3101 0 6.79697)
(-13.1704 0 5.25927)
(-13.8734 0 3.77495)
(-14.4115 0 2.36901)
(-14.7739 0 1.05941)
(-14.9502 0 -0.146978)
(-14.935 0 -1.25342)
(-14.729 0 -2.26655)
(-14.3363 0 -3.19242)
(-13.7632 0 -4.03582)
(-13.0172 0 -4.80046)
(-12.1074 0 -5.48926)
(-11.0448 0 -6.10429)
(-9.84207 0 -6.64669)
(-8.51392 0 -7.11647)
(-7.07695 0 -7.51242)
(-5.54933 0 -7.83226)
(-3.95053 0 -8.07309)
(-2.30101 0 -8.23193)
(-0.621924 0 -8.30635)
(1.02145 0 -9.94991)
(2.6249 0 -9.82784)
(4.19135 0 -9.59998)
(5.69887 0 -9.26973)
(7.12659 0 -8.84118)
(8.45504 0 -8.31854)
(9.66647 0 -7.70554)
(10.7452 0 -7.00505)
(11.6775 0 -6.21879)
(12.4522 0 -5.34741)
(13.0598 0 -4.39045)
(13.493 0 -3.34652)
(13.746 0 -2.21334)
(13.8149 0 -0.987979)
(13.6987 0 0.33268)
(13.3997 0 1.75034)
(12.9251 0 3.26181)
(12.2857 0 4.85559)
(11.4927 0 6.51176)
(10.5578 0 8.20197)
(9.48875 0 9.88431)
(8.2734 0 11.4855)
(6.82092 0 12.843)
(4.95609 0 13.7261)
(2.63206 0 14.1057)
(0.0677051 0 14.1893)
(-2.49853 0 14.0952)
(-4.8296 0 13.7123)
(-6.70323 0 12.8315)
(-8.15835 0 11.4725)
(-9.37072 0 9.86419)
(-10.4341 0 8.17195)
(-11.3617 0 6.4704)
(-12.1456 0 4.80187)
(-12.7743 0 3.19505)
(-13.2364 0 1.67022)
(-13.5211 0 0.239327)
(-13.6212 0 -1.09401)
(-13.5344 0 -2.33105)
(-13.2618 0 -3.47438)
(-12.8077 0 -4.52645)
(-12.178 0 -5.48907)
(-11.3805 0 -6.3632)
(-10.4251 0 -7.14893)
(-9.32385 0 -7.84534)
(-8.09104 0 -8.45049)
(-6.7432 0 -8.9614)
(-5.29889 0 -9.37433)
(-3.77841 0 -9.6852)
(-2.20341 0 -9.89014)
(-0.596546 0 -9.98615)
(1.01896 0 -9.97165)
(2.6197 0 -9.84689)
(4.18258 0 -9.61388)
(5.68515 0 -9.27589)
(7.10609 0 -8.8369)
(8.42551 0 -8.30096)
(9.62536 0 -7.67163)
(10.6897 0 -6.95164)
(11.6048 0 -6.14266)
(12.3592 0 -5.24534)
(12.9436 0 -4.25935)
(13.3506 0 -3.18348)
(13.5747 0 -2.01577)
(13.6126 0 -0.753649)
(13.4636 0 0.605307)
(13.1315 0 2.06147)
(12.6246 0 3.60932)
(11.954 0 5.2346)
(11.1314 0 6.91502)
(10.1677 0 8.61888)
(9.06831 0 10.2988)
(7.80631 0 11.8631)
(6.25847 0 13.1158)
(4.25513 0 13.8537)
(1.83719 0 14.1396)
(-0.750123 0 14.1854)
(-3.27616 0 14.044)
(-5.49403 0 13.5482)
(-7.23479 0 12.5242)
(-8.60949 0 11.0798)
(-9.78232 0 9.44646)
(-10.8164 0 7.75697)
(-11.715 0 6.07222)
(-12.4688 0 4.43004)
(-13.0661 0 2.8562)
(-13.4954 0 1.36858)
(-13.7469 0 -0.0237038)
(-13.8146 0 -1.31913)
(-13.697 0 -2.52)
(-13.3962 0 -3.6295)
(-12.9166 0 -4.65041)
(-12.2642 0 -5.58479)
(-11.4471 0 -6.43381)
(-10.4751 0 -7.19763)
(-9.36012 0 -7.87534)
(-8.11631 0 -8.4649)
(-6.75996 0 -8.96319)
(-5.3093 0 -9.3663)
(-3.78422 0 -9.67)
(-2.20588 0 -9.87032)
(-0.596427 0 -9.96416)
(0.958014 0 -11.5172)
(2.46072 0 -11.369)
(3.92572 0 -11.0924)
(5.33081 0 -10.6918)
(6.65508 0 -10.1726)
(7.87924 0 -9.5408)
(8.98602 0 -8.80211)
(9.96038 0 -7.96159)
(10.7897 0 -7.02328)
(11.4635 0 -5.99001)
(11.974 0 -4.86341)
(12.3149 0 -3.64402)
(12.4824 0 -2.33153)
(12.4745 0 -0.925297)
(12.2919 0 0.574762)
(11.9385 0 2.16655)
(11.4217 0 3.84321)
(10.7517 0 5.59113)
(9.94038 0 7.38963)
(9.00025 0 9.21103)
(7.94325 0 11.0188)
(6.77811 0 12.7605)
(5.48916 0 14.3419)
(3.9825 0 15.5872)
(2.14739 0 16.3251)
(0.0610939 0 16.5534)
(-2.0282 0 16.3206)
(-3.87059 0 15.5814)
(-5.38154 0 14.3339)
(-6.66949 0 12.7457)
(-7.83067 0 10.994)
(-8.88212 0 9.17456)
(-9.81519 0 7.34023)
(-10.6179 0 5.52774)
(-11.2777 0 3.76508)
(-11.7826 0 2.0733)
(-12.1224 0 0.466487)
(-12.2896 0 -1.04802)
(-12.2804 0 -2.46759)
(-12.0943 0 -3.79175)
(-11.7334 0 -5.02054)
(-11.2019 0 -6.15368)
(-10.5063 0 -7.19012)
(-9.65518 0 -8.12774)
(-8.6595 0 -8.96332)
(-7.53266 0 -9.69253)
(-6.29051 0 -10.3102)
(-4.95117 0 -10.8104)
(-3.53474 0 -11.1875)
(-2.06295 0 -11.4363)
(-0.558745 0 -11.5529)
(0.954262 0 -11.5353)
(2.45224 0 -11.3838)
(3.9117 0 -11.101)
(5.30998 0 -10.6911)
(6.62574 0 -10.1595)
(7.83934 0 -9.51208)
(8.93325 0 -8.75451)
(9.89225 0 -7.89179)
(10.7036 0 -6.92797)
(11.3569 0 -5.86598)
(11.8442 0 -4.70763)
(12.1597 0 -3.45376)
(12.2995 0 -2.10452)
(12.2623 0 -0.659875)
(12.0493 0 0.879278)
(11.6653 0 2.50934)
(11.1187 0 4.22136)
(10.4203 0 5.9994)
(9.58211 0 7.82065)
(8.61688 0 9.65503)
(7.53602 0 11.4629)
(6.34573 0 13.1838)
(5.01197 0 14.7031)
(3.42033 0 15.8274)
(1.49432 0 16.4275)
(-0.619892 0 16.5386)
(-2.66147 0 16.1836)
(-4.40687 0 15.305)
(-5.84318 0 13.9506)
(-7.09427 0 12.3138)
(-8.23145 0 10.5479)
(-9.2588 0 8.73246)
(-10.1663 0 6.91387)
(-10.9418 0 5.12623)
(-11.5726 0 3.39523)
(-12.0473 0 1.73977)
(-12.3565 0 0.171572)
(-12.4934 0 -1.30397)
(-12.4551 0 -2.68556)
(-12.2418 0 -3.97356)
(-11.8558 0 -5.1686)
(-11.3018 0 -6.27078)
(-10.5862 0 -7.27931)
(-9.71767 0 -8.19224)
(-8.70717 0 -9.00643)
(-7.56798 0 -9.71755)
(-6.31574 0 -10.3203)
(-4.96827 0 -10.8089)
(-3.54534 0 -11.1773)
(-2.06824 0 -11.4205)
(-0.559409 0 -11.5345)
(0.878603 0 -12.97)
(2.25564 0 -12.7955)
(3.59526 0 -12.4701)
(4.87556 0 -11.9991)
(6.07607 0 -11.3896)
(7.17815 0 -10.6494)
(8.16537 0 -9.78664)
(9.02369 0 -8.80863)
(9.7416 0 -7.7219)
(10.3101 0 -6.53166)
(10.7225 0 -5.24178)
(10.9745 0 -3.85494)
(11.0638 0 -2.37297)
(10.9904 0 -0.797549)
(10.7567 0 0.868695)
(10.3679 0 2.6206)
(9.83194 0 4.44842)
(9.15938 0 6.33648)
(8.36229 0 8.26267)
(7.45425 0 10.1985)
(6.4497 0 12.1081)
(5.36366 0 13.9456)
(4.20938 0 15.6394)
(2.96863 0 17.059)
(1.58144 0 18.0121)
(0.051165 0 18.3458)
(-1.48113 0 18.0116)
(-2.87141 0 17.0565)
(-4.11225 0 15.6311)
(-5.26381 0 13.9277)
(-6.34572 0 12.0785)
(-7.34492 0 10.1558)
(-8.24627 0 8.20564)
(-9.03527 0 6.26394)
(-9.69826 0 4.35955)
(-10.223 0 2.51496)
(-10.5991 0 0.746342)
(-10.8184 0 -0.936015)
(-10.8759 0 -2.52636)
(-10.7692 0 -4.02143)
(-10.4985 0 -5.41884)
(-10.0664 0 -6.71609)
(-9.4776 0 -7.90986)
(-8.73935 0 -8.99567)
(-7.86125 0 -9.96781)
(-6.85556 0 -10.8194)
(-5.73711 0 -11.5429)
(-4.52318 0 -12.1301)
(-3.23323 0 -12.5734)
(-1.88854 0 -12.8661)
(-0.511722 0 -13.0034)
(0.873825 0 -12.9826)
(2.24447 0 -12.8043)
(3.57696 0 -12.4716)
(4.84899 0 -11.9899)
(6.03971 0 -11.3662)
(7.1302 0 -10.6084)
(8.10379 0 -9.72449)
(8.94632 0 -8.72191)
(9.64623 0 -7.60727)
(10.1945 0 -6.38595)
(10.5847 0 -5.06209)
(10.8126 0 -3.63878)
(10.8762 0 -2.11841)
(10.776 0 -0.503471)
(10.515 0 1.20227)
(10.099 0 2.99204)
(9.5369 0 4.85415)
(8.83961 0 6.77077)
(8.01976 0 8.71776)
(7.09131 0 10.6645)
(6.06887 0 12.5731)
(4.96791 0 14.3928)
(3.79722 0 16.0392)
(2.52294 0 17.3605)
(1.0886 0 18.1629)
(-0.460518 0 18.3225)
(-1.96219 0 17.8175)
(-3.30595 0 16.7233)
(-4.51895 0 15.2147)
(-5.65569 0 13.4735)
(-6.72191 0 11.6116)
(-7.70254 0 9.69113)
(-8.58282 0 7.75466)
(-9.34847 0 5.83592)
(-9.98625 0 3.96173)
(-10.4844 0 2.1525)
(-10.8332 0 0.422291)
(-11.0251 0 -1.22051)
(-11.0559 0 -2.77161)
(-10.9238 0 -4.22878)
(-10.6293 0 -5.59037)
(-10.1754 0 -6.85438)
(-9.56686 0 -8.01786)
(-8.81107 0 -9.07659)
(-7.91765 0 -10.025)
(-6.89877 0 -10.8563)
(-5.76912 0 -11.5629)
(-4.54575 0 -12.1367)
(-3.2478 0 -12.57)
(-1.89618 0 -12.8562)
(-0.513058 0 -12.9904)
(0.786273 0 -14.286)
(2.01753 0 -14.0857)
(3.21254 0 -13.7124)
(4.35022 0 -13.1726)
(5.411 0 -12.4753)
(6.37729 0 -11.6302)
(7.23382 0 -10.6477)
(7.96782 0 -9.53786)
(8.56917 0 -8.3097)
(9.03031 0 -6.97094)
(9.3462 0 -5.52784)
(9.51415 0 -3.98533)
(9.53371 0 -2.34747)
(9.40668 0 -0.618251)
(9.13716 0 1.19726)
(8.73171 0 3.09127)
(8.19935 0 5.05163)
(7.55123 0 7.06065)
(6.80037 0 9.09451)
(5.96171 0 11.1229)
(5.05225 0 13.1085)
(4.09161 0 15.0041)
(3.10332 0 16.7435)
(2.10511 0 18.2132)
(1.08798 0 19.2312)
(0.0409633 0 19.6007)
(-1.00627 0 19.2316)
(-2.02284 0 18.2102)
(-3.01875 0 16.7329)
(-4.00358 0 14.9826)
(-4.95998 0 13.0742)
(-5.86424 0 11.0744)
(-6.6966 0 9.03032)
(-7.43994 0 6.97959)
(-8.07923 0 4.95278)
(-8.60137 0 2.97414)
(-8.99513 0 1.06187)
(-9.25147 0 -0.771294)
(-9.36388 0 -2.51692)
(-9.32834 0 -4.16919)
(-9.14324 0 -5.72337)
(-8.80928 0 -7.1746)
(-8.32956 0 -8.51717)
(-7.70962 0 -9.74412)
(-6.95762 0 -10.8471)
(-6.0844 0 -11.8167)
(-5.10351 0 -12.6426)
(-4.03103 0 -13.3144)
(-2.88537 0 -13.8222)
(-1.68686 0 -14.1579)
(-0.457285 0 -14.3153)
(0.780738 0 -14.2916)
(2.00434 0 -14.087)
(3.19106 0 -13.7056)
(4.31945 0 -13.1539)
(5.36963 0 -12.4408)
(6.32377 0 -11.5762)
(7.16644 0 -10.5707)
(7.88478 0 -9.43427)
(8.46866 0 -8.17622)
(8.91062 0 -6.8045)
(9.20577 0 -5.32571)
(9.35166 0 -3.74529)
(9.34817 0 -2.06798)
(9.19756 0 -0.298692)
(8.90447 0 1.55624)
(8.4761 0 3.4874)
(7.92208 0 5.48069)
(7.25415 0 7.51638)
(6.48592 0 9.56861)
(5.63295 0 11.605)
(4.71295 0 13.5859)
(3.74669 0 15.4607)
(2.75817 0 17.1532)
(1.75881 0 18.5309)
(0.733734 0 19.3978)
(-0.317749 0 19.5744)
(-1.35803 0 19.0197)
(-2.36811 0 17.8626)
(-3.36405 0 16.3072)
(-4.34746 0 14.5184)
(-5.29679 0 12.5937)
(-6.18943 0 10.5928)
(-7.00659 0 8.5596)
(-7.73183 0 6.52954)
(-8.35073 0 4.53116)
(-8.85075 0 2.58667)
(-9.22126 0 0.712218)
(-9.45387 0 -1.08129)
(-9.54268 0 -2.78697)
(-9.48421 0 -4.40019)
(-9.27725 0 -5.91702)
(-8.92283 0 -7.33325)
(-8.42424 0 -8.64363)
(-7.78719 0 -9.8415)
(-7.01989 0 -10.9188)
(-6.13316 0 -11.8661)
(-5.14045 0 -12.6734)
(-4.05766 0 -13.3303)
(-2.90294 0 -13.827)
(-1.69631 0 -14.1553)
(-0.459159 0 -14.3093)
(0.683488 0 -15.4468)
(1.75272 0 -15.2219)
(2.7877 0 -14.8028)
(3.76862 0 -14.1976)
(4.67724 0 -13.4167)
(5.49737 0 -12.4723)
(6.21518 0 -11.3772)
(6.81944 0 -10.144)
(7.30156 0 -8.78442)
(7.65562 0 -7.30872)
(7.8782 0 -5.72564)
(7.96833 0 -4.04247)
(7.92732 0 -2.26553)
(7.7587 0 -0.401039)
(7.46824 0 1.54363)
(7.06391 0 3.55837)
(6.55592 0 5.62884)
(5.95645 0 7.73535)
(5.27968 0 9.85205)
(4.54196 0 11.9463)
(3.76232 0 13.9778)
(2.96324 0 15.8958)
(2.17191 0 17.6317)
(1.41634 0 19.0794)
(0.708143 0 20.0752)
(0.0317098 0 20.4361)
(-0.643927 0 20.0743)
(-1.34983 0 19.074)
(-2.10207 0 17.6177)
(-2.88958 0 15.8703)
(-3.68435 0 13.9388)
(-4.45899 0 11.8922)
(-5.19083 0 9.78119)
(-5.86072 0 7.64646)
(-6.45219 0 5.52091)
(-6.95098 0 3.43081)
(-7.34482 0 1.39642)
(-7.62349 0 -0.567296)
(-7.779 0 -2.44952)
(-7.8057 0 -4.2421)
(-7.70019 0 -5.93793)
(-7.46141 0 -7.5298)
(-7.09071 0 -9.00955)
(-6.59195 0 -10.3676)
(-5.97167 0 -11.5931)
(-5.2391 0 -12.6736)
(-4.40623 0 -13.5963)
(-3.48765 0 -14.3483)
(-2.50035 0 -14.9176)
(-1.46328 0 -15.2943)
(-0.396885 0 -15.471)
(0.677481 0 -15.4443)
(1.73823 0 -15.2147)
(2.7642 0 -14.7868)
(3.73526 0 -14.1685)
(4.63293 0 -13.3706)
(5.44084 0 -12.4053)
(6.14505 0 -11.2855)
(6.73428 0 -10.0242)
(7.2 0 -8.63314)
(7.53641 0 -7.12308)
(7.7403 0 -5.50315)
(7.81097 0 -3.78121)
(7.7501 0 -1.96434)
(7.56168 0 -0.0598071)
(7.25198 0 1.9237)
(6.82957 0 3.9744)
(6.30522 0 6.07602)
(5.69173 0 8.2068)
(5.0039 0 10.3388)
(4.25886 0 12.4372)
(3.47658 0 14.4591)
(2.68088 0 16.35)
(1.90022 0 18.0336)
(1.16021 0 19.3883)
(0.464733 0 20.2371)
(-0.207888 0 20.4105)
(-0.889951 0 19.8684)
(-1.61008 0 18.7354)
(-2.37719 0 17.1987)
(-3.17344 0 15.4067)
(-3.96983 0 13.4532)
(-4.74049 0 11.4007)
(-5.46392 0 9.29693)
(-6.12188 0 7.17996)
(-6.69861 0 5.08059)
(-7.18047 0 3.023)
(-7.55578 0 1.02538)
(-7.81491 0 -0.899122)
(-7.95046 0 -2.7413)
(-7.95726 0 -4.49424)
(-7.83236 0 -6.15178)
(-7.57503 0 -7.70742)
(-7.18688 0 -9.15353)
(-6.67196 0 -10.481)
(-6.03691 0 -11.679)
(-5.29101 0 -12.7358)
(-4.44618 0 -13.6384)
(-3.51689 0 -14.3742)
(-2.51992 0 -14.9314)
(-1.47396 0 -15.3001)
(-0.399152 0 -15.4731)
(0.572223 0 -16.4379)
(1.46629 0 -16.19)
(2.32888 0 -15.7283)
(3.14186 0 -15.0622)
(3.88872 0 -14.204)
(4.55499 0 -13.1681)
(5.12858 0 -11.9698)
(5.59995 0 -10.6243)
(5.96223 0 -9.1459)
(6.21114 0 -7.5476)
(6.34494 0 -5.84057)
(6.36431 0 -4.03446)
(6.27223 0 -2.13786)
(6.07383 0 -0.159194)
(5.77639 0 1.89203)
(5.38926 0 4.00356)
(4.92376 0 6.15906)
(4.39308 0 8.33684)
(3.81234 0 10.5089)
(3.19879 0 12.6402)
(2.57226 0 14.6872)
(1.95565 0 16.5955)
(1.37519 0 18.2938)
(0.857056 0 19.6814)
(0.413319 0 20.6176)
(0.023132 0 20.9521)
(-0.365986 0 20.6147)
(-0.806982 0 19.6728)
(-1.32157 0 18.2761)
(-1.89816 0 16.5659)
(-2.51055 0 14.6437)
(-3.13235 0 12.5808)
(-3.74052 0 10.432)
(-4.3151 0 8.2409)
(-4.83872 0 6.04301)
(-5.29615 0 3.86675)
(-5.67414 0 1.73436)
(-5.96131 0 -0.337131)
(-6.14831 0 -2.33472)
(-6.22792 0 -4.24803)
(-6.19515 0 -6.06767)
(-6.04723 0 -7.78409)
(-5.78381 0 -9.38664)
(-5.40708 0 -10.8632)
(-4.92181 0 -12.2)
(-4.33552 0 -13.3822)
(-3.65844 0 -14.3941)
(-2.90337 0 -15.2203)
(-2.08552 0 -15.8466)
(-1.22206 0 -16.2614)
(-0.331677 0 -16.4562)
(0.566028 0 -16.4267)
(1.45123 0 -16.1738)
(2.3045 0 -15.7026)
(3.1075 0 -15.0227)
(3.84352 0 -14.1464)
(4.49796 0 -13.0884)
(5.05866 0 -11.8641)
(5.51612 0 -10.4893)
(5.86352 0 -8.97837)
(6.09678 0 -7.34481)
(6.2144 0 -5.60029)
(6.21738 0 -3.75512)
(6.10906 0 -1.81871)
(5.89504 0 0.199414)
(5.58309 0 2.28834)
(5.18312 0 4.43413)
(4.70699 0 6.61849)
(4.16848 0 8.81765)
(3.58332 0 11.0014)
(2.96953 0 13.1323)
(2.34784 0 15.1641)
(1.74218 0 17.0386)
(1.17957 0 18.6779)
(0.684273 0 19.9704)
(0.260563 0 20.7666)
(-0.123023 0 20.9288)
(-0.523107 0 20.4245)
(-0.985909 0 19.3544)
(-1.52251 0 17.8733)
(-2.11513 0 16.1116)
(-2.73675 0 14.1608)
(-3.36195 0 12.0869)
(-3.96869 0 9.94094)
(-4.53786 0 7.76417)
(-5.0528 0 5.58972)
(-5.49892 0 3.44382)
(-5.86351 0 1.34665)
(-6.13574 0 -0.686628)
(-6.30682 0 -2.64464)
(-6.37003 0 -4.51831)
(-6.32077 0 -6.29927)
(-6.15668 0 -7.97875)
(-5.87771 0 -9.54671)
(-5.48623 0 -10.9915)
(-4.98721 0 -12.2998)
(-4.38822 0 -13.4569)
(-3.69949 0 -14.4476)
(-2.93376 0 -15.2566)
(-2.10606 0 -15.87)
(-1.23339 0 -16.2762)
(-0.334191 0 -16.4668)
(0.454056 0 -17.2473)
(1.16232 0 -16.9786)
(1.84257 0 -16.4784)
(2.4788 0 -15.7575)
(3.05657 0 -14.8299)
(3.56345 0 -13.7122)
(3.98929 0 -12.4222)
(4.32643 0 -10.9777)
(4.56977 0 -9.39561)
(4.71672 0 -7.69144)
(4.76716 0 -5.87883)
(4.72331 0 -3.96977)
(4.58963 0 -1.97506)
(4.37266 0 0.094784)
(4.08098 0 2.22819)
(3.72504 0 4.41099)
(3.31704 0 6.62501)
(2.87084 0 8.84677)
(2.40195 0 11.0464)
(1.92765 0 13.1865)
(1.46713 0 15.2212)
(1.04144 0 17.0937)
(0.672719 0 18.7322)
(0.380335 0 20.0434)
(0.16945 0 20.9094)
(0.0148456 0 21.214)
(-0.138754 0 20.9046)
(-0.347071 0 20.0317)
(-0.636124 0 18.7109)
(-1.00119 0 17.0601)
(-1.42294 0 15.1732)
(-1.87917 0 13.1222)
(-2.3487 0 10.964)
(-2.81224 0 8.74465)
(-3.25242 0 6.50195)
(-3.6536 0 4.26623)
(-4.00187 0 2.06157)
(-4.28496 0 -0.0931416)
(-4.49238 0 -2.18292)
(-4.61562 0 -4.19527)
(-4.64823 0 -6.11864)
(-4.58595 0 -7.94114)
(-4.42684 0 -9.64971)
(-4.17139 0 -11.2297)
(-3.82265 0 -12.6646)
(-3.38631 0 -13.937)
(-2.87062 0 -15.0285)
(-2.28639 0 -15.9213)
(-1.6467 0 -16.599)
(-0.966593 0 -17.0482)
(-0.262579 0 -17.2592)
(0.44795 0 -17.2273)
(1.14736 0 -16.9532)
(1.81843 0 -16.4431)
(2.44498 0 -15.7076)
(3.01244 0 -14.7611)
(3.50829 0 -13.6204)
(3.92239 0 -12.3037)
(4.24713 0 -10.829)
(4.47753 0 -9.21382)
(4.61123 0 -7.47398)
(4.64838 0 -5.62376)
(4.59152 0 -3.67587)
(4.44553 0 -1.64201)
(4.21738 0 0.466146)
(3.91615 0 2.63561)
(3.55278 0 4.85049)
(3.13998 0 7.09065)
(2.69212 0 9.33048)
(2.22526 0 11.5378)
(1.75728 0 13.6728)
(1.308 0 15.6868)
(0.898988 0 17.5194)
(0.552308 0 19.0937)
(0.284987 0 20.3092)
(0.0950207 0 21.044)
(-0.0527838 0 21.193)
(-0.21771 0 20.7322)
(-0.449003 0 19.7372)
(-0.762796 0 18.3295)
(-1.14858 0 16.6215)
(-1.58554 0 14.7002)
(-2.05164 0 12.6327)
(-2.52629 0 10.4729)
(-2.99082 0 8.26407)
(-3.42842 0 6.04164)
(-3.82402 0 3.83369)
(-4.16419 0 1.6622)
(-4.43718 0 -0.455818)
(-4.63301 0 -2.50703)
(-4.74363 0 -4.4803)
(-4.76304 0 -6.36513)
(-4.68735 0 -8.1505)
(-4.51495 0 -9.82399)
(-4.2466 0 -11.3715)
(-3.88554 0 -12.7771)
(-3.43755 0 -14.0235)
(-2.91095 0 -15.0929)
(-2.31652 0 -15.9677)
(-1.66724 0 -16.6319)
(-0.978027 0 -17.072)
(-0.265199 0 -17.2787)
(0.330278 0 -17.8654)
(0.844103 0 -17.5785)
(1.33406 0 -17.0448)
(1.78665 0 -16.2763)
(2.18983 0 -15.2887)
(2.53347 0 -14.1009)
(2.80958 0 -12.7328)
(3.0125 0 -11.2048)
(3.13894 0 -9.5362)
(3.18798 0 -7.745)
(3.161 0 -5.84717)
(3.0616 0 -3.85694)
(2.89548 0 -1.78722)
(2.67034 0 0.349452)
(2.39569 0 2.53965)
(2.08275 0 4.76751)
(1.74418 0 7.01327)
(1.394 0 9.25196)
(1.04744 0 11.4522)
(0.720879 0 13.5752)
(0.431606 0 15.5737)
(0.197283 0 17.3905)
(0.0344077 0 18.956)
(-0.0456583 0 20.1857)
(-0.0456 0 20.9827)
(0.00671236 0 21.2588)
(0.0598573 0 20.9762)
(0.0620831 0 20.1712)
(-0.0150918 0 18.9313)
(-0.174734 0 17.3533)
(-0.405589 0 15.5219)
(-0.691145 0 13.5067)
(-1.01368 0 11.3651)
(-1.35583 0 9.14464)
(-1.70113 0 6.88438)
(-2.03426 0 4.61621)
(-2.34112 0 2.36572)
(-2.60898 0 0.153379)
(-2.8266 0 -2.00406)
(-2.98447 0 -4.09218)
(-3.07498 0 -6.09735)
(-3.09258 0 -8.0055)
(-3.0339 0 -9.80122)
(-2.89789 0 -11.4674)
(-2.68585 0 -12.9851)
(-2.40154 0 -14.3343)
(-2.05118 0 -15.494)
(-1.64329 0 -16.4442)
(-1.1886 0 -17.1665)
(-0.699632 0 -17.6456)
(-0.190333 0 -17.8707)
(0.324513 0 -17.8367)
(0.829894 0 -17.5443)
(1.31119 0 -17.0003)
(1.75477 0 -16.2167)
(2.14855 0 -15.2097)