/*--------------------------------*- C++ -*----------------------------------*\
| =========                 |                                                 |
| \\      /  F ield         | OpenFOAM: The Open Source CFD Toolbox           |
|  \\    /   O peration     | Version:  2.3.0                                 |
|   \\  /    A nd           | Web:      www.OpenFOAM.org                      |
|    \\/     M anipulation  |                                                 |
\*---------------------------------------------------------------------------*/
FoamFile
{
    version     2.0;
    format      ascii;
    class       volScalarField;
    location    "18000";
    object      p;
}
// * * * * * * * * * * * * * * * * * * * * * * * * * * * * * * * * * * * * * //

dimensions      [0 2 -2 0 0 0 0];

internalField   nonuniform List<scalar> 
191
(
-1368.24
-1432.32
-1482.34
-1519.4
-1547.69
-1570.17
-1588.77
-1604.71
-1618.72
-1631.27
-1642.6
-1652.92
-1312.6
-1344.06
-1370.13
-1391.25
-1409
-1424.26
-1437.58
-1449.51
-1460.38
-1470.42
-1479.79
-1488.65
-1257.51
-1273.36
-1290.9
-1300.14
-1306.6
-1313.31
-1320.02
-1326.68
-1333.27
-1339.78
-1346.25
-1352.79
-1143.28
-1172.12
-1194.89
-1203.36
-1206.98
-1210.37
-1213.62
-1216.93
-1220.4
-1224.08
-1228.04
-1232.33
-1024.56
-1038.42
-1072.6
-1089.41
-1095.41
-1099.43
-1102.61
-1105.04
-1107.06
-1108.94
-1110.88
-1113.02
-1115.4
-933.076
-944.071
-967.166
-978.116
-982.62
-986.305
-989.043
-990.932
-992.239
-993.212
-994.061
-994.92
-995.844
-847.801
-850.156
-858.486
-863.517
-866.174
-868.418
-870.063
-871.098
-871.651
-871.866
-871.873
-871.759
-871.556
-766.768
-754.086
-746.306
-745.706
-746.03
-746.224
-746.367
-746.272
-745.912
-745.302
-744.483
-743.495
-742.363
-686.308
-658.102
-633.346
-626.339
-623.805
-621.396
-619.558
-617.916
-616.306
-614.629
-612.849
-610.975
-609.018
-599.124
-562.542
-523.071
-507.46
-501.423
-495.909
-491.572
-487.867
-484.542
-481.423
-478.416
-475.506
-472.667
-504.386
-470.82
-415.56
-393.709
-383.032
-373.383
-365.599
-359.039
-353.347
-348.241
-343.551
-339.237
-335.225
-399.226
-362.501
-301.443
-275.94
-265.48
-256.035
-246.137
-236.602
-227.975
-220.208
-213.126
-206.714
-200.886
-300.023
-253.721
-185.231
-147.099
-144.13
-138.902
-133.349
-124.614
-114.386
-103.791
-93.3954
-84.1091
-75.9132
-191.687
-152.816
-96.2842
-52.9797
-29.2174
-17.4781
-15.8843
-16.1616
-14.5651
-10.1178
-3.31308
4.98287
14.0941
-329.722
-251.254
-159.298
-75.4794
-9.01591
34.8575
60.798
75.8494
83.8858
86.6882
85.0211
81.1908
77.7935
)
;

boundaryField
{
    top
    {
        type            calculated;
        value           nonuniform List<scalar> 
13
(
-9.81
-9.81
-9.81
-9.81
-9.81
-9.81
-9.81
-9.81
-9.81
-9.81
-9.81
-9.81
-9.81
)
;
    }
    bottom
    {
        type            calculated;
        value           nonuniform List<scalar> 
12
(
-1439.16
-1506.96
-1560.38
-1600.24
-1630.85
-1655.21
-1675.3
-1692.44
-1707.42
-1720.74
-1732.72
-1743.55
)
;
    }
    frontAndBack
    {
        type            empty;
    }
    left_cyc
    {
        type            cyclic;
    }
    right_cyc
    {
        type            cyclic;
    }
    procBoundary3to0throughright_cyc
    {
        type            processorCyclic;
        value           nonuniform List<scalar> 
15
(
-1662.38
-1497.2
-1359.52
-1236.97
-1118.03
-996.824
-871.261
-741.093
-606.968
-469.829
-331.337
-195.368
-68.0651
23.5782
73.9833
)
;
    }
    procBoundary3to2
    {
        type            processor;
        value           nonuniform List<scalar> 
16
(
-1296.19
-1280.45
-1224.46
-1133.11
-1133.11
-1022.97
-932.365
-846.524
-764.771
-683.328
-596.968
-503.135
-407.322
-326.162
-216.876
-388.576
)
;
    }
}


// ************************************************************************* //
