/*--------------------------------*- C++ -*----------------------------------*\
| =========                 |                                                 |
| \\      /  F ield         | OpenFOAM: The Open Source CFD Toolbox           |
|  \\    /   O peration     | Version:  2.3.0                                 |
|   \\  /    A nd           | Web:      www.OpenFOAM.org                      |
|    \\/     M anipulation  |                                                 |
\*---------------------------------------------------------------------------*/
FoamFile
{
    version     2.0;
    format      ascii;
    class       volScalarField;
    location    "18000";
    object      T;
}
// * * * * * * * * * * * * * * * * * * * * * * * * * * * * * * * * * * * * * //

dimensions      [0 0 0 1 0 0 0];

internalField   nonuniform List<scalar> 
191
(
31.204
32.8394
34.3263
35.5537
36.5679
37.3891
38.0453
38.5691
38.9907
39.3339
39.6148
39.841
19.6505
21.3669
23.4753
25.4381
27.0142
28.2697
29.308
30.1951
30.9672
31.6419
32.224
32.7038
16.2358
17.9187
19.4964
20.8741
22.0911
23.1823
24.1673
25.0645
25.8744
26.5965
27.2255
27.7364
15.878
17.8189
19.4745
20.7577
21.7262
22.4823
23.1106
23.67
24.1987
24.7035
25.1748
25.6149
13.9552
16.4265
18.7548
20.6834
22.0931
23.0565
23.7019
24.1482
24.4875
24.7823
25.0688
25.3642
25.6753
14.2035
17.1146
19.8178
22.0126
23.5857
24.627
25.2741
25.6627
25.9054
26.0844
26.2529
26.4414
26.6635
14.3856
17.6825
20.6975
23.1023
24.8176
25.9493
26.6385
27.028
27.2447
27.3857
27.5142
27.6643
27.8476
14.432
18.0337
21.2773
23.8194
25.6348
26.8507
27.6079
28.0455
28.2953
28.4611
28.6073
28.7627
28.9311
14.2541
18.0611
21.4615
24.074
25.9414
27.2341
28.0924
28.6382
28.9879
29.234
29.4332
29.6108
29.7719
13.7262
17.5729
21.0479
23.7142
25.6346
27.0261
28.0239
28.7216
29.2109
29.5705
29.8538
30.0901
30.293
12.7533
16.431
19.8412
22.5293
24.4842
25.9654
27.1083
27.9749
28.6315
29.143
29.56
29.9139
30.224
11.2467
14.5453
17.6365
20.1786
22.0978
23.6067
24.8339
25.8265
26.6378
27.3193
27.912
28.446
28.951
9.07656
11.757
14.2563
16.3638
18.055
19.4206
20.5536
21.529
22.3978
23.1893
23.9357
24.6838
25.4093
6.11335
7.90521
9.57778
11.0144
12.193
13.1615
13.993
14.7477
15.4584
16.1839
16.943
17.7096
18.4693
2.37655
3.00609
3.57042
4.05092
4.45504
4.80399
5.12513
5.44588
5.79436
6.15869
6.53448
6.92139
7.31774
)
;

boundaryField
{
    top
    {
        type            fixedValue;
        value           uniform 0;
    }
    bottom
    {
        type            fixedValue;
        value           uniform 43.8;
    }
    frontAndBack
    {
        type            empty;
    }
    left_cyc
    {
        type            cyclic;
    }
    right_cyc
    {
        type            cyclic;
    }
    procBoundary3to0throughright_cyc
    {
        type            processorCyclic;
        value           nonuniform List<scalar> 
15
(
40.0063
33.0384
28.1391
26.0228
26.0024
26.9195
28.0578
29.0994
29.9121
30.4683
30.5048
29.4218
26.0987
19.2058
7.71447
)
;
    }
    procBoundary3to2
    {
        type            processor;
        value           nonuniform List<scalar> 
16
(
29.9787
18.2307
14.5876
13.8538
13.8538
11.7358
11.5744
11.3907
11.1372
10.7612
10.1798
9.33229
8.14512
6.52516
4.38978
1.73824
)
;
    }
}


// ************************************************************************* //
