/*--------------------------------*- C++ -*----------------------------------*\
| =========                 |                                                 |
| \\      /  F ield         | OpenFOAM: The Open Source CFD Toolbox           |
|  \\    /   O peration     | Version:  2.3.0                                 |
|   \\  /    A nd           | Web:      www.OpenFOAM.org                      |
|    \\/     M anipulation  |                                                 |
\*---------------------------------------------------------------------------*/
FoamFile
{
    version     2.0;
    format      ascii;
    class       volVectorField;
    location    "18000";
    object      U;
}
// * * * * * * * * * * * * * * * * * * * * * * * * * * * * * * * * * * * * * //

dimensions      [0 1 -1 0 0 0 0];

internalField   nonuniform List<vector> 
191
(
(72.6085 0 -6.11549)
(79.797 0 2.32589)
(78.2464 0 6.75159)
(72.7156 0 7.02308)
(67.0728 0 5.63934)
(62.3318 0 4.18882)
(58.4833 0 3.09499)
(55.32 0 2.35848)
(52.6477 0 1.8715)
(50.3638 0 1.53103)
(48.4519 0 1.25385)
(46.9872 0 0.959384)
(37.1411 0 -20.7309)
(50.468 0 -10.5568)
(61.6301 0 -1.04899)
(69.6252 0 3.26007)
(74.937 0 4.26876)
(78.2112 0 4.16264)
(79.9549 0 3.80499)
(80.6704 0 3.44725)
(80.7528 0 3.09973)
(80.5407 0 2.69939)
(80.3415 0 2.15332)
(80.4656 0 1.33184)
(24.6339 0 -27.4114)
(30.5702 0 -18.9214)
(40.2642 0 -10.9994)
(51.2474 0 -6.08039)
(60.6027 0 -3.09072)
(67.8522 0 -1.05393)
(72.9609 0 0.385256)
(76.4131 0 1.32214)
(78.7543 0 1.77367)
(80.4722 0 1.73046)
(81.9745 0 1.14898)
(83.5873 0 -0.0529733)
(17.5578 0 -32.489)
(21.8766 0 -26.1573)
(30.0022 0 -20.7178)
(40.1441 0 -16.1759)
(49.2612 0 -11.7394)
(56.6146 0 -7.68512)
(61.9923 0 -4.39771)
(65.8139 0 -2.07772)
(68.5952 0 -0.74581)
(70.7884 0 -0.343351)
(72.7315 0 -0.811643)
(74.639 0 -2.11389)
(9.02787 0 -40.9982)
(12.0967 0 -36.3841)
(15.6881 0 -31.8429)
(23.4499 0 -29.1927)
(31.8153 0 -25.292)
(39.3831 0 -19.5907)
(45.3637 0 -13.6993)
(49.6957 0 -8.7582)
(52.7821 0 -5.23919)
(55.0557 0 -3.16246)
(56.8609 0 -2.36133)
(58.41 0 -2.64664)
(59.7854 0 -3.85217)
(5.22082 0 -43.501)
(7.27027 0 -39.5124)
(10.2869 0 -37.2498)
(16.6531 0 -36.6257)
(22.6097 0 -32.4842)
(27.849 0 -25.5059)
(31.7934 0 -18.1058)
(34.5514 0 -11.8947)
(36.4666 0 -7.49154)
(37.8468 0 -4.86718)
(38.8912 0 -3.73245)
(39.673 0 -3.76651)
(40.1608 0 -4.69235)
(1.81669 0 -44.8522)
(2.60795 0 -41.7078)
(4.23349 0 -41.0574)
(7.62902 0 -41.4265)
(10.6207 0 -36.7905)
(13.1255 0 -28.8595)
(14.8936 0 -20.4678)
(16.0215 0 -13.485)
(16.7156 0 -8.57093)
(17.1299 0 -5.61483)
(17.3233 0 -4.21208)
(17.2572 0 -3.94078)
(16.8263 0 -4.4579)
(-1.42835 0 -44.8415)
(-2.15452 0 -42.0466)
(-3.32812 0 -42.1433)
(-3.82591 0 -42.8851)
(-4.18666 0 -38.0299)
(-4.53617 0 -29.7459)
(-4.80715 0 -20.9843)
(-5.09756 0 -13.7144)
(-5.41836 0 -8.60206)
(-5.79428 0 -5.47865)
(-6.28755 0 -3.86359)
(-7.01098 0 -3.27382)
(-8.10863 0 -3.34267)
(-4.74981 0 -43.36)
(-7.03537 0 -39.7736)
(-11.4301 0 -39.6498)
(-16.3013 0 -40.4961)
(-20.1187 0 -36.0414)
(-23.2732 0 -28.268)
(-25.4009 0 -19.902)
(-26.8673 0 -12.8734)
(-27.9283 0 -7.87359)
(-28.7943 0 -4.74765)
(-29.6383 0 -3.0019)
(-30.6368 0 -2.12951)
(-31.9775 0 -1.76785)
(-8.43423 0 -40.4383)
(-12.0255 0 -35.0552)
(-17.7202 0 -33.6289)
(-27.0079 0 -34.0849)
(-34.067 0 -30.7437)
(-39.8028 0 -24.4604)
(-43.6566 0 -17.3463)
(-46.1822 0 -11.1718)
(-47.8175 0 -6.67077)
(-48.9385 0 -3.77188)
(-49.8307 0 -2.03079)
(-50.7531 0 -0.944506)
(-51.9694 0 -0.173309)
(-12.7866 0 -36.3976)
(-17.1814 0 -30.1728)
(-21.9178 0 -25.3438)
(-33.0027 0 -24.9833)
(-42.5132 0 -23.2492)
(-50.1614 0 -18.9399)
(-55.4759 0 -13.541)
(-58.976 0 -8.69037)
(-61.1476 0 -5.0812)
(-62.4832 0 -2.69639)
(-63.3636 0 -1.15881)
(-64.1216 0 0.0297835)
(-65.0879 0 1.1756)
(-17.757 0 -31.2205)
(-23.1889 0 -25.2835)
(-27.9369 0 -18.089)
(-35.0024 0 -13.2183)
(-43.413 0 -12.9491)
(-51.0453 0 -11.8401)
(-57.101 0 -8.83311)
(-61.3106 0 -5.72517)
(-63.9492 0 -3.31911)
(-65.5713 0 -1.69294)
(-66.6252 0 -0.560155)
(-67.4516 0 0.612674)
(-68.3073 0 2.05727)
(-22.6917 0 -24.6115)
(-29.7269 0 -19.7519)
(-35.1097 0 -13.8102)
(-39.1914 0 -9.36711)
(-43.2103 0 -6.57806)
(-48.5253 0 -4.48595)
(-52.61 0 -2.91217)
(-55.3332 0 -1.73025)
(-57.0525 0 -0.721984)
(-58.2005 0 0.201235)
(-59.1501 0 1.1225)
(-60.1148 0 2.27448)
(-60.9148 0 3.778)
(-26.4127 0 -15.4381)
(-34.3771 0 -12.2449)
(-40.3883 0 -8.53897)
(-44.5804 0 -5.51263)
(-47.9019 0 -3.52453)
(-50.7117 0 -2.36217)
(-52.8894 0 -1.59792)
(-54.5261 0 -0.962249)
(-55.6718 0 -0.357964)
(-56.3789 0 0.224013)
(-56.6929 0 0.799368)
(-56.5614 0 1.46085)
(-55.8084 0 2.27006)
(-29.3407 0 -10.1456)
(-37.8312 0 -7.76523)
(-44.091 0 -5.02765)
(-48.1742 0 -2.63846)
(-50.804 0 -0.904014)
(-52.6115 0 0.212057)
(-53.9507 0 0.891205)
(-54.9586 0 1.35118)
(-55.6261 0 1.7147)
(-55.9205 0 2.02539)
(-55.8242 0 2.28788)
(-55.3061 0 2.51304)
(-54.2716 0 2.72824)
)
;

boundaryField
{
    top
    {
        type            directionMixed;
        refValue        uniform (0 0 0);
        refGradient     uniform (0 0 0);
        valueFraction   uniform (0 0 0 0 0 1);
        value           nonuniform List<vector> 
13
(
(-29.3407 0 0)
(-37.8312 0 0)
(-44.091 0 0)
(-48.1742 0 0)
(-50.804 0 0)
(-52.6115 0 0)
(-53.9507 0 0)
(-54.9586 0 0)
(-55.6261 0 0)
(-55.9205 0 0)
(-55.8242 0 0)
(-55.3061 0 0)
(-54.2716 0 0)
)
;
    }
    bottom
    {
        type            fixedValue;
        value           uniform (0 0 0);
    }
    frontAndBack
    {
        type            empty;
    }
    left_cyc
    {
        type            cyclic;
    }
    right_cyc
    {
        type            cyclic;
    }
    procBoundary3to0throughright_cyc
    {
        type            processorCyclic;
        value           nonuniform List<vector> 
15
(
(46.1646 0 0.558532)
(81.2331 0 0.0902818)
(85.5432 0 -1.93652)
(76.5976 0 -4.18853)
(60.9585 0 -5.79818)
(40.2517 0 -6.24693)
(15.9013 0 -5.47075)
(-9.71091 0 -3.79344)
(-33.8096 0 -1.68446)
(-53.6744 0 0.440321)
(-66.4886 0 2.31365)
(-69.358 0 3.60491)
(-61.4526 0 5.46325)
(-54.3711 0 3.11136)
(-52.6293 0 2.93102)
)
;
    }
    procBoundary3to2
    {
        type            processor;
        value           nonuniform List<vector> 
16
(
(57.9869 0 -15.1371)
(24.7143 0 -23.7422)
(18.452 0 -32.1854)
(13.368 0 -37.1291)
(13.368 0 -37.1291)
(5.84373 0 -44.2669)
(3.38877 0 -46.7983)
(1.23945 0 -48.0611)
(-0.773291 0 -48.1051)
(-2.8579 0 -46.9511)
(-5.25835 0 -44.5361)
(-8.11871 0 -40.7008)
(-11.3894 0 -35.1621)
(-14.6469 0 -27.9022)
(-17.168 0 -17.6891)
(-19.2087 0 -11.8979)
)
;
    }
}


// ************************************************************************* //
