/*--------------------------------*- C++ -*----------------------------------*\
| =========                 |                                                 |
| \\      /  F ield         | OpenFOAM: The Open Source CFD Toolbox           |
|  \\    /   O peration     | Version:  2.3.0                                 |
|   \\  /    A nd           | Web:      www.OpenFOAM.org                      |
|    \\/     M anipulation  |                                                 |
\*---------------------------------------------------------------------------*/
FoamFile
{
    version     2.0;
    format      ascii;
    class       volScalarField;
    location    "1000";
    object      p;
}
// * * * * * * * * * * * * * * * * * * * * * * * * * * * * * * * * * * * * * //

dimensions      [0 2 -2 0 0 0 0];

internalField   nonuniform List<scalar> 
191
(
-1809.55
-1830.18
-1845.69
-1849.62
-1838.82
-1820.74
-1799.92
-1779.1
-1759.09
-1739.72
-1720.97
-1704
-1691.81
-1642.83
-1653.99
-1661.71
-1663.37
-1657.38
-1647.25
-1634.54
-1621.15
-1608.13
-1595.7
-1584.13
-1574
-1566.77
-1495.17
-1500.24
-1502.96
-1503.21
-1500.72
-1496.15
-1489.42
-1481.79
-1474.13
-1466.57
-1458.95
-1451.4
-1445.41
-1353.38
-1354.62
-1354.27
-1353.73
-1353.62
-1352.63
-1350.07
-1346.62
-1342.77
-1338.47
-1333.38
-1327.65
-1322.96
-1212.95
-1212.27
-1210.48
-1209.7
-1210.94
-1211.84
-1211.67
-1210.7
-1209.16
-1206.97
-1203.94
-1200.58
-1071.68
-1070.05
-1067.67
-1066.96
-1068.92
-1070.92
-1072.12
-1072.57
-1072.46
-1071.87
-1071.03
-1071.22
-928.688
-926.535
-924.042
-923.512
-925.873
-928.589
-930.689
-932.073
-932.966
-933.788
-935.351
-940.268
-783.685
-781.228
-778.867
-778.537
-781.057
-784.192
-786.975
-789.177
-791.063
-793.442
-797.878
-809.44
-639.878
-636.791
-634.048
-631.89
-631.73
-634.264
-637.625
-640.945
-643.971
-647.105
-651.429
-659.572
-680.619
-493.592
-488.613
-485.268
-483.221
-483.164
-485.643
-489.166
-492.999
-497.054
-502.011
-508.66
-521.079
-552.667
-349.431
-341.091
-336.177
-333.809
-333.637
-336.083
-339.962
-344.69
-350.698
-358.963
-368.985
-389.431
-433.012
-211.348
-198.888
-190.767
-187.064
-186.216
-188.809
-193.745
-200.437
-210.05
-222.902
-237.218
-279.189
-355.881
-103.073
-71.9694
-56.1888
-49.7148
-47.1711
-49.9689
-56.4907
-65.5222
-80.5417
-106.18
-145.519
-197.503
-243.614
-19.026
6.58629
24.5752
39.0288
47.1464
43.9721
32.8774
18.2113
5.34962
-7.00858
-62.3499
-95.8018
-134.101
-5.6547
3.12318
0.862639
1.32295
-1.94507
-0.600364
3.56488
1.38103
-1.60003
-10.1724
-52.3229
-112.694
-170.046
)
;

boundaryField
{
    top
    {
        type            calculated;
        value           nonuniform List<scalar> 
13
(
-9.81
-9.81
-9.81
-9.81
-9.81
-9.81
-9.81
-9.81
-9.81
-9.81
-9.81
-9.81
-9.81
)
;
    }
    bottom
    {
        type            calculated;
        value           nonuniform List<scalar> 
13
(
-1898.73
-1921.19
-1938.62
-1943.34
-1931.02
-1911.31
-1889.07
-1866.85
-1845.2
-1824.13
-1803.54
-1784.71
-1770.97
)
;
    }
    frontAndBack
    {
        type            empty;
    }
    left_cyc
    {
        type            cyclic;
    }
    right_cyc
    {
        type            cyclic;
    }
    procBoundary2to1
    {
        type            processor;
        value           nonuniform List<scalar> 
16
(
-1787.89
-1630.43
-1488.57
-1350.57
-1212.21
-1072.11
-929.924
-785.723
-785.723
-644.48
-501.925
-362.351
-229.343
-140.419
-63.8068
-38.8962
)
;
    }
    procBoundary2to3
    {
        type            processor;
        value           nonuniform List<scalar> 
16
(
-1688.93
-1565.05
-1444.03
-1322.04
-1198.58
-1198.58
-1074.03
-950.626
-831.554
-714.076
-584.698
-468.095
-369.849
-254.199
-150.441
-200.24
)
;
    }
}


// ************************************************************************* //
