/*--------------------------------*- C++ -*----------------------------------*\
| =========                 |                                                 |
| \\      /  F ield         | OpenFOAM: The Open Source CFD Toolbox           |
|  \\    /   O peration     | Version:  2.3.0                                 |
|   \\  /    A nd           | Web:      www.OpenFOAM.org                      |
|    \\/     M anipulation  |                                                 |
\*---------------------------------------------------------------------------*/
FoamFile
{
    version     2.0;
    format      ascii;
    class       volScalarField;
    location    "1000";
    object      p_rgh;
}
// * * * * * * * * * * * * * * * * * * * * * * * * * * * * * * * * * * * * * //

dimensions      [0 2 -2 0 0 0 0];

internalField   nonuniform List<scalar> 
191
(
-1898.73
-1921.19
-1938.62
-1943.34
-1931.02
-1911.31
-1889.07
-1866.85
-1845.2
-1824.13
-1803.54
-1784.71
-1770.97
-1868.65
-1893.3
-1916.68
-1923.93
-1904.25
-1879.83
-1856.18
-1834.83
-1815.73
-1797.74
-1780.55
-1764.68
-1752.29
-1845.63
-1874.79
-1908.52
-1918.96
-1887.81
-1854.93
-1829.3
-1810.76
-1796.71
-1782.73
-1767.04
-1749.14
-1732.19
-1837.43
-1867.8
-1909.3
-1921.52
-1881.14
-1842.75
-1819.35
-1806.94
-1798.69
-1787.49
-1769.67
-1744.07
-1717.07
-1840.88
-1870.81
-1916.91
-1929.62
-1883.66
-1841.87
-1821.93
-1816.45
-1813.31
-1803.41
-1780.2
-1742.05
-1852.35
-1880.97
-1926.85
-1939.89
-1892.65
-1848.91
-1830.6
-1830.24
-1831.87
-1822.33
-1791.53
-1738.61
-1869.92
-1894.42
-1935.68
-1948.4
-1904.26
-1864.17
-1847.21
-1846.8
-1848.18
-1835.06
-1795.52
-1729.89
-1888.92
-1908.76
-1942.85
-1954.63
-1916.82
-1883.4
-1868.65
-1866.66
-1863.07
-1840.59
-1786.83
-1705.16
-1887.04
-1904.76
-1921.62
-1947.99
-1958.35
-1928.66
-1902.92
-1890.68
-1886.03
-1872.26
-1831.87
-1754.39
-1649.81
-1871.82
-1908.75
-1928.28
-1949.27
-1958.45
-1937.05
-1918
-1906.45
-1894.84
-1862.91
-1793.91
-1680.18
-1538.28
-1805.47
-1877.21
-1913.04
-1937.01
-1947.63
-1932.92
-1916.36
-1898.92
-1870.43
-1811.82
-1704.78
-1545.75
-1356.96
-1640.86
-1753.37
-1827.79
-1873.32
-1893.4
-1882.07
-1858.76
-1821.83
-1765.21
-1675.54
-1526.27
-1337.53
-1158.79
-1334.06
-1463.18
-1579.86
-1663.1
-1701.43
-1690.73
-1650.9
-1581.77
-1488.15
-1384.49
-1237.68
-1066.2
-893.807
-893.001
-1018.39
-1133.33
-1217.11
-1255.96
-1249.39
-1211.3
-1142.08
-1044.98
-928.875
-835.3
-700.899
-581.667
-338.744
-402.539
-470.567
-521.488
-550.314
-545.586
-516.03
-473.826
-420.954
-366.601
-345.578
-342.873
-341.293
)
;

boundaryField
{
    top
    {
        type            fixedValue;
        value           uniform 0;
    }
    bottom
    {
        type            fixedFluxPressure;
        gradient        uniform 0;
        value           nonuniform List<scalar> 
13
(
-1898.73
-1921.19
-1938.62
-1943.34
-1931.02
-1911.31
-1889.07
-1866.85
-1845.2
-1824.13
-1803.54
-1784.71
-1770.97
)
;
    }
    frontAndBack
    {
        type            empty;
    }
    left_cyc
    {
        type            cyclic;
    }
    right_cyc
    {
        type            cyclic;
    }
    procBoundary2to1
    {
        type            processor;
        value           nonuniform List<scalar> 
16
(
-1875.19
-1846.56
-1825.32
-1821.21
-1829.08
-1844.11
-1862.16
-1878.89
-1878.89
-1842
-1797.35
-1688.3
-1474.34
-1167.84
-776.252
-305.504
)
;
    }
    procBoundary2to3
    {
        type            processor;
        value           nonuniform List<scalar> 
16
(
-1767.62
-1748.78
-1727.03
-1709.18
-1700.86
-1700.86
-1682.21
-1658.68
-1620.98
-1547.49
-1397.96
-1199.56
-998.473
-757.301
-492.262
-330.743
)
;
    }
}


// ************************************************************************* //
