/*--------------------------------*- C++ -*----------------------------------*\
| =========                 |                                                 |
| \\      /  F ield         | OpenFOAM: The Open Source CFD Toolbox           |
|  \\    /   O peration     | Version:  2.3.0                                 |
|   \\  /    A nd           | Web:      www.OpenFOAM.org                      |
|    \\/     M anipulation  |                                                 |
\*---------------------------------------------------------------------------*/
FoamFile
{
    version     2.0;
    format      ascii;
    class       surfaceScalarField;
    location    "1000";
    object      phi;
}
// * * * * * * * * * * * * * * * * * * * * * * * * * * * * * * * * * * * * * //

dimensions      [0 3 -1 0 0 0 0];

internalField   nonuniform List<scalar> 
353
(
0.337053
0.0399117
0.227597
0.109456
0.0471077
0.180489
-0.155464
0.202572
-0.304454
0.14899
-0.385817
0.0813626
-0.415481
0.029664
-0.413652
-0.00182902
-0.392581
-0.0210712
-0.352236
-0.0403452
-0.283237
-0.0689981
-0.17598
-0.107257
-0.142344
0.427577
0.0910466
0.284881
0.252152
0.0488585
0.416512
-0.215818
0.467249
-0.414252
0.347424
-0.524602
0.191713
-0.56511
0.0701721
-0.558423
-0.00851568
-0.518338
-0.0611562
-0.447037
-0.111647
-0.341092
-0.174943
-0.200106
-0.248243
-0.308216
0.347224
0.142683
0.223134
0.376242
0.0280674
0.611579
-0.187537
0.682854
-0.354516
0.514402
-0.45353
0.290727
-0.495904
0.112547
-0.496037
-0.00838286
-0.462078
-0.0951161
-0.395433
-0.178291
-0.295745
-0.274631
-0.167797
-0.376191
-0.451955
0.219393
0.189079
0.130874
0.464761
0.00683207
0.735621
-0.126294
0.81598
-0.23737
0.625478
-0.312266
0.365623
-0.3522
0.15248
-0.361183
0.000600337
-0.340786
-0.115513
-0.290701
-0.228376
-0.212398
-0.352935
-0.1146
-0.473988
0.0921428
0.222988
0.0445531
0.512351
-0.00679751
0.786972
-0.0582812
0.867463
-0.111266
0.678463
-0.156821
0.411178
-0.187811
0.18347
-0.20021
0.0129996
-0.190885
-0.124839
-0.158526
-0.260734
-0.107012
-0.404449
-0.532111
-0.018514
0.237941
-0.0249095
0.518746
-0.0126407
0.774703
0.00485519
0.849967
0.0042901
0.679028
-0.0107108
0.426179
-0.0275453
0.200305
-0.0365246
0.0219788
-0.0318327
-0.129531
-0.0129154
-0.279652
0.0116395
-0.429004
-0.545002
-0.108625
0.229315
-0.076534
0.486656
-0.0133682
0.711537
0.0575217
0.779078
0.101
0.63555
0.115447
0.411731
0.115563
0.200189
0.114659
0.0228824
0.120244
-0.135116
0.130809
-0.290216
0.131119
-0.429314
-0.511912
-0.177864
0.195526
-0.112581
0.421373
-0.0120543
0.61101
0.096585
0.670438
0.174337
0.557798
0.21534
0.370727
0.233008
0.182521
0.241526
0.0143647
0.24909
-0.14268
0.252238
-0.293364
0.229873
-0.40695
-0.437592
-0.280353
-0.0508726
-0.225399
0.140572
-0.135293
0.331266
-0.010966
0.486683
0.120688
0.538784
0.222012
0.456474
0.284056
0.308683
0.31656
0.150017
0.331286
-0.000361089
0.334545
-0.145938
0.321212
-0.280032
0.268856
-0.354593
-0.329998
-0.311175
-0.0730213
-0.247689
0.0770863
-0.14537
0.228946
-0.0113863
0.3527
0.12922
0.398177
0.24253
0.343165
0.31728
0.233932
0.358154
0.109143
0.370871
-0.0130775
0.355799
-0.130867
0.306775
-0.231007
0.211465
-0.259284
-0.212609
-0.286199
-0.0637641
-0.237199
0.0280867
-0.141373
0.13312
-0.0139108
0.225238
0.121419
0.262848
0.233999
0.230586
0.310455
0.157476
0.350396
0.0692012
0.351875
-0.0145561
0.308461
-0.0874527
0.21941
-0.141956
0.105863
-0.145737
-0.137258
-0.199096
-0.019677
-0.184947
0.0139374
-0.118821
0.0669942
-0.017571
0.123988
0.0961935
0.149083
0.192579
0.1342
0.255655
0.0944003
0.281802
0.0430545
0.266637
0.000608807
0.206274
-0.0270903
0.120855
-0.0565367
0.0537954
-0.0786779
-0.109319
-0.0927525
-0.00175402
-0.0976584
0.0188434
-0.0746635
0.0439992
-0.0179079
0.0672323
0.0555818
0.0755934
0.117987
0.0717958
0.152865
0.0595217
0.157078
0.0388419
0.139957
0.0177292
0.112977
-0.00011014
0.0845831
-0.0281425
0.0602672
-0.0543621
-0.0807937
-0.0782137
0.0029369
-0.0732103
0.01384
-0.0521031
0.0228919
-0.0154476
0.0305769
0.0267012
0.0334446
0.0656998
0.0327973
0.0961999
0.0290216
0.113511
0.0215307
0.117971
0.0132692
0.113947
0.00391348
0.0973326
-0.0115277
0.0727198
-0.0297493
-0.046234
-0.0721295
-0.0597375
-0.0383579
-0.00943341
0.0224896
0.0536955
0.0809437
0.100924
0.112958
0.116249
0.1064
0.0815492
)
;

boundaryField
{
    top
    {
        type            calculated;
        value           nonuniform List<scalar> 
13
(
0.000813943
0.00144803
0.00151236
0.00165243
0.0015216
0.00159139
0.00177337
0.00155036
0.00123484
0.000623323
-0.00167892
-0.00489863
-0.00794521
)
;
    }
    bottom
    {
        type            calculated;
        value           uniform 0;
    }
    frontAndBack
    {
        type            empty;
        value           nonuniform 0();
    }
    left_cyc
    {
        type            cyclic;
        value           nonuniform 0();
    }
    right_cyc
    {
        type            cyclic;
        value           nonuniform 0();
    }
    procBoundary2to1
    {
        type            processor;
        value           nonuniform List<scalar> 
16
(
-0.376964
-0.478712
-0.39886
-0.265789
-0.126052
0.00356042
0.117251
0.211653
0.0252297
0.305996
0.333323
0.276942
0.155009
0.0748296
0.0735227
0.0742525
)
;
    }
    procBoundary2to3
    {
        type            processor;
        value           nonuniform List<scalar> 
16
(
-0.0336364
-0.0342339
-0.0240585
-0.0105219
-0.556033
-0.0488895
0.0245311
0.0980287
0.155553
0.161263
0.0940765
0.0305108
0.0258564
0.0317424
0.0381601
0.0432603
)
;
    }
}


// ************************************************************************* //
