/*--------------------------------*- C++ -*----------------------------------*\
| =========                 |                                                 |
| \\      /  F ield         | OpenFOAM: The Open Source CFD Toolbox           |
|  \\    /   O peration     | Version:  2.3.0                                 |
|   \\  /    A nd           | Web:      www.OpenFOAM.org                      |
|    \\/     M anipulation  |                                                 |
\*---------------------------------------------------------------------------*/
FoamFile
{
    version     2.0;
    format      ascii;
    class       volScalarField;
    location    "12000";
    object      p;
}
// * * * * * * * * * * * * * * * * * * * * * * * * * * * * * * * * * * * * * //

dimensions      [0 2 -2 0 0 0 0];

internalField   nonuniform List<scalar> 
191
(
-1367.7
-1431.85
-1481.99
-1519.14
-1547.49
-1570.01
-1588.63
-1604.59
-1618.62
-1631.17
-1642.52
-1652.84
-1312.32
-1343.82
-1369.94
-1391.1
-1408.87
-1424.15
-1437.48
-1449.42
-1460.3
-1470.34
-1479.72
-1488.59
-1257.34
-1273.23
-1290.78
-1300.1
-1306.55
-1313.26
-1319.97
-1326.63
-1333.22
-1339.73
-1346.21
-1352.74
-1143.15
-1171.93
-1194.76
-1203.33
-1206.96
-1210.35
-1213.6
-1216.91
-1220.38
-1224.06
-1228.01
-1232.3
-1024.51
-1038.17
-1072.45
-1089.32
-1095.38
-1099.4
-1102.59
-1105.03
-1107.05
-1108.93
-1110.87
-1113.01
-1115.39
-933.051
-943.822
-967.083
-978.073
-982.596
-986.285
-989.03
-990.925
-992.236
-993.21
-994.059
-994.918
-995.841
-847.813
-850.071
-858.46
-863.495
-866.16
-868.407
-870.056
-871.096
-871.652
-871.869
-871.877
-871.764
-871.562
-766.789
-754.222
-746.343
-745.7
-746.031
-746.224
-746.369
-746.277
-745.919
-745.311
-744.493
-743.506
-742.375
-686.278
-658.426
-633.456
-626.351
-623.824
-621.412
-619.572
-617.93
-616.32
-614.644
-612.865
-610.992
-609.036
-599.142
-563.135
-523.272
-507.497
-501.464
-495.944
-491.602
-487.894
-484.567
-481.448
-478.44
-475.529
-472.69
-504.452
-471.4
-415.749
-393.808
-383.107
-373.448
-365.651
-359.085
-353.387
-348.278
-343.585
-339.269
-335.255
-399.323
-362.993
-301.739
-276.082
-265.528
-256.107
-246.207
-236.668
-228.034
-220.262
-213.175
-206.758
-200.927
-300.297
-254.274
-185.736
-147.266
-144.139
-138.946
-133.401
-124.685
-114.461
-103.867
-93.4655
-84.1699
-75.969
-191.929
-153.205
-96.7226
-53.2264
-29.3285
-17.5224
-15.88
-16.1652
-14.5875
-10.1597
-3.36791
4.92053
14.0286
-330.274
-251.951
-160.018
-76.0795
-9.43138
34.5928
60.6432
75.7561
83.835
86.6714
85.03
81.2024
77.804
)
;

boundaryField
{
    top
    {
        type            calculated;
        value           nonuniform List<scalar> 
13
(
-9.81
-9.81
-9.81
-9.81
-9.81
-9.81
-9.81
-9.81
-9.81
-9.81
-9.81
-9.81
-9.81
)
;
    }
    bottom
    {
        type            calculated;
        value           nonuniform List<scalar> 
12
(
-1438.59
-1506.46
-1560.01
-1599.96
-1630.64
-1655.04
-1675.16
-1692.31
-1707.31
-1720.64
-1732.63
-1743.47
)
;
    }
    frontAndBack
    {
        type            empty;
    }
    left_cyc
    {
        type            cyclic;
    }
    right_cyc
    {
        type            cyclic;
    }
    procBoundary3to0throughright_cyc
    {
        type            processorCyclic;
        value           nonuniform List<scalar> 
15
(
-1662.31
-1497.14
-1359.47
-1236.94
-1118.01
-996.821
-871.267
-741.106
-606.986
-469.852
-331.366
-195.407
-68.12
23.5115
74.0006
)
;
    }
    procBoundary3to2
    {
        type            processor;
        value           nonuniform List<scalar> 
16
(
-1295.55
-1280.28
-1224.14
-1133.03
-1133.03
-1022.98
-932.397
-846.535
-764.751
-683.259
-596.87
-503.074
-407.382
-326.334
-217.035
-388.959
)
;
    }
}


// ************************************************************************* //
