/*--------------------------------*- C++ -*----------------------------------*\
| =========                 |                                                 |
| \\      /  F ield         | OpenFOAM: The Open Source CFD Toolbox           |
|  \\    /   O peration     | Version:  2.3.0                                 |
|   \\  /    A nd           | Web:      www.OpenFOAM.org                      |
|    \\/     M anipulation  |                                                 |
\*---------------------------------------------------------------------------*/
FoamFile
{
    version     2.0;
    format      ascii;
    class       surfaceScalarField;
    location    "12000";
    object      phi;
}
// * * * * * * * * * * * * * * * * * * * * * * * * * * * * * * * * * * * * * //

dimensions      [0 3 -1 0 0 0 0];

internalField   nonuniform List<scalar> 
354
(
0.509607
-0.0758899
0.527154
-0.017547
0.502509
0.0246451
0.46542
0.0370889
0.430998
0.0344227
0.402508
0.0284897
0.379258
0.0232501
0.359876
0.0193815
0.343394
0.0164824
0.32942
0.0139737
0.31815
0.0112696
0.00769055
0.291771
-0.161294
0.373302
-0.0990778
0.437053
-0.0391063
0.481533
-0.00739087
0.510259
0.00569608
0.527031
0.0117176
0.535311
0.0149706
0.538022
0.0166707
0.537616
0.0168882
0.536246
0.0153435
0.535963
0.0115533
0.0047768
0.183437
-0.201021
0.236196
-0.151837
0.304252
-0.107162
0.37204
-0.0751795
0.427829
-0.0500926
0.469106
-0.0295598
0.497733
-0.0136565
0.517102
-0.00269798
0.530659
0.00333107
0.541394
0.00460834
0.551764
0.00118381
-0.00710624
0.131616
-0.229937
0.17319
-0.193411
0.232928
-0.1669
0.297127
-0.139378
0.352517
-0.105483
0.395041
-0.0720839
0.425801
-0.0444158
0.447873
-0.0247705
0.46449
-0.0132856
0.478293
-0.00919462
0.491139
-0.0116626
-0.0200022
0.0701206
-0.281759
0.0932945
-0.253111
0.130353
-0.230469
0.183158
-0.219705
0.236819
-0.193039
0.282174
-0.150838
0.31659
-0.1065
0.341392
-0.0692177
0.35931
-0.0426891
0.372945
-0.0269207
0.384155
-0.0204042
0.393925
-0.0214324
-0.0285188
0.0414447
-0.294665
0.0591502
-0.270816
0.0895431
-0.260862
0.129962
-0.260124
0.167955
-0.231032
0.198597
-0.181481
0.220966
-0.128868
0.236588
-0.0848403
0.247608
-0.0537084
0.255723
-0.0350356
0.26184
-0.0265217
0.2661
-0.0256921
-0.0304755
0.0146135
-0.299104
0.0230639
-0.279267
0.0394347
-0.277233
0.0604129
-0.281102
0.0790715
-0.249691
0.0933261
-0.195735
0.102983
-0.138525
0.109073
-0.0909298
0.112783
-0.0574184
0.114828
-0.0370811
0.115276
-0.0269695
0.113644
-0.0240606
-0.0259806
-0.0121552
-0.294099
-0.0186757
-0.272746
-0.0233741
-0.272535
-0.0265057
-0.27797
-0.029045
-0.247152
-0.0310534
-0.193727
-0.032962
-0.136616
-0.0350128
-0.0888789
-0.0373435
-0.0550877
-0.0402397
-0.0341849
-0.0442832
-0.0229261
-0.0503343
-0.0180095
-0.0170014
-0.0395536
-0.27951
-0.0626996
-0.2496
-0.0913551
-0.243879
-0.12046
-0.248865
-0.144522
-0.22309
-0.162
-0.176249
-0.174067
-0.124549
-0.182535
-0.080411
-0.188992
-0.0486307
-0.194712
-0.028465
-0.200851
-0.0167874
-0.20863
-0.01023
-0.00644586
-0.0683099
-0.256325
-0.100463
-0.217447
-0.148291
-0.196051
-0.201831
-0.195325
-0.246027
-0.178894
-0.27783
-0.144446
-0.299228
-0.103151
-0.313166
-0.0664728
-0.322406
-0.0393907
-0.329155
-0.0217155
-0.335205
-0.0107383
-0.342309
-0.00312531
0.00327113
-0.0996598
-0.225782
-0.131657
-0.18545
-0.182476
-0.145232
-0.250095
-0.127706
-0.308679
-0.12031
-0.351715
-0.101409
-0.381227
-0.0736401
-0.400209
-0.0474905
-0.411966
-0.0276335
-0.419412
-0.0142695
-0.42487
-0.00528011
-0.430579
0.00258366
0.01115
-0.13618
-0.18618
-0.171123
-0.150507
-0.209343
-0.107012
-0.260382
-0.0766678
-0.314293
-0.0663983
-0.36027
-0.0554324
-0.394576
-0.039334
-0.417382
-0.0246846
-0.431604
-0.0134115
-0.440584
-0.00528987
-0.446845
0.000981563
-0.452401
0.00813921
0.0175043
-0.174328
-0.135808
-0.216341
-0.108495
-0.247605
-0.0757472
-0.273913
-0.0503594
-0.305564
-0.0347474
-0.336771
-0.024226
-0.359717
-0.0163877
-0.374561
-0.00984031
-0.384125
-0.00384781
-0.391168
0.0017526
-0.397508
0.00732155
-0.403301
0.0139327
0.0219904
-0.202179
-0.078388
-0.249162
-0.0615114
-0.283061
-0.0418478
-0.308033
-0.025388
-0.328543
-0.0142377
-0.345127
-0.00764115
-0.357909
-0.00360563
-0.367233
-0.000516856
-0.373443
0.00236191
-0.376868
0.00517781
-0.377496
0.00794974
-0.374575
0.0110117
0.0147172
-0.223501
-0.272882
-0.307389
-0.329816
-0.344582
-0.355076
-0.362934
-0.368547
-0.371775
-0.372441
-0.370409
-0.365279
)
;

boundaryField
{
    top
    {
        type            calculated;
        value           nonuniform List<scalar> 
13
(
-0.0162184
-0.0121305
-0.00734097
-0.00296157
0.000528505
0.00285312
0.0042529
0.00509538
0.00559039
0.00584407
0.00591695
0.0058819
0.00581832
)
;
    }
    bottom
    {
        type            calculated;
        value           uniform 0;
    }
    frontAndBack
    {
        type            empty;
        value           nonuniform 0();
    }
    left_cyc
    {
        type            cyclic;
        value           nonuniform 0();
    }
    right_cyc
    {
        type            cyclic;
        value           nonuniform 0();
    }
    procBoundary3to0throughright_cyc
    {
        type            processorCyclic;
        value           nonuniform List<scalar> 
15
(
0.31046
0.538876
0.563647
0.504035
0.402441
0.268056
0.10915
-0.0593134
-0.219186
-0.352026
-0.438458
-0.458755
-0.407787
-0.367302
-0.35638
)
;
    }
    procBoundary3to2
    {
        type            processor;
        value           nonuniform List<scalar> 
16
(
-0.433717
-0.206366
-0.14371
-0.102701
0.260963
-0.0493247
-0.0285386
-0.0101743
0.00715019
0.0249644
0.0451251
0.0691166
0.0965783
0.123956
0.144759
0.161332
)
;
    }
}


// ************************************************************************* //
