/*--------------------------------*- C++ -*----------------------------------*\
| =========                 |                                                 |
| \\      /  F ield         | OpenFOAM: The Open Source CFD Toolbox           |
|  \\    /   O peration     | Version:  2.3.0                                 |
|   \\  /    A nd           | Web:      www.OpenFOAM.org                      |
|    \\/     M anipulation  |                                                 |
\*---------------------------------------------------------------------------*/
FoamFile
{
    version     2.0;
    format      ascii;
    class       volVectorField;
    location    "12000";
    object      U;
}
// * * * * * * * * * * * * * * * * * * * * * * * * * * * * * * * * * * * * * //

dimensions      [0 1 -1 0 0 0 0];

internalField   nonuniform List<vector> 
191
(
(72.5208 0 -6.18791)
(79.778 0 2.27017)
(78.2857 0 6.73463)
(72.7665 0 7.0313)
(67.1168 0 5.65238)
(62.3673 0 4.1997)
(58.5117 0 3.10255)
(55.3434 0 2.36343)
(52.6676 0 1.8748)
(50.3807 0 1.53343)
(48.4659 0 1.25597)
(46.9974 0 0.96185)
(37.0382 0 -20.7754)
(50.3698 0 -10.65)
(61.5562 0 -1.10644)
(69.5754 0 3.24385)
(74.9041 0 4.26835)
(78.1924 0 4.16623)
(79.9458 0 3.80868)
(80.6678 0 3.45036)
(80.754 0 3.10268)
(80.5433 0 2.70283)
(80.3432 0 2.15808)
(80.4642 0 1.33894)
(24.591 0 -27.4616)
(30.5242 0 -18.9958)
(40.1744 0 -11.0489)
(51.1668 0 -6.10764)
(60.5354 0 -3.10804)
(67.803 0 -1.06632)
(72.9273 0 0.37642)
(76.3908 0 1.31669)
(78.7392 0 1.77168)
(80.4609 0 1.73214)
(81.964 0 1.15477)
(83.5756 0 -0.0424818)
(17.5303 0 -32.5345)
(21.8435 0 -26.2022)
(29.9195 0 -20.751)
(40.0675 0 -16.208)
(49.1938 0 -11.7716)
(56.5638 0 -7.71376)
(61.9564 0 -4.41999)
(65.7888 0 -2.0926)
(68.5769 0 -0.753449)
(70.7738 0 -0.344274)
(72.7183 0 -0.806277)
(74.626 0 -2.10261)
(9.0085 0 -41.0284)
(12.0753 0 -36.427)
(15.6518 0 -31.8633)
(23.3797 0 -29.2068)
(31.7521 0 -25.3275)
(39.3285 0 -19.6365)
(45.3235 0 -13.7427)
(49.6676 0 -8.7924)
(52.7626 0 -5.26215)
(55.0414 0 -3.17491)
(56.8495 0 -2.36479)
(58.4005 0 -2.64255)
(59.7773 0 -3.84187)
(5.21076 0 -43.5288)
(7.256 0 -39.5422)
(10.242 0 -37.2463)
(16.5972 0 -36.634)
(22.5628 0 -32.5275)
(27.812 0 -25.5642)
(31.7681 0 -18.1613)
(34.5348 0 -11.938)
(36.4556 0 -7.52036)
(37.8392 0 -4.88316)
(38.8859 0 -3.73817)
(39.6697 0 -3.7644)
(40.1598 0 -4.68447)
(1.8155 0 -44.8775)
(2.60521 0 -41.7201)
(4.20657 0 -41.0332)
(7.59801 0 -41.4377)
(10.5978 0 -36.8431)
(13.1096 0 -28.928)
(14.8846 0 -20.5314)
(16.0171 0 -13.5336)
(16.7139 0 -8.60302)
(17.1297 0 -5.63293)
(17.3246 0 -4.21973)
(17.2605 0 -3.94109)
(16.8325 0 -4.4533)
(-1.42009 0 -44.8674)
(-2.14693 0 -42.053)
(-3.31818 0 -42.1101)
(-3.82355 0 -42.8993)
(-4.17931 0 -38.0873)
(-4.52943 0 -29.8188)
(-4.80035 0 -21.0511)
(-5.091 0 -13.7648)
(-5.41215 0 -8.6351)
(-5.78812 0 -5.49765)
(-6.28076 0 -3.87272)
(-7.00251 0 -3.27654)
(-8.09736 0 -3.34142)
(-4.73237 0 -43.3879)
(-7.0191 0 -39.7817)
(-11.3733 0 -39.6198)
(-16.262 0 -40.5094)
(-20.0796 0 -36.0953)
(-23.2445 0 -28.3368)
(-25.3801 0 -19.9655)
(-26.852 0 -12.9214)
(-27.9164 0 -7.90527)
(-28.7843 0 -4.7663)
(-29.6286 0 -3.01184)
(-30.6259 0 -2.13428)
(-31.9641 0 -1.76965)
(-8.40791 0 -40.4724)
(-11.9957 0 -35.0952)
(-17.626 0 -33.6187)
(-26.9365 0 -34.0912)
(-34.0026 0 -30.784)
(-39.7561 0 -24.5154)
(-43.6247 0 -17.3995)
(-46.1604 0 -11.2131)
(-47.8023 0 -6.69848)
(-48.927 0 -3.78869)
(-49.8208 0 -2.04072)
(-50.7426 0 -0.950957)
(-51.9564 0 -0.178053)
(-12.7506 0 -36.4373)
(-17.1432 0 -30.2325)
(-21.8581 0 -25.3468)
(-32.9143 0 -24.9813)
(-42.4395 0 -23.2746)
(-50.1051 0 -18.9788)
(-55.437 0 -13.5809)
(-58.9499 0 -8.72188)
(-61.1304 0 -5.1027)
(-62.4713 0 -2.70981)
(-63.3543 0 -1.16777)
(-64.1123 0 0.0220126)
(-65.0765 0 1.16797)
(-17.7073 0 -31.259)
(-23.1496 0 -25.3421)
(-27.9011 0 -18.1378)
(-34.9234 0 -13.2387)
(-43.3493 0 -12.9508)
(-50.9868 0 -11.8564)
(-57.0586 0 -8.85665)
(-61.2817 0 -5.74489)
(-63.9303 0 -3.33292)
(-65.5582 0 -1.70174)
(-66.615 0 -0.567305)
(-67.4423 0 0.603955)
(-68.2972 0 2.04721)
(-22.6299 0 -24.643)
(-29.6768 0 -19.796)
(-35.0739 0 -13.8528)
(-39.1572 0 -9.39293)
(-43.1733 0 -6.59466)
(-48.4855 0 -4.49863)
(-52.5825 0 -2.92118)
(-55.3139 0 -1.73734)
(-57.0388 0 -0.728281)
(-58.1894 0 0.195373)
(-59.1392 0 1.11607)
(-60.1043 0 2.26578)
(-60.906 0 3.7675)
(-26.3435 0 -15.4595)
(-34.321 0 -12.2735)
(-40.3487 0 -8.56654)
(-44.5507 0 -5.53213)
(-47.877 0 -3.53521)
(-50.6903 0 -2.36839)
(-52.8723 0 -1.60236)
(-54.5124 0 -0.966244)
(-55.6612 0 -0.361816)
(-56.371 0 0.220327)
(-56.6875 0 0.795513)
(-56.5595 0 1.45604)
(-55.8109 0 2.26461)
(-29.2664 0 -10.1621)
(-37.7724 0 -7.7861)
(-44.0505 0 -5.04861)
(-48.1482 0 -2.65453)
(-50.7861 0 -0.914368)
(-52.5974 0 0.205696)
(-53.939 0 0.887279)
(-54.9489 0 1.34829)
(-55.6186 0 1.71228)
(-55.9154 0 2.0233)
(-55.8215 0 2.28611)
(-55.3064 0 2.51143)
(-54.2755 0 2.72669)
)
;

boundaryField
{
    top
    {
        type            directionMixed;
        refValue        uniform (0 0 0);
        refGradient     uniform (0 0 0);
        valueFraction   uniform (0 0 0 0 0 1);
        value           nonuniform List<vector> 
13
(
(-29.2664 0 0)
(-37.7724 0 0)
(-44.0505 0 0)
(-48.1482 0 0)
(-50.7861 0 0)
(-52.5974 0 0)
(-53.939 0 0)
(-54.9489 0 0)
(-55.6186 0 0)
(-55.9154 0 0)
(-55.8215 0 0)
(-55.3064 0 0)
(-54.2755 0 0)
)
;
    }
    bottom
    {
        type            fixedValue;
        value           uniform (0 0 0);
    }
    frontAndBack
    {
        type            empty;
    }
    left_cyc
    {
        type            cyclic;
    }
    right_cyc
    {
        type            cyclic;
    }
    procBoundary3to0throughright_cyc
    {
        type            processorCyclic;
        value           nonuniform List<vector> 
15
(
(46.1692 0 0.562042)
(81.2263 0 0.100724)
(85.5288 0 -1.92126)
(76.5846 0 -4.17222)
(60.9523 0 -5.78337)
(40.254 0 -6.2355)
(15.9112 0 -5.46354)
(-9.69602 0 -3.79031)
(-33.7928 0 -1.68499)
(-53.658 0 0.436273)
(-66.4741 0 2.30612)
(-69.3465 0 3.5948)
(-61.4457 0 5.45221)
(-54.3779 0 3.10606)
(-52.6372 0 2.92959)
)
;
    }
    procBoundary3to2
    {
        type            processor;
        value           nonuniform List<vector> 
16
(
(57.849 0 -15.2098)
(24.6334 0 -23.7544)
(18.4064 0 -32.211)
(13.3381 0 -37.1573)
(13.3381 0 -37.1573)
(5.8217 0 -44.2863)
(3.37735 0 -46.8191)
(1.23752 0 -48.0828)
(-0.766482 0 -48.128)
(-2.84249 0 -46.9753)
(-5.23247 0 -44.5614)
(-8.08048 0 -40.7258)
(-11.3371 0 -35.1849)
(-14.5803 0 -27.9219)
(-17.0912 0 -17.7029)
(-19.124 0 -11.909)
)
;
    }
}


// ************************************************************************* //
