/*--------------------------------*- C++ -*----------------------------------*\
| =========                 |                                                 |
| \\      /  F ield         | OpenFOAM: The Open Source CFD Toolbox           |
|  \\    /   O peration     | Version:  2.3.0                                 |
|   \\  /    A nd           | Web:      www.OpenFOAM.org                      |
|    \\/     M anipulation  |                                                 |
\*---------------------------------------------------------------------------*/
FoamFile
{
    version     2.0;
    format      ascii;
    class       volScalarField;
    location    "4000";
    object      NUEff;
}
// * * * * * * * * * * * * * * * * * * * * * * * * * * * * * * * * * * * * * //

dimensions      [0 2 -1 0 0 0 0];

internalField   nonuniform List<scalar> 
3060
(
0.174714
0.174529
0.174192
0.173713
0.173106
0.172385
0.171562
0.17065
0.169659
0.168598
0.167474
0.166292
0.165063
0.163812
0.162577
0.16136
0.160163
0.158991
0.15786
0.156789
0.1558
0.154915
0.154158
0.153555
0.153131
0.152913
0.152917
0.153145
0.153578
0.154192
0.154961
0.15586
0.156867
0.157958
0.159111
0.160309
0.161537
0.162789
0.164068
0.165353
0.166598
0.167783
0.168898
0.169934
0.17088
0.171727
0.172462
0.17307
0.173538
0.173853
0.174004
0.173981
0.173786
0.17343
0.172924
0.172281
0.171517
0.170642
0.169671
0.168614
0.16748
0.166278
0.165021
0.163731
0.16246
0.161214
0.159993
0.158805
0.157665
0.156595
0.155614
0.154746
0.154015
0.153446
0.153065
0.152894
0.152949
0.153223
0.153696
0.154342
0.155134
0.156049
0.157062
0.158151
0.159295
0.160475
0.161678
0.162898
0.164136
0.165388
0.166606
0.167773
0.168882
0.169925
0.170896
0.171786
0.172584
0.173276
0.173851
0.174294
0.174593
0.174736
0.618263
0.610644
0.596436
0.575729
0.548787
0.516303
0.479602
0.440632
0.401629
0.3646
0.330918
0.301232
0.275625
0.253851
0.235726
0.22093
0.208643
0.198376
0.189803
0.182685
0.17683
0.172089
0.168357
0.165568
0.163697
0.162753
0.162772
0.163755
0.16567
0.168515
0.172323
0.177167
0.183169
0.190493
0.199358
0.210041
0.222928
0.238595
0.257947
0.280954
0.307928
0.338944
0.373604
0.410825
0.448794
0.48525
0.517989
0.545314
0.566173
0.580029
0.586592
0.585591
0.577101
0.561383
0.538768
0.509904
0.476006
0.438931
0.400949
0.36425
0.330467
0.300491
0.274572
0.252564
0.2342
0.219318
0.207052
0.196878
0.18844
0.181481
0.175796
0.171232
0.167681
0.16508
0.163407
0.162671
0.162909
0.164097
0.166208
0.169239
0.173227
0.178247
0.184417
0.191897
0.20089
0.211655
0.224549
0.240111
0.259224
0.281942
0.308589
0.339339
0.373983
0.411688
0.450895
0.489486
0.525253
0.556392
0.581753
0.60078
0.613277
0.61916
0.938996
0.93824
0.93681
0.934658
0.931698
0.927787
0.922705
0.916115
0.907493
0.896004
0.880262
0.857854
0.824379
0.77167
0.686458
0.564783
0.436562
0.341226
0.280923
0.243122
0.218533
0.201975
0.190641
0.182991
0.178198
0.175868
0.175911
0.178334
0.183247
0.191077
0.202706
0.219784
0.245347
0.285065
0.349165
0.450817
0.583973
0.704092
0.783692
0.832527
0.863549
0.884333
0.898919
0.909518
0.917405
0.923346
0.927821
0.931134
0.933476
0.934964
0.935654
0.935549
0.934654
0.93295
0.930368
0.926775
0.921952
0.915558
0.907053
0.895564
0.879626
0.85666
0.821903
0.766431
0.676006
0.548185
0.420177
0.329277
0.272845
0.237597
0.214662
0.199228
0.188711
0.181706
0.17747
0.175667
0.176249
0.179202
0.184688
0.193198
0.20571
0.224024
0.251434
0.294025
0.36235
0.468015
0.599482
0.712895
0.788014
0.834567
0.864545
0.884891
0.899343
0.909978
0.918005
0.92416
0.92891
0.932556
0.935293
0.93725
0.938502
0.939085
0.971239
0.970933
0.97036
0.969509
0.968359
0.966872
0.964996
0.962651
0.959722
0.956037
0.951342
0.945236
0.937075
0.925759
0.909288
0.883826
0.841092
0.762119
0.617006
0.439268
0.322548
0.261599
0.228422
0.209359
0.198586
0.193631
0.193714
0.19886
0.209923
0.229524
0.263861
0.327597
0.450335
0.631746
0.772354
0.847379
0.888019
0.912335
0.928033
0.938829
0.94661
0.952417
0.956859
0.960316
0.963031
0.965164
0.966826
0.968087
0.968996
0.969581
0.969854
0.969812
0.969458
0.968791
0.967793
0.966433
0.964657
0.962383
0.959493
0.955807
0.951052
0.944801
0.936356
0.924508
0.907023
0.87946
0.832199
0.743119
0.583856
0.410769
0.30672
0.252877
0.223328
0.206357
0.197002
0.193206
0.194431
0.200775
0.213382
0.235361
0.273985
0.346222
0.482095
0.661952
0.787965
0.854725
0.891694
0.91427
0.929111
0.939455
0.946996
0.952684
0.957084
0.960551
0.963314
0.965527
0.967295
0.96869
0.969759
0.970536
0.971039
0.971274
0.982257
0.982065
0.981706
0.981176
0.980464
0.979553
0.978417
0.977018
0.975303
0.973194
0.97058
0.967293
0.963084
0.957556
0.950055
0.939454
0.923615
0.898126
0.852725
0.761721
0.586011
0.399512
0.29916
0.251612
0.228295
0.218368
0.218516
0.228815
0.252816
0.301984
0.406517
0.59791
0.770142
0.857478
0.901101
0.92569
0.941014
0.951289
0.958553
0.963901
0.967962
0.97112
0.973616
0.97561
0.977209
0.978488
0.979498
0.980272
0.980835
0.981199
0.98137
0.981344
0.981123
0.980708
0.980091
0.979258
0.978182
0.976825
0.975131
0.973018
0.970367
0.967002
0.962648
0.956874
0.948956
0.937616
0.920415
0.892166
0.840465
0.734444
0.54251
0.371136
0.285508
0.244793
0.225035
0.217529
0.219941
0.232835
0.260963
0.31848
0.440223
0.639687
0.79232
0.867514
0.90612
0.928441
0.942614
0.952255
0.959156
0.96429
0.968228
0.971318
0.973788
0.975785
0.977411
0.978737
0.979811
0.980668
0.981331
0.981816
0.982131
0.982279
0.987575
0.987429
0.987157
0.986756
0.98622
0.985538
0.984696
0.983668
0.982421
0.980909
0.979062
0.976783
0.973926
0.970269
0.965466
0.958942
0.949699
0.935911
0.913842
0.874896
0.797059
0.636529
0.436425
0.323051
0.273358
0.254017
0.254274
0.27433
0.325597
0.442867
0.645916
0.802897
0.87816
0.915908
0.937365
0.950801
0.959818
0.966183
0.970871
0.974434
0.97721
0.979414
0.981188
0.982626
0.983794
0.984738
0.985489
0.98607
0.986494
0.986769
0.986898
0.986879
0.986711
0.986398
0.985934
0.98531
0.984511
0.983512
0.982278
0.98076
0.978885
0.976548
0.973591
0.969773
0.964712
0.95777
0.947819
0.932752
0.908149
0.863517
0.771741
0.590443
0.40288
0.307802
0.266826
0.252419
0.257007
0.282576
0.344449
0.482428
0.688024
0.82333
0.887536
0.920741
0.940102
0.952452
0.960855
0.966854
0.971315
0.974737
0.977426
0.979581
0.981332
0.98277
0.983955
0.984932
0.985731
0.986373
0.986873
0.98724
0.98748
0.987592
0.990566
0.990443
0.990212
0.989873
0.989422
0.988851
0.98815
0.987302
0.986283
0.985058
0.98358
0.981778
0.97955
0.976744
0.973127
0.968312
0.961686
0.952192
0.937847
0.914555
0.872845
0.789099
0.62462
0.440947
0.343499
0.307064
0.307508
0.345275
0.44564
0.632105
0.79416
0.875679
0.916322
0.939076
0.953116
0.962417
0.96891
0.973625
0.977175
0.979924
0.9821
0.983852
0.985279
0.986448
0.987408
0.98819
0.988816
0.989303
0.98966
0.989893
0.990002
0.989985
0.989844
0.989579
0.989189
0.988667
0.988001
0.987176
0.986165
0.984933
0.98343
0.981578
0.97927
0.976338
0.972526
0.967418
0.960316
0.950019
0.934216
0.90802
0.859806
0.760824
0.578883
0.410871
0.330933
0.304122
0.312577
0.361376
0.481649
0.675604
0.817268
0.886437
0.921871
0.942227
0.955029
0.963633
0.969708
0.974161
0.977541
0.980179
0.982284
0.983993
0.9854
0.986567
0.987539
0.988347
0.989012
0.989551
0.989972
0.990282
0.990485
0.990581
0.992395
0.992282
0.992071
0.991763
0.991353
0.990838
0.990209
0.989454
0.988554
0.987482
0.9862
0.984654
0.982763
0.980409
0.977411
0.973472
0.968152
0.96072
0.949875
0.93313
0.905283
0.854445
0.754669
0.589777
0.447804
0.386275
0.387013
0.450668
0.595338
0.759512
0.857301
0.907029
0.934313
0.950746
0.961402
0.968709
0.973938
0.977805
0.980759
0.983076
0.984932
0.986442
0.987684
0.988713
0.989564
0.990262
0.990826
0.991266
0.99159
0.991802
0.991901
0.991886
0.991757
0.991517
0.991163
0.990691
0.990094
0.989357
0.988463
0.987383
0.986076
0.984485
0.982522
0.98006
0.9769
0.972728
0.967042
0.959015
0.947155
0.928545
0.896937
0.837847
0.721981
0.550521
0.426765
0.381253
0.395669
0.476887
0.636016
0.78741
0.871063
0.9141
0.938283
0.953138
0.962917
0.969703
0.974606
0.978263
0.981074
0.983295
0.985087
0.986557
0.98778
0.988804
0.989664
0.990385
0.990983
0.99147
0.991853
0.992136
0.992321
0.992408
0.993574
0.993465
0.993262
0.992965
0.992573
0.992081
0.991485
0.990773
0.989932
0.98894
0.987764
0.986359
0.984657
0.982557
0.979908
0.976467
0.971883
0.965592
0.956631
0.943261
0.922115
0.886245
0.82136
0.70855
0.573452
0.49441
0.495454
0.576836
0.712868
0.824435
0.888163
0.923383
0.944169
0.957328
0.966155
0.972355
0.976872
0.980261
0.982877
0.98495
0.986627
0.988006
0.989151
0.990108
0.990905
0.991565
0.992101
0.992521
0.992831
0.993034
0.993129
0.993115
0.992991
0.992761
0.992422
0.991972
0.991405
0.990711
0.989874
0.988872
0.987671
0.986222
0.984453
0.982256
0.979467
0.975822
0.97093
0.964157
0.954408
0.939671
0.915987
0.875078
0.800436
0.676545
0.548013
0.4874
0.507331
0.606024
0.742817
0.842262
0.897648
0.928675
0.947318
0.959302
0.967439
0.973212
0.977455
0.980662
0.98315
0.985134
0.986751
0.988091
0.989215
0.990165
0.990971
0.991651
0.992219
0.992684
0.993052
0.993324
0.993503
0.993587
0.994366
0.994257
0.994053
0.993756
0.993364
0.992875
0.992285
0.991586
0.990765
0.989805
0.988679
0.987345
0.985744
0.983787
0.981338
0.978189
0.974046
0.968439
0.960602
0.949208
0.931858
0.904035
0.857444
0.781128
0.681905
0.610655
0.611762
0.684825
0.784188
0.859644
0.905512
0.932894
0.949982
0.961214
0.968948
0.974483
0.978576
0.981685
0.984108
0.986047
0.987631
0.988945
0.990047
0.990975
0.991755
0.992405
0.992935
0.993353
0.993662
0.993864
0.993959
0.993945
0.993822
0.993592
0.993254
0.992808
0.992247
0.991565
0.990748
0.989777
0.988624
0.987246
0.98558
0.983531
0.980954
0.97762
0.973204
0.967183
0.958693
0.94622
0.926991
0.895762
0.843172
0.759271
0.660585
0.603676
0.623269
0.707744
0.80425
0.872049
0.912683
0.937158
0.95263
0.962921
0.970077
0.975243
0.979091
0.982035
0.984338
0.986192
0.987716
0.98899
0.99007
0.990992
0.991779
0.992449
0.993012
0.993476
0.993843
0.994116
0.994295
0.994379
0.994921
0.994808
0.994598
0.994292
0.993888
0.993387
0.992784
0.992073
0.991245
0.990285
0.989168
0.987857
0.9863
0.984412
0.98207
0.979092
0.975215
0.970037
0.962915
0.952785
0.937838
0.914951
0.879079
0.824665
0.75625
0.704535
0.705473
0.758502
0.82697
0.88084
0.916213
0.938767
0.953503
0.963498
0.970534
0.975653
0.97949
0.98244
0.984761
0.986637
0.988183
0.989479
0.990575
0.991507
0.992295
0.992955
0.993496
0.993923
0.99424
0.994448
0.994545
0.99453
0.994404
0.994168
0.993823
0.993366
0.992794
0.992102
0.991278
0.990306
0.989162
0.987807
0.986183
0.984205
0.981741
0.978589
0.974463
0.968917
0.961232
0.950211
0.9338
0.908465
0.868716
0.809804
0.741374
0.699287
0.713999
0.774209
0.840769
0.89004
0.921933
0.942346
0.9558
0.965009
0.971543
0.976331
0.979942
0.982735
0.984942
0.986734
0.98822
0.989476
0.990549
0.991473
0.992269
0.992951
0.993527
0.994003
0.994381
0.994662
0.994847
0.994934
0.995328
0.99521
0.994989
0.994667
0.994243
0.993718
0.993087
0.992348
0.991492
0.990505
0.989367
0.988044
0.986486
0.984617
0.982319
0.979428
0.975709
0.970803
0.964158
0.954895
0.941609
0.922077
0.893186
0.852462
0.804483
0.769091
0.769838
0.806256
0.854347
0.894724
0.923245
0.942505
0.95561
0.964753
0.971322
0.976178
0.979865
0.982735
0.985017
0.98688
0.988431
0.989743
0.990862
0.99182
0.992635
0.993321
0.993884
0.994331
0.994662
0.994878
0.99498
0.994964
0.994833
0.994586
0.994225
0.993749
0.993154
0.992435
0.991584
0.990587
0.989421
0.988052
0.986428
0.984468
0.98205
0.978994
0.975042
0.969802
0.962661
0.952644
0.938183
0.916832
0.885355
0.842044
0.794489
0.765565
0.775555
0.816865
0.864198
0.901812
0.927936
0.94557
0.95763
0.9661
0.972223
0.976776
0.980251
0.982968
0.98514
0.986919
0.988409
0.98968
0.990776
0.991727
0.992552
0.993262
0.993865
0.994364
0.994761
0.995057
0.995251
0.995342
0.995645
0.99552
0.995286
0.994943
0.994493
0.993935
0.993267
0.992485
0.991583
0.99055
0.989366
0.988002
0.98641
0.984519
0.982219
0.979361
0.975725
0.970992
0.964677
0.95605
0.944005
0.926955
0.903027
0.871477
0.836759
0.812319
0.812931
0.838233
0.873127
0.90446
0.928104
0.944921
0.956802
0.965319
0.971562
0.976252
0.979861
0.982704
0.984995
0.986883
0.988471
0.989826
0.99099
0.991992
0.992848
0.993571
0.994166
0.994637
0.994986
0.995215
0.995322
0.995305
0.995167
0.994907
0.994525
0.994022
0.993394
0.992638
0.991745
0.990703
0.989492
0.988082
0.986423
0.984442
0.982023
0.979004
0.975149
0.970107
0.963352
0.95408
0.941082
0.922663
0.896985
0.863988
0.829979
0.809991
0.816718
0.845515
0.880339
0.910022
0.931991
0.947556
0.958577
0.966512
0.972356
0.976764
0.980171
0.982866
0.985046
0.986851
0.988377
0.989691
0.990833
0.991831
0.9927
0.993452
0.994091
0.994621
0.995043
0.995357
0.995563
0.99566
0.995908
0.995775
0.995525
0.99516
0.99468
0.994084
0.99337
0.992537
0.991577
0.990481
0.989232
0.987803
0.986151
0.984207
0.981871
0.979003
0.975402
0.970776
0.964705
0.956579
0.945538
0.930472
0.910335
0.885352
0.859562
0.84227
0.842794
0.860852
0.886869
0.91173
0.931649
0.946514
0.957404
0.965425
0.971428
0.976013
0.979592
0.98245
0.984782
0.986725
0.988375
0.989793
0.991019
0.992078
0.992985
0.993752
0.994383
0.994883
0.995253
0.995495
0.995608
0.995591
0.995444
0.995169
0.994765
0.994231
0.993565
0.992762
0.991816
0.990716
0.989443
0.987969
0.98625
0.984216
0.981762
0.978738
0.974929
0.970019
0.963556
0.954879
0.943066
0.926968
0.905648
0.879904
0.8549
0.840716
0.845329
0.86592
0.892201
0.916109
0.934857
0.948758
0.95894
0.966458
0.972102
0.976426
0.979812
0.982524
0.984747
0.986606
0.988195
0.989574
0.990781
0.99184
0.992766
0.993568
0.994251
0.994816
0.995267
0.995602
0.995821
0.995923
0.99614
0.995999
0.995734
0.995346
0.994834
0.994197
0.993435
0.992544
0.991518
0.990349
0.98902
0.987509
0.985775
0.983755
0.981358
0.978454
0.974856
0.970297
0.964421
0.956733
0.946577
0.933217
0.91618
0.89618
0.876646
0.864106
0.864566
0.877809
0.897619
0.91758
0.934456
0.947644
0.957661
0.96525
0.971059
0.975579
0.979158
0.982056
0.984452
0.986472
0.988201
0.989697
0.990995
0.992119
0.993084
0.993897
0.994567
0.995097
0.995489
0.995744
0.995863
0.995845
0.99569
0.995399
0.994972
0.994406
0.993699
0.992847
0.991842
0.990674
0.989327
0.987775
0.985976
0.983868
0.981355
0.9783
0.974504
0.969684
0.963464
0.95531
0.944536
0.930411
0.912591
0.892215
0.873406
0.863051
0.866289
0.881365
0.90155
0.920973
0.937048
0.949505
0.958947
0.966106
0.971597
0.975874
0.979269
0.982026
0.984314
0.986252
0.987923
0.989383
0.990668
0.991799
0.992789
0.993646
0.994375
0.994979
0.995459
0.995815
0.996048
0.996156
0.996357
0.996208
0.995929
0.995518
0.994975
0.9943
0.993489
0.992539
0.991445
0.990198
0.988782
0.987178
0.985349
0.983238
0.980766
0.977811
0.974204
0.969716
0.964039
0.956777
0.947456
0.935632
0.921204
0.905098
0.890125
0.880881
0.881293
0.891198
0.906488
0.922627
0.93695
0.948636
0.957833
0.965001
0.970616
0.975068
0.978656
0.981606
0.984079
0.986186
0.988004
0.989584
0.990959
0.992151
0.993171
0.994032
0.994739
0.995297
0.995709
0.995977
0.996102
0.996083
0.995921
0.995615
0.995165
0.994569
0.993822
0.992921
0.991857
0.990619
0.989193
0.987555
0.985667
0.983473
0.980888
0.97779
0.974
0.969277
0.963298
0.955648
0.94584
0.933455
0.918517
0.90225
0.887882
0.880162
0.882465
0.893678
0.909341
0.925193
0.938974
0.950113
0.958849
0.965654
0.970987
0.97522
0.978637
0.981452
0.983821
0.985851
0.987617
0.989168
0.990539
0.991745
0.992801
0.993714
0.994489
0.99513
0.995638
0.996014
0.99626
0.996374
0.996569
0.996413
0.99612
0.995689
0.99512
0.99441
0.993555
0.992553
0.991395
0.990074
0.988577
0.986882
0.984959
0.982758
0.980211
0.977208
0.9736
0.969191
0.963729
0.956911
0.948416
0.938019
0.925859
0.912898
0.901371
0.894504
0.894881
0.902376
0.914252
0.92731
0.939423
0.949718
0.95811
0.964845
0.970249
0.974623
0.978213
0.981209
0.983754
0.985945
0.987847
0.989506
0.99095
0.992201
0.993272
0.994174
0.994913
0.995495
0.995925
0.996205
0.996335
0.996315
0.996146
0.995827
0.995358
0.994735
0.993954
0.993009
0.991893
0.990593
0.989095
0.987376
0.985403
0.983127
0.980476
0.97734
0.973566
0.96895
0.963229
0.956092
0.947219
0.936417
0.923928
0.910915
0.899853
0.894022
0.895663
0.904063
0.916253
0.929166
0.940917
0.950809
0.958838
0.965271
0.970431
0.974609
0.978043
0.980915
0.983363
0.985485
0.987345
0.988985
0.990435
0.991712
0.992829
0.993792
0.994609
0.995282
0.995815
0.996209
0.996467
0.996587
0.996781
0.99662
0.996317
0.995871
0.995282
0.994546
0.993659
0.992615
0.991407
0.990026
0.98846
0.986688
0.984685
0.98241
0.979805
0.976773
0.97319
0.968893
0.963688
0.957357
0.949708
0.940677
0.930536
0.920184
0.911342
0.906245
0.906592
0.912285
0.921501
0.932007
0.942157
0.95113
0.958703
0.964965
0.970119
0.974381
0.977945
0.980964
0.98356
0.985817
0.987786
0.989507
0.991006
0.992303
0.993411
0.994342
0.995104
0.995704
0.996146
0.996434
0.996569
0.996548
0.996374
0.996046
0.995562
0.994921
0.994115
0.993139
0.991983
0.990635
0.989081
0.987298
0.985258
0.982918
0.980221
0.977073
0.973344
0.968868
0.963446
0.956858
0.94892
0.939599
0.929244
0.91888
0.910361
0.905934
0.907092
0.913376
0.92282
0.933251
0.943158
0.951837
0.959128
0.965145
0.970093
0.974186
0.977611
0.980521
0.983032
0.985232
0.987171
0.988887
0.990404
0.991738
0.992902
0.993905
0.994752
0.99545
0.996001
0.996409
0.996676
0.9968
0.996999
0.996835
0.996526
0.996073
0.995473
0.994723
0.993818
0.992751
0.991513
0.990096
0.988486
0.986666
0.984614
0.982299
0.979672
0.976654
0.973145
0.969019
0.964136
0.958359
0.951596
0.943895
0.935584
0.927438
0.920734
0.91699
0.917308
0.921613
0.928702
0.93705
0.945425
0.953113
0.959832
0.96556
0.9704
0.974494
0.97798
0.980979
0.983586
0.985873
0.987877
0.989632
0.991159
0.992479
0.993605
0.99455
0.995323
0.995931
0.996379
0.996672
0.996808
0.996787
0.99661
0.996277
0.995787
0.995137
0.99432
0.993329
0.992154
0.990781
0.989197
0.98738
0.985305
0.982939
0.980238
0.977122
0.973489
0.969214
0.964155
0.958175
0.951193
0.943283
0.934824
0.926666
0.920154
0.916804
0.917601
0.922255
0.929481
0.937776
0.945982
0.953455
0.959958
0.965491
0.970162
0.974114
0.977484
0.980391
0.98293
0.985173
0.987162
0.988925
0.990484
0.991853
0.993045
0.994069
0.994933
0.995644
0.996205
0.99662
0.996892
0.997019
0.997226
0.997061
0.996752
0.996299
0.9957
0.994952
0.994048
0.992981
0.991742
0.990322
0.988706
0.986882
0.984829
0.982528
0.979939
0.977002
0.973641
0.96977
0.965298
0.960156
0.95433
0.947932
0.941288
0.935021
0.930041
0.927343
0.92763
0.930842
0.936206
0.942706
0.949462
0.955892
0.961709
0.966825
0.971266
0.97511
0.978445
0.981356
0.983915
0.986177
0.988169
0.989915
0.991436
0.99275
0.99387
0.994809
0.995577
0.996181
0.996628
0.996919
0.997055
0.997035
0.996858
0.996526
0.996039
0.995392
0.994581
0.993595
0.992426
0.99106
0.989482
0.987674
0.985615
0.983279
0.980634
0.977619
0.97416
0.970168
0.965556
0.960256
0.954264
0.94771
0.940951
0.934651
0.929752
0.927247
0.927775
0.931156
0.936571
0.943014
0.949641
0.955911
0.961563
0.966526
0.970833
0.974563
0.977805
0.980645
0.983153
0.985388
0.987379
0.989147
0.99071
0.992082
0.993275
0.994299
0.995162
0.995871
0.996431
0.996846
0.997118
0.997245
0.997462
0.9973
0.996997
0.996554
0.995969
0.99524
0.994359
0.99332
0.992114
0.99073
0.989158
0.987385
0.985398
0.983183
0.980712
0.977944
0.974827
0.971311
0.967351
0.962927
0.958079
0.952942
0.947803
0.943129
0.939533
0.937644
0.937893
0.940239
0.944196
0.949117
0.954401
0.95961
0.964484
0.968907
0.972853
0.976348
0.97944
0.982178
0.98461
0.986778
0.988697
0.990384
0.991856
0.993128
0.994214
0.995125
0.99587
0.996458
0.996893
0.997178
0.997311
0.997291
0.997118
0.996794
0.99632
0.995691
0.994903
0.993948
0.992815
0.991492
0.989966
0.98822
0.986239
0.984004
0.981495
0.978669
0.975477
0.971867
0.967798
0.963252
0.958274
0.953013
0.947772
0.943039
0.939442
0.937608
0.937939
0.940327
0.944269
0.949119
0.954295
0.959378
0.964124
0.968428
0.972269
0.975676
0.978697
0.981383
0.983783
0.985938
0.987868
0.989587
0.991109
0.992445
0.993606
0.994603
0.995444
0.996136
0.996683
0.997089
0.997355
0.99748
0.997707
0.997551
0.997261
0.996839
0.996282
0.995589
0.994755
0.993773
0.992636
0.991335
0.989861
0.988203
0.986354
0.984308
0.982046
0.979543
0.976774
0.973715
0.970356
0.966713
0.962848
0.958894
0.955078
0.951722
0.949217
0.947941
0.948148
0.949809
0.952634
0.956228
0.960206
0.964258
0.968177
0.971843
0.975206
0.978255
0.981005
0.983478
0.9857
0.987698
0.989477
0.991049
0.992426
0.993619
0.99464
0.9955
0.996205
0.996763
0.997177
0.997448
0.997576
0.997557
0.997391
0.997082
0.996631
0.996035
0.99529
0.994389
0.993324
0.992085
0.990659
0.989034
0.987199
0.985145
0.982859
0.980315
0.977489
0.974358
0.970913
0.967174
0.963205
0.959148
0.955236
0.951802
0.949245
0.947942
0.948136
0.949764
0.95253
0.956042
0.959922
0.96387
0.967687
0.97126
0.974541
0.977523
0.980221
0.982658
0.984861
0.986856
0.988654
0.990263
0.991691
0.992948
0.994044
0.994987
0.995783
0.99644
0.996962
0.99735
0.997605
0.997725
0.997961
0.997815
0.997545
0.997152
0.996638
0.996
0.995235
0.994339
0.993307
0.992131
0.990805
0.989324
0.987683
0.985883
0.983913
0.981764
0.979427
0.976901
0.974197
0.971349
0.968421
0.965524
0.962818
0.960512
0.958837
0.958009
0.958171
0.959304
0.961242
0.963759
0.966622
0.969629
0.972628
0.975519
0.978243
0.980773
0.9831
0.985227
0.987162
0.988919
0.990498
0.991902
0.993139
0.994218
0.995147
0.995932
0.99658
0.997094
0.997478
0.99773
0.997849
0.997831
0.997677
0.99739
0.996972
0.996423
0.99574
0.994918
0.993951
0.992832
0.991552
0.990103
0.988479
0.986676
0.984691
0.982512
0.980132
0.977549
0.974778
0.971851
0.968838
0.965852
0.963058
0.960668
0.95892
0.958027
0.958132
0.959199
0.961061
0.963493
0.966267
0.969186
0.972102
0.974918
0.977578
0.980055
0.982342
0.984444
0.986368
0.988127
0.989726
0.991166
0.992452
0.993589
0.994586
0.995447
0.996178
0.996784
0.997267
0.997627
0.997865
0.997978
0.998223
0.99809
0.997846
0.997493
0.997032
0.996465
0.99579
0.995004
0.994106
0.99309
0.991955
0.990698
0.989318
0.987819
0.986199
0.984458
0.9826
0.980635
0.978583
0.976481
0.974384
0.972371
0.970546
0.969033
0.96796
0.967444
0.967562
0.968304
0.969578
0.971261
0.973221
0.975339
0.977512
0.979667
0.981751
0.983733
0.985593
0.987324
0.988921
0.990387
0.991718
0.992914
0.993977
0.994913
0.995724
0.996416
0.99699
0.997449
0.997794
0.998021
0.998129
0.998113
0.997973
0.997715
0.99734
0.996851
0.996246
0.995524
0.99468
0.993712
0.992614
0.991384
0.990018
0.988518
0.986885
0.98512
0.983226
0.981215
0.979109
0.976943
0.974776
0.972688
0.970788
0.969199
0.968053
0.967466
0.967518
0.968189
0.969389
0.970996
0.972881
0.974925
0.977031
0.979125
0.981157
0.983095
0.984924
0.986634
0.988222
0.98969
0.991038
0.992263
0.993367
0.994351
0.99522
0.995976
0.996623
0.997163
0.997595
0.99792
0.998136
0.998238
0.998491
0.998375
0.998162
0.997856
0.99746
0.996976
0.996405
0.995748
0.995003
0.994171
0.99325
0.992243
0.991149
0.989976
0.988724
0.987401
0.986016
0.984582
0.983121
0.981662
0.980244
0.978921
0.977751
0.976804
0.976147
0.975837
0.975918
0.976383
0.977182
0.978254
0.97953
0.980941
0.982427
0.983939
0.985438
0.986897
0.988295
0.989619
0.990861
0.992014
0.993075
0.99404
0.994908
0.995681
0.996358
0.996942
0.997431
0.997825
0.998122
0.99832
0.998414
0.9984
0.998278
0.998054
0.997731
0.997312
0.996798
0.99619
0.995488
0.994691
0.993797
0.992807
0.991722
0.990545
0.989281
0.987936
0.986521
0.985049
0.983543
0.982034
0.980562
0.97918
0.977951
0.976943
0.976225
0.975857
0.975881
0.976286
0.977025
0.978037
0.979253
0.980607
0.982039
0.983503
0.984959
0.986382
0.987753
0.989058
0.99029
0.991443
0.992514
0.993499
0.994396
0.995206
0.995927
0.996563
0.997111
0.997572
0.997945
0.998227
0.998415
0.998504
0.998764
0.998667
0.99849
0.998237
0.997913
0.997521
0.997063
0.996542
0.99596
0.995317
0.994617
0.99386
0.993051
0.992192
0.991289
0.990351
0.989387
0.98841
0.987436
0.986486
0.985586
0.984764
0.984053
0.983488
0.983103
0.982925
0.982976
0.983253
0.983731
0.98438
0.985166
0.986053
0.987009
0.988004
0.989014
0.990018
0.991
0.991948
0.992851
0.993701
0.994493
0.995225
0.995893
0.996495
0.997031
0.997497
0.997893
0.998215
0.998461
0.998625
0.998703
0.998691
0.99859
0.998404
0.998138
0.997797
0.997382
0.996897
0.996344
0.995724
0.99504
0.994292
0.993484
0.99262
0.991704
0.990747
0.989757
0.98875
0.987742
0.986754
0.985813
0.984949
0.984196
0.983588
0.983159
0.982939
0.982949
0.983184
0.983619
0.984225
0.984968
0.985814
0.98673
0.987688
0.988665
0.98964
0.990598
0.991528
0.99242
0.993267
0.994063
0.994805
0.995491
0.996117
0.996684
0.997188
0.997629
0.998004
0.99831
0.998543
0.9987
0.998775
0.999039
0.998963
0.998825
0.998629
0.998381
0.998084
0.997741
0.997357
0.996934
0.996475
0.995982
0.995457
0.994903
0.994323
0.993721
0.993106
0.992486
0.99187
0.991268
0.990693
0.990158
0.98968
0.989273
0.988955
0.988741
0.988644
0.988674
0.98883
0.9891
0.98947
0.989924
0.990446
0.99102
0.991629
0.99226
0.9929
0.993539
0.994166
0.994774
0.995353
0.9959
0.996413
0.99689
0.997326
0.99772
0.998069
0.998368
0.998615
0.998805
0.998933
0.998994
0.998985
0.998905
0.998761
0.998556
0.998295
0.997982
0.997622
0.997216
0.996769
0.996282
0.99576
0.995204
0.994617
0.994004
0.993373
0.992733
0.992094
0.991467
0.990866
0.990304
0.989798
0.989364
0.989018
0.988777
0.988653
0.988657
0.988786
0.989028
0.989371
0.989798
0.990293
0.990839
0.991423
0.992029
0.992648
0.993267
0.99388
0.994476
0.99505
0.995597
0.996113
0.996598
0.997048
0.997461
0.997835
0.998166
0.998451
0.998686
0.998867
0.998989
0.999048
0.999315
0.999261
0.999164
0.999026
0.998854
0.998651
0.99842
0.998164
0.997888
0.997593
0.997282
0.996956
0.996616
0.996264
0.995904
0.995541
0.995181
0.99483
0.994494
0.994177
0.993888
0.993634
0.99342
0.993255
0.993145
0.993096
0.993112
0.993193
0.993333
0.993527
0.993767
0.994048
0.994361
0.994699
0.995056
0.995424
0.995798
0.996172
0.99654
0.996894
0.997233
0.997556
0.997861
0.998146
0.998407
0.998642
0.998847
0.999018
0.99915
0.999241
0.999285
0.999278
0.999222
0.99912
0.998976
0.998796
0.998583
0.998341
0.998073
0.997783
0.997473
0.997145
0.996802
0.996444
0.996075
0.9957
0.995327
0.994961
0.994608
0.994276
0.993971
0.9937
0.993471
0.993291
0.993166
0.993101
0.993103
0.993168
0.993293
0.993471
0.993696
0.993961
0.994257
0.99458
0.994921
0.995274
0.995635
0.995998
0.996357
0.996706
0.997042
0.997364
0.997672
0.997962
0.998233
0.998482
0.998706
0.998902
0.999066
0.999193
0.99928
0.999322
0.999591
0.999559
0.999501
0.999422
0.999323
0.999207
0.999079
0.998939
0.99879
0.998634
0.998472
0.998305
0.998134
0.997957
0.997778
0.997601
0.997427
0.99726
0.997103
0.996957
0.996826
0.996711
0.996617
0.996544
0.996496
0.996475
0.996482
0.996517
0.996579
0.996664
0.996772
0.996899
0.997042
0.9972
0.997368
0.997545
0.997727
0.997912
0.998096
0.998275
0.998448
0.998615
0.998776
0.998929
0.999072
0.999203
0.999319
0.999417
0.999494
0.999547
0.999573
0.999569
0.999536
0.999476
0.999393
0.99929
0.99917
0.999036
0.99889
0.998735
0.998572
0.998403
0.998228
0.998048
0.997864
0.997679
0.997498
0.997323
0.997157
0.997003
0.996864
0.996742
0.99664
0.99656
0.996505
0.996477
0.996477
0.996506
0.996561
0.996639
0.996739
0.996858
0.996994
0.997143
0.997303
0.997472
0.997647
0.997825
0.998004
0.998179
0.998349
0.998515
0.998675
0.998829
0.998976
0.999113
0.999239
0.99935
0.999444
0.999519
0.99957
0.999595
0.999864
0.999853
0.999835
0.999809
0.999778
0.999742
0.999703
0.999661
0.999617
0.999572
0.999526
0.99948
0.999433
0.999384
0.999335
0.999286
0.99924
0.999195
0.999154
0.999116
0.999082
0.999053
0.999029
0.999011
0.998999
0.998993
0.998995
0.999004
0.999019
0.999041
0.999068
0.999101
0.999138
0.999179
0.999224
0.999271
0.999321
0.999372
0.999423
0.999472
0.99952
0.999567
0.999613
0.999658
0.999701
0.999741
0.999777
0.999808
0.999833
0.99985
0.999858
0.999857
0.999846
0.999827
0.9998
0.999768
0.999731
0.99969
0.999647
0.999601
0.999555
0.999507
0.999459
0.999409
0.999358
0.999308
0.999258
0.999212
0.999168
0.999128
0.999092
0.99906
0.999035
0.999015
0.999001
0.998994
0.998994
0.999001
0.999015
0.999034
0.99906
0.99909
0.999125
0.999164
0.999206
0.999251
0.999299
0.999348
0.999397
0.999445
0.999492
0.999538
0.999584
0.999629
0.999672
0.999713
0.999752
0.999787
0.999816
0.99984
0.999857
0.999865
)
;

boundaryField
{
    top
    {
        type            calculated;
        value           uniform 1;
    }
    bottom
    {
        type            calculated;
        value           uniform 0.148957;
    }
    frontAndBack
    {
        type            empty;
    }
    left_cyc
    {
        type            cyclic;
    }
    right_cyc
    {
        type            cyclic;
    }
}


// ************************************************************************* //
