/*--------------------------------*- C++ -*----------------------------------*\
| =========                 |                                                 |
| \\      /  F ield         | OpenFOAM: The Open Source CFD Toolbox           |
|  \\    /   O peration     | Version:  2.3.0                                 |
|   \\  /    A nd           | Web:      www.OpenFOAM.org                      |
|    \\/     M anipulation  |                                                 |
\*---------------------------------------------------------------------------*/
FoamFile
{
    version     2.0;
    format      ascii;
    class       volScalarField;
    location    "4000";
    object      p;
}
// * * * * * * * * * * * * * * * * * * * * * * * * * * * * * * * * * * * * * //

dimensions      [0 2 -2 0 0 0 0];

internalField   nonuniform List<scalar> 
3060
(
0
-3.0139e-05
-8.66713e-05
-0.00016921
-0.00027735
-0.000410744
-0.000569087
-0.000751962
-0.000958594
-0.0011876
-0.00143679
-0.001703
-0.00198189
-0.0022677
-0.00255304
-0.00282897
-0.00308605
-0.00331542
-0.00350953
-0.0036645
-0.00378137
-0.00386397
-0.00391865
-0.00395245
-0.00397133
-0.00397919
-0.00397788
-0.00396731
-0.00394547
-0.00390828
-0.00384966
-0.00376249
-0.00364046
-0.00347992
-0.00328015
-0.0030455
-0.00278392
-0.00250507
-0.00221926
-0.00193582
-0.00166225
-0.00140439
-0.0011666
-0.000951969
-0.000762534
-0.000599518
-0.000463572
-0.000355048
-0.000274215
-0.000221337
-0.000196669
-0.00020037
-0.000232411
-0.000292599
-0.000380673
-0.000496369
-0.000639409
-0.000809389
-0.00100554
-0.00122644
-0.0014698
-0.00173223
-0.00200901
-0.00229387
-0.00257882
-0.00285418
-0.00310962
-0.00333585
-0.00352562
-0.00367589
-0.00378837
-0.00386743
-0.0039198
-0.00395247
-0.00397107
-0.00397912
-0.00397811
-0.00396763
-0.00394534
-0.00390675
-0.00384547
-0.00375448
-0.00362796
-0.00346272
-0.00325885
-0.00302145
-0.00275859
-0.00247931
-0.00219305
-0.00190842
-0.00163233
-0.00137018
-0.00112597
-0.00090261
-0.000702052
-0.000525503
-0.000373619
-0.000246765
-0.00014525
-6.9438e-05
-1.97391e-05
3.47977e-06
-0.326596
-0.326622
-0.326671
-0.326742
-0.326837
-0.326954
-0.327094
-0.327255
-0.327438
-0.32764
-0.327859
-0.328092
-0.328334
-0.32858
-0.328822
-0.329057
-0.329282
-0.329491
-0.329671
-0.329814
-0.329922
-0.329998
-0.330049
-0.330081
-0.3301
-0.330108
-0.330106
-0.330096
-0.330075
-0.33004
-0.329986
-0.329906
-0.329794
-0.329646
-0.329462
-0.329251
-0.329024
-0.328788
-0.328547
-0.328304
-0.328067
-0.327842
-0.327634
-0.327445
-0.327278
-0.327134
-0.327015
-0.32692
-0.32685
-0.326804
-0.326783
-0.326786
-0.326814
-0.326866
-0.326942
-0.327044
-0.327169
-0.327319
-0.327492
-0.327686
-0.327899
-0.328128
-0.328367
-0.32861
-0.32885
-0.329084
-0.329308
-0.329513
-0.329688
-0.329826
-0.329929
-0.330002
-0.330051
-0.330082
-0.3301
-0.330108
-0.330106
-0.330096
-0.330074
-0.330038
-0.329981
-0.329897
-0.329781
-0.329628
-0.329439
-0.329225
-0.328997
-0.32876
-0.328516
-0.328271
-0.32803
-0.327801
-0.327586
-0.327389
-0.327211
-0.327055
-0.326921
-0.32681
-0.326721
-0.326656
-0.326613
-0.326593
-0.653295
-0.65332
-0.653367
-0.653436
-0.653526
-0.653635
-0.653762
-0.653905
-0.654062
-0.654231
-0.65441
-0.654598
-0.654794
-0.654997
-0.655205
-0.655411
-0.655604
-0.655773
-0.655913
-0.656029
-0.656122
-0.656185
-0.656226
-0.65625
-0.656264
-0.656269
-0.656269
-0.656261
-0.656245
-0.656219
-0.656175
-0.656109
-0.656014
-0.655895
-0.655754
-0.655584
-0.655391
-0.655188
-0.654985
-0.654789
-0.6546
-0.65442
-0.654251
-0.654093
-0.65395
-0.653823
-0.653714
-0.653626
-0.653559
-0.653515
-0.653494
-0.653497
-0.653524
-0.653574
-0.653647
-0.65374
-0.653854
-0.653986
-0.654133
-0.654294
-0.654466
-0.654649
-0.654839
-0.655038
-0.655241
-0.655443
-0.655631
-0.655793
-0.655928
-0.656041
-0.656129
-0.656189
-0.656227
-0.65625
-0.656264
-0.656269
-0.656269
-0.656261
-0.656245
-0.656217
-0.656171
-0.6561
-0.656001
-0.655879
-0.655732
-0.655556
-0.655358
-0.655151
-0.654944
-0.654743
-0.654549
-0.654363
-0.654186
-0.65402
-0.653867
-0.653728
-0.653605
-0.653501
-0.653416
-0.653353
-0.653311
-0.653292
-0.979822
-0.979847
-0.979893
-0.97996
-0.980046
-0.98015
-0.98027
-0.980405
-0.98055
-0.980705
-0.980866
-0.981033
-0.981204
-0.981378
-0.981554
-0.981727
-0.98189
-0.98204
-0.982172
-0.982275
-0.982347
-0.982396
-0.982425
-0.98244
-0.982446
-0.982448
-0.982448
-0.982444
-0.982436
-0.98242
-0.982389
-0.982338
-0.982266
-0.982162
-0.982031
-0.981883
-0.981722
-0.981552
-0.981381
-0.981212
-0.981047
-0.980888
-0.980735
-0.980591
-0.980458
-0.980338
-0.980235
-0.980151
-0.980087
-0.980044
-0.980025
-0.980028
-0.980053
-0.980101
-0.980171
-0.98026
-0.980368
-0.980491
-0.980627
-0.980774
-0.980929
-0.98109
-0.981256
-0.981425
-0.981597
-0.981765
-0.981923
-0.982067
-0.982193
-0.982288
-0.982354
-0.982399
-0.982425
-0.982439
-0.982445
-0.982448
-0.982448
-0.982445
-0.982437
-0.98242
-0.982385
-0.98233
-0.982252
-0.98214
-0.982002
-0.981849
-0.981683
-0.981508
-0.981333
-0.981159
-0.980989
-0.980824
-0.980664
-0.980511
-0.980369
-0.980238
-0.980121
-0.980022
-0.97994
-0.979879
-0.979839
-0.97982
-1.30634
-1.30636
-1.3064
-1.30646
-1.30654
-1.30663
-1.30674
-1.30686
-1.307
-1.30714
-1.30728
-1.30744
-1.30759
-1.30775
-1.3079
-1.30805
-1.30818
-1.3083
-1.30842
-1.30852
-1.30859
-1.30862
-1.30864
-1.30864
-1.30864
-1.30864
-1.30864
-1.30864
-1.30864
-1.30864
-1.30862
-1.30858
-1.30852
-1.30842
-1.3083
-1.30818
-1.30805
-1.3079
-1.30775
-1.3076
-1.30745
-1.3073
-1.30717
-1.30703
-1.30692
-1.30681
-1.30672
-1.30664
-1.30658
-1.30655
-1.30653
-1.30653
-1.30655
-1.3066
-1.30666
-1.30674
-1.30684
-1.30695
-1.30707
-1.3072
-1.30734
-1.30749
-1.30764
-1.30779
-1.30794
-1.30808
-1.30821
-1.30833
-1.30845
-1.30854
-1.3086
-1.30863
-1.30864
-1.30864
-1.30864
-1.30864
-1.30864
-1.30864
-1.30864
-1.30864
-1.30862
-1.30857
-1.3085
-1.30839
-1.30827
-1.30815
-1.30801
-1.30786
-1.30771
-1.30755
-1.3074
-1.30724
-1.3071
-1.30696
-1.30683
-1.30671
-1.30661
-1.30652
-1.30645
-1.30639
-1.30635
-1.30634
-1.63292
-1.63294
-1.63297
-1.63303
-1.6331
-1.63318
-1.63328
-1.63339
-1.63351
-1.63363
-1.63376
-1.6339
-1.63403
-1.63417
-1.6343
-1.63442
-1.63454
-1.63464
-1.63473
-1.6348
-1.63485
-1.63487
-1.63487
-1.63486
-1.63485
-1.63484
-1.63484
-1.63485
-1.63486
-1.63487
-1.63488
-1.63485
-1.6348
-1.63473
-1.63464
-1.63454
-1.63443
-1.6343
-1.63417
-1.63404
-1.63391
-1.63378
-1.63366
-1.63354
-1.63344
-1.63334
-1.63326
-1.63319
-1.63314
-1.63311
-1.63309
-1.63309
-1.63311
-1.63315
-1.63321
-1.63328
-1.63337
-1.63346
-1.63357
-1.63369
-1.63382
-1.63395
-1.63408
-1.63421
-1.63434
-1.63446
-1.63457
-1.63467
-1.63475
-1.63482
-1.63486
-1.63488
-1.63487
-1.63486
-1.63485
-1.63484
-1.63485
-1.63485
-1.63486
-1.63488
-1.63487
-1.63484
-1.63478
-1.63471
-1.63462
-1.63451
-1.63439
-1.63427
-1.63413
-1.634
-1.63386
-1.63373
-1.6336
-1.63347
-1.63336
-1.63325
-1.63316
-1.63308
-1.63301
-1.63296
-1.63293
-1.63291
-1.95952
-1.95954
-1.95957
-1.95962
-1.95969
-1.95976
-1.95985
-1.95995
-1.96005
-1.96016
-1.96028
-1.96039
-1.96051
-1.96063
-1.96074
-1.96085
-1.96094
-1.96103
-1.96109
-1.96115
-1.96118
-1.96117
-1.96114
-1.96111
-1.96108
-1.96107
-1.96107
-1.96108
-1.96111
-1.96115
-1.96118
-1.96118
-1.96115
-1.9611
-1.96103
-1.96094
-1.96085
-1.96074
-1.96063
-1.96052
-1.96041
-1.9603
-1.96019
-1.96009
-1.95999
-1.95991
-1.95983
-1.95977
-1.95973
-1.9597
-1.95968
-1.95968
-1.9597
-1.95974
-1.95979
-1.95985
-1.95993
-1.96001
-1.96011
-1.96022
-1.96032
-1.96044
-1.96055
-1.96066
-1.96077
-1.96087
-1.96097
-1.96105
-1.96111
-1.96116
-1.96118
-1.96118
-1.96114
-1.9611
-1.96107
-1.96106
-1.96107
-1.96108
-1.96112
-1.96115
-1.96118
-1.96117
-1.96113
-1.96108
-1.961
-1.96092
-1.96082
-1.96071
-1.9606
-1.96048
-1.96036
-1.96025
-1.96013
-1.96002
-1.95992
-1.95982
-1.95974
-1.95967
-1.95961
-1.95956
-1.95953
-1.95952
-2.28615
-2.28617
-2.2862
-2.28624
-2.2863
-2.28637
-2.28645
-2.28653
-2.28662
-2.28672
-2.28682
-2.28692
-2.28702
-2.28712
-2.28721
-2.2873
-2.28738
-2.28745
-2.2875
-2.28753
-2.28755
-2.28753
-2.28748
-2.28741
-2.28735
-2.28732
-2.28732
-2.28735
-2.28741
-2.28749
-2.28754
-2.28755
-2.28754
-2.2875
-2.28745
-2.28738
-2.2873
-2.28722
-2.28713
-2.28703
-2.28693
-2.28684
-2.28674
-2.28665
-2.28657
-2.2865
-2.28643
-2.28638
-2.28634
-2.28631
-2.2863
-2.2863
-2.28631
-2.28635
-2.28639
-2.28645
-2.28651
-2.28659
-2.28668
-2.28677
-2.28686
-2.28696
-2.28706
-2.28715
-2.28724
-2.28733
-2.2874
-2.28746
-2.28751
-2.28754
-2.28755
-2.28753
-2.28747
-2.28739
-2.28734
-2.28732
-2.28733
-2.28736
-2.28742
-2.28749
-2.28754
-2.28755
-2.28753
-2.28749
-2.28743
-2.28736
-2.28728
-2.28719
-2.2871
-2.287
-2.2869
-2.28679
-2.28669
-2.2866
-2.28651
-2.28642
-2.28635
-2.28628
-2.28623
-2.28619
-2.28616
-2.28615
-2.6128
-2.61281
-2.61284
-2.61288
-2.61293
-2.61299
-2.61306
-2.61314
-2.61322
-2.6133
-2.61339
-2.61347
-2.61356
-2.61364
-2.61372
-2.61379
-2.61385
-2.6139
-2.61393
-2.61395
-2.61395
-2.61393
-2.61387
-2.61378
-2.61369
-2.61365
-2.61365
-2.6137
-2.61378
-2.61388
-2.61394
-2.61396
-2.61396
-2.61394
-2.6139
-2.61385
-2.61379
-2.61372
-2.61364
-2.61357
-2.61348
-2.6134
-2.61332
-2.61324
-2.61317
-2.6131
-2.61305
-2.613
-2.61296
-2.61294
-2.61293
-2.61293
-2.61294
-2.61297
-2.61301
-2.61306
-2.61312
-2.61319
-2.61326
-2.61334
-2.61342
-2.61351
-2.61359
-2.61367
-2.61374
-2.61381
-2.61386
-2.61391
-2.61394
-2.61396
-2.61396
-2.61393
-2.61385
-2.61376
-2.61368
-2.61365
-2.61366
-2.61371
-2.6138
-2.61389
-2.61394
-2.61396
-2.61395
-2.61393
-2.61389
-2.61383
-2.61377
-2.6137
-2.61362
-2.61354
-2.61345
-2.61337
-2.61328
-2.6132
-2.61312
-2.61304
-2.61298
-2.61292
-2.61287
-2.61283
-2.61281
-2.6128
-2.93946
-2.93947
-2.9395
-2.93953
-2.93958
-2.93963
-2.93969
-2.93976
-2.93983
-2.9399
-2.93997
-2.94004
-2.94011
-2.94018
-2.94024
-2.9403
-2.94034
-2.94037
-2.9404
-2.9404
-2.94039
-2.94036
-2.9403
-2.94021
-2.94012
-2.94007
-2.94007
-2.94013
-2.94022
-2.94031
-2.94037
-2.9404
-2.94041
-2.9404
-2.94038
-2.94034
-2.9403
-2.94024
-2.94018
-2.94012
-2.94005
-2.93998
-2.93991
-2.93984
-2.93978
-2.93972
-2.93967
-2.93963
-2.9396
-2.93958
-2.93957
-2.93957
-2.93958
-2.93961
-2.93964
-2.93969
-2.93974
-2.9398
-2.93986
-2.93993
-2.94
-2.94007
-2.94013
-2.9402
-2.94026
-2.94031
-2.94035
-2.94038
-2.9404
-2.94041
-2.94039
-2.94036
-2.94029
-2.9402
-2.94011
-2.94006
-2.94008
-2.94014
-2.94024
-2.94032
-2.94037
-2.9404
-2.9404
-2.94039
-2.94037
-2.94033
-2.94028
-2.94023
-2.94016
-2.9401
-2.94003
-2.93995
-2.93988
-2.93981
-2.93974
-2.93967
-2.93962
-2.93956
-2.93952
-2.93949
-2.93947
-2.93946
-3.26612
-3.26614
-3.26616
-3.26619
-3.26623
-3.26627
-3.26633
-3.26638
-3.26644
-3.26651
-3.26657
-3.26663
-3.26668
-3.26673
-3.26678
-3.26682
-3.26685
-3.26687
-3.26688
-3.26688
-3.26686
-3.26683
-3.26677
-3.26669
-3.26661
-3.26656
-3.26656
-3.26662
-3.2667
-3.26678
-3.26683
-3.26686
-3.26688
-3.26688
-3.26687
-3.26685
-3.26682
-3.26678
-3.26673
-3.26668
-3.26663
-3.26657
-3.26651
-3.26646
-3.2664
-3.26635
-3.26631
-3.26627
-3.26624
-3.26622
-3.26622
-3.26622
-3.26623
-3.26625
-3.26628
-3.26632
-3.26636
-3.26642
-3.26647
-3.26653
-3.26659
-3.26664
-3.2667
-3.26675
-3.26679
-3.26683
-3.26686
-3.26688
-3.26688
-3.26688
-3.26686
-3.26682
-3.26676
-3.26668
-3.2666
-3.26656
-3.26657
-3.26663
-3.26671
-3.26679
-3.26684
-3.26687
-3.26688
-3.26688
-3.26687
-3.26684
-3.26681
-3.26677
-3.26672
-3.26667
-3.26661
-3.26655
-3.26649
-3.26643
-3.26637
-3.26631
-3.26626
-3.26622
-3.26618
-3.26615
-3.26613
-3.26612
-3.59279
-3.5928
-3.59282
-3.59285
-3.59288
-3.59292
-3.59297
-3.59302
-3.59307
-3.59312
-3.59317
-3.59322
-3.59326
-3.5933
-3.59333
-3.59336
-3.59338
-3.59339
-3.59338
-3.59337
-3.59335
-3.59331
-3.59326
-3.5932
-3.59314
-3.5931
-3.5931
-3.59314
-3.59321
-3.59327
-3.59332
-3.59335
-3.59337
-3.59338
-3.59338
-3.59337
-3.59335
-3.59333
-3.59329
-3.59326
-3.59321
-3.59317
-3.59312
-3.59307
-3.59303
-3.59299
-3.59295
-3.59292
-3.59289
-3.59287
-3.59287
-3.59287
-3.59288
-3.5929
-3.59292
-3.59296
-3.593
-3.59304
-3.59308
-3.59313
-3.59318
-3.59322
-3.59327
-3.5933
-3.59334
-3.59336
-3.59338
-3.59339
-3.59338
-3.59337
-3.59334
-3.59331
-3.59325
-3.59319
-3.59313
-3.59309
-3.5931
-3.59315
-3.59322
-3.59328
-3.59332
-3.59336
-3.59338
-3.59339
-3.59338
-3.59337
-3.59335
-3.59332
-3.59329
-3.59325
-3.5932
-3.59316
-3.59311
-3.59305
-3.593
-3.59296
-3.59291
-3.59287
-3.59284
-3.59282
-3.5928
-3.59279
-3.91946
-3.91947
-3.91949
-3.91951
-3.91954
-3.91958
-3.91961
-3.91965
-3.91969
-3.91973
-3.91977
-3.91981
-3.91984
-3.91987
-3.91989
-3.9199
-3.91991
-3.91991
-3.9199
-3.91988
-3.91985
-3.91982
-3.91977
-3.91972
-3.91967
-3.91964
-3.91965
-3.91968
-3.91973
-3.91978
-3.91982
-3.91986
-3.91988
-3.9199
-3.91991
-3.91991
-3.9199
-3.91988
-3.91986
-3.91983
-3.9198
-3.91977
-3.91973
-3.91969
-3.91966
-3.91962
-3.91959
-3.91956
-3.91954
-3.91953
-3.91952
-3.91952
-3.91953
-3.91955
-3.91957
-3.9196
-3.91963
-3.91967
-3.9197
-3.91974
-3.91978
-3.91981
-3.91984
-3.91987
-3.91989
-3.9199
-3.91991
-3.91991
-3.9199
-3.91988
-3.91985
-3.91981
-3.91976
-3.91971
-3.91967
-3.91964
-3.91965
-3.91969
-3.91974
-3.91978
-3.91983
-3.91986
-3.91989
-3.9199
-3.91991
-3.91991
-3.9199
-3.91989
-3.91986
-3.91983
-3.9198
-3.91976
-3.91972
-3.91968
-3.91964
-3.9196
-3.91957
-3.91953
-3.91951
-3.91948
-3.91947
-3.91946
-4.24614
-4.24614
-4.24616
-4.24618
-4.2462
-4.24623
-4.24626
-4.24629
-4.24632
-4.24635
-4.24638
-4.24641
-4.24643
-4.24644
-4.24645
-4.24646
-4.24645
-4.24644
-4.24643
-4.2464
-4.24637
-4.24633
-4.24629
-4.24625
-4.24621
-4.24619
-4.24619
-4.24622
-4.24625
-4.2463
-4.24634
-4.24637
-4.2464
-4.24642
-4.24644
-4.24645
-4.24645
-4.24645
-4.24643
-4.24642
-4.2464
-4.24637
-4.24634
-4.24631
-4.24629
-4.24626
-4.24623
-4.24621
-4.24619
-4.24618
-4.24618
-4.24618
-4.24619
-4.2462
-4.24622
-4.24624
-4.24627
-4.24629
-4.24632
-4.24635
-4.24638
-4.2464
-4.24642
-4.24644
-4.24645
-4.24645
-4.24645
-4.24644
-4.24642
-4.24639
-4.24636
-4.24633
-4.24629
-4.24624
-4.24621
-4.24619
-4.2462
-4.24622
-4.24626
-4.2463
-4.24634
-4.24638
-4.24641
-4.24643
-4.24645
-4.24646
-4.24646
-4.24645
-4.24644
-4.24642
-4.2464
-4.24637
-4.24634
-4.24631
-4.24628
-4.24625
-4.24622
-4.24619
-4.24617
-4.24615
-4.24614
-4.24614
-4.57281
-4.57282
-4.57283
-4.57284
-4.57286
-4.57288
-4.5729
-4.57293
-4.57295
-4.57297
-4.57299
-4.573
-4.57301
-4.57302
-4.57302
-4.57301
-4.573
-4.57298
-4.57296
-4.57293
-4.57289
-4.57286
-4.57282
-4.57278
-4.57276
-4.57274
-4.57274
-4.57276
-4.57279
-4.57282
-4.57286
-4.57289
-4.57293
-4.57296
-4.57298
-4.57299
-4.573
-4.57301
-4.57301
-4.573
-4.57299
-4.57298
-4.57296
-4.57294
-4.57292
-4.5729
-4.57288
-4.57286
-4.57285
-4.57284
-4.57284
-4.57284
-4.57284
-4.57285
-4.57287
-4.57288
-4.5729
-4.57292
-4.57294
-4.57296
-4.57298
-4.57299
-4.573
-4.57301
-4.57301
-4.573
-4.57299
-4.57297
-4.57295
-4.57292
-4.57289
-4.57285
-4.57281
-4.57278
-4.57275
-4.57274
-4.57274
-4.57276
-4.57279
-4.57283
-4.57287
-4.5729
-4.57294
-4.57296
-4.57299
-4.573
-4.57301
-4.57302
-4.57302
-4.57301
-4.573
-4.57298
-4.57296
-4.57294
-4.57292
-4.5729
-4.57288
-4.57286
-4.57284
-4.57282
-4.57281
-4.57281
-4.89949
-4.89949
-4.8995
-4.89951
-4.89952
-4.89954
-4.89955
-4.89956
-4.89958
-4.89959
-4.8996
-4.8996
-4.8996
-4.8996
-4.89959
-4.89957
-4.89955
-4.89952
-4.89949
-4.89946
-4.89942
-4.89939
-4.89935
-4.89932
-4.89929
-4.89928
-4.89928
-4.8993
-4.89932
-4.89935
-4.89939
-4.89942
-4.89946
-4.89949
-4.89952
-4.89954
-4.89956
-4.89958
-4.89958
-4.89959
-4.89959
-4.89958
-4.89957
-4.89956
-4.89955
-4.89954
-4.89953
-4.89952
-4.89951
-4.8995
-4.8995
-4.8995
-4.8995
-4.89951
-4.89952
-4.89953
-4.89954
-4.89955
-4.89957
-4.89958
-4.89958
-4.89959
-4.89959
-4.89958
-4.89957
-4.89956
-4.89954
-4.89951
-4.89948
-4.89945
-4.89941
-4.89938
-4.89934
-4.89931
-4.89929
-4.89928
-4.89928
-4.8993
-4.89933
-4.89936
-4.8994
-4.89943
-4.89947
-4.8995
-4.89953
-4.89956
-4.89957
-4.89959
-4.8996
-4.8996
-4.8996
-4.89959
-4.89959
-4.89957
-4.89956
-4.89955
-4.89953
-4.89952
-4.89951
-4.8995
-4.89949
-4.89949
-5.22617
-5.22617
-5.22618
-5.22618
-5.22619
-5.22619
-5.2262
-5.2262
-5.22621
-5.22621
-5.2262
-5.2262
-5.22619
-5.22617
-5.22615
-5.22613
-5.2261
-5.22607
-5.22603
-5.22599
-5.22596
-5.22592
-5.22588
-5.22585
-5.22583
-5.22582
-5.22582
-5.22583
-5.22585
-5.22588
-5.22592
-5.22596
-5.22599
-5.22603
-5.22606
-5.22609
-5.22612
-5.22614
-5.22616
-5.22618
-5.22618
-5.22619
-5.22619
-5.22619
-5.22619
-5.22618
-5.22618
-5.22617
-5.22617
-5.22617
-5.22617
-5.22617
-5.22617
-5.22617
-5.22618
-5.22618
-5.22619
-5.22619
-5.22619
-5.22619
-5.22619
-5.22618
-5.22617
-5.22616
-5.22614
-5.22612
-5.22609
-5.22606
-5.22602
-5.22598
-5.22595
-5.22591
-5.22588
-5.22585
-5.22583
-5.22582
-5.22582
-5.22584
-5.22586
-5.22589
-5.22593
-5.22597
-5.226
-5.22604
-5.22608
-5.22611
-5.22614
-5.22616
-5.22618
-5.22619
-5.2262
-5.22621
-5.22621
-5.22621
-5.2262
-5.2262
-5.22619
-5.22619
-5.22618
-5.22617
-5.22617
-5.22617
-5.55286
-5.55286
-5.55286
-5.55286
-5.55286
-5.55285
-5.55285
-5.55285
-5.55284
-5.55283
-5.55281
-5.5528
-5.55278
-5.55275
-5.55272
-5.55269
-5.55265
-5.55261
-5.55257
-5.55253
-5.55249
-5.55245
-5.55242
-5.55239
-5.55237
-5.55236
-5.55236
-5.55237
-5.55239
-5.55242
-5.55245
-5.55249
-5.55253
-5.55257
-5.55261
-5.55265
-5.55268
-5.55271
-5.55274
-5.55277
-5.55278
-5.5528
-5.55281
-5.55282
-5.55283
-5.55283
-5.55284
-5.55284
-5.55284
-5.55284
-5.55284
-5.55284
-5.55284
-5.55284
-5.55284
-5.55284
-5.55283
-5.55283
-5.55282
-5.55281
-5.5528
-5.55278
-5.55276
-5.55274
-5.55271
-5.55267
-5.55264
-5.5526
-5.55256
-5.55252
-5.55248
-5.55244
-5.55241
-5.55238
-5.55237
-5.55236
-5.55236
-5.55237
-5.5524
-5.55243
-5.55246
-5.5525
-5.55254
-5.55258
-5.55262
-5.55266
-5.5527
-5.55273
-5.55276
-5.55278
-5.5528
-5.55282
-5.55283
-5.55284
-5.55285
-5.55285
-5.55285
-5.55286
-5.55286
-5.55286
-5.55286
-5.55286
-5.87955
-5.87955
-5.87955
-5.87954
-5.87953
-5.87952
-5.87951
-5.87949
-5.87947
-5.87945
-5.87943
-5.8794
-5.87937
-5.87933
-5.87929
-5.87925
-5.87921
-5.87916
-5.87912
-5.87907
-5.87903
-5.87899
-5.87895
-5.87892
-5.8789
-5.87889
-5.87889
-5.8789
-5.87892
-5.87895
-5.87899
-5.87903
-5.87907
-5.87912
-5.87916
-5.87921
-5.87925
-5.87929
-5.87932
-5.87936
-5.87939
-5.87942
-5.87944
-5.87946
-5.87948
-5.87949
-5.8795
-5.87951
-5.87952
-5.87952
-5.87952
-5.87952
-5.87952
-5.87952
-5.87951
-5.8795
-5.87949
-5.87947
-5.87945
-5.87943
-5.87941
-5.87938
-5.87935
-5.87932
-5.87928
-5.87924
-5.87919
-5.87915
-5.8791
-5.87906
-5.87902
-5.87898
-5.87894
-5.87892
-5.8789
-5.87889
-5.8789
-5.87891
-5.87893
-5.87896
-5.879
-5.87904
-5.87908
-5.87913
-5.87917
-5.87922
-5.87926
-5.8793
-5.87934
-5.87938
-5.87941
-5.87943
-5.87946
-5.87948
-5.8795
-5.87951
-5.87952
-5.87953
-5.87954
-5.87955
-5.87955
-5.87955
-6.20626
-6.20625
-6.20624
-6.20623
-6.20622
-6.2062
-6.20617
-6.20615
-6.20612
-6.20608
-6.20605
-6.206
-6.20596
-6.20592
-6.20587
-6.20582
-6.20577
-6.20571
-6.20566
-6.20561
-6.20557
-6.20552
-6.20549
-6.20546
-6.20544
-6.20543
-6.20543
-6.20544
-6.20546
-6.20549
-6.20553
-6.20557
-6.20561
-6.20566
-6.20572
-6.20577
-6.20582
-6.20587
-6.20591
-6.20596
-6.206
-6.20604
-6.20607
-6.2061
-6.20613
-6.20616
-6.20618
-6.20619
-6.2062
-6.20621
-6.20622
-6.20622
-6.20621
-6.2062
-6.20619
-6.20617
-6.20615
-6.20613
-6.2061
-6.20606
-6.20603
-6.20599
-6.20595
-6.2059
-6.20585
-6.2058
-6.20575
-6.2057
-6.20565
-6.2056
-6.20556
-6.20552
-6.20548
-6.20545
-6.20544
-6.20543
-6.20543
-6.20544
-6.20547
-6.2055
-6.20553
-6.20558
-6.20562
-6.20568
-6.20573
-6.20578
-6.20583
-6.20588
-6.20593
-6.20597
-6.20602
-6.20606
-6.20609
-6.20612
-6.20615
-6.20618
-6.2062
-6.20622
-6.20624
-6.20625
-6.20625
-6.20626
-6.53297
-6.53297
-6.53296
-6.53294
-6.53291
-6.53288
-6.53285
-6.53281
-6.53277
-6.53272
-6.53267
-6.53262
-6.53256
-6.53251
-6.53245
-6.53239
-6.53233
-6.53227
-6.53221
-6.53216
-6.53211
-6.53206
-6.53203
-6.532
-6.53198
-6.53197
-6.53197
-6.53198
-6.532
-6.53203
-6.53207
-6.53211
-6.53216
-6.53222
-6.53228
-6.53233
-6.53239
-6.53245
-6.53251
-6.53257
-6.53262
-6.53267
-6.53272
-6.53276
-6.5328
-6.53284
-6.53286
-6.53289
-6.53291
-6.53292
-6.53292
-6.53292
-6.53292
-6.5329
-6.53288
-6.53286
-6.53283
-6.53279
-6.53275
-6.53271
-6.53266
-6.53261
-6.53255
-6.5325
-6.53244
-6.53238
-6.53232
-6.53226
-6.5322
-6.53215
-6.5321
-6.53206
-6.53202
-6.532
-6.53198
-6.53197
-6.53197
-6.53198
-6.53201
-6.53204
-6.53208
-6.53212
-6.53217
-6.53223
-6.53229
-6.53234
-6.5324
-6.53246
-6.53252
-6.53258
-6.53263
-6.53269
-6.53273
-6.53278
-6.53282
-6.53286
-6.53289
-6.53292
-6.53294
-6.53296
-6.53297
-6.53298
-6.85971
-6.8597
-6.85968
-6.85966
-6.85962
-6.85959
-6.85954
-6.85949
-6.85943
-6.85937
-6.85931
-6.85925
-6.85918
-6.85911
-6.85904
-6.85897
-6.8589
-6.85884
-6.85877
-6.85871
-6.85866
-6.85861
-6.85857
-6.85854
-6.85852
-6.85851
-6.85852
-6.85853
-6.85855
-6.85858
-6.85862
-6.85867
-6.85872
-6.85878
-6.85885
-6.85891
-6.85898
-6.85905
-6.85912
-6.85919
-6.85925
-6.85932
-6.85938
-6.85943
-6.85948
-6.85953
-6.85957
-6.8596
-6.85962
-6.85964
-6.85965
-6.85965
-6.85964
-6.85962
-6.85959
-6.85956
-6.85952
-6.85947
-6.85942
-6.85936
-6.8593
-6.85924
-6.85917
-6.8591
-6.85903
-6.85896
-6.8589
-6.85883
-6.85877
-6.85871
-6.85866
-6.85861
-6.85857
-6.85854
-6.85852
-6.85851
-6.85852
-6.85853
-6.85855
-6.85858
-6.85863
-6.85867
-6.85873
-6.85879
-6.85885
-6.85892
-6.85899
-6.85906
-6.85913
-6.8592
-6.85926
-6.85933
-6.85939
-6.85945
-6.8595
-6.85955
-6.8596
-6.85963
-6.85966
-6.85969
-6.8597
-6.85971
-7.18646
-7.18645
-7.18643
-7.1864
-7.18635
-7.18631
-7.18625
-7.18619
-7.18612
-7.18604
-7.18597
-7.18589
-7.18581
-7.18573
-7.18565
-7.18557
-7.18549
-7.18542
-7.18535
-7.18528
-7.18522
-7.18517
-7.18513
-7.1851
-7.18508
-7.18507
-7.18507
-7.18508
-7.18511
-7.18514
-7.18518
-7.18524
-7.1853
-7.18536
-7.18543
-7.18551
-7.18559
-7.18566
-7.18575
-7.18583
-7.1859
-7.18598
-7.18605
-7.18612
-7.18619
-7.18624
-7.18629
-7.18633
-7.18636
-7.18638
-7.18639
-7.18639
-7.18638
-7.18636
-7.18632
-7.18628
-7.18623
-7.18617
-7.18611
-7.18604
-7.18596
-7.18588
-7.1858
-7.18572
-7.18564
-7.18556
-7.18549
-7.18541
-7.18534
-7.18528
-7.18522
-7.18517
-7.18513
-7.1851
-7.18508
-7.18507
-7.18507
-7.18509
-7.18511
-7.18514
-7.18519
-7.18524
-7.1853
-7.18536
-7.18544
-7.18551
-7.18559
-7.18567
-7.18575
-7.18583
-7.18591
-7.18599
-7.18606
-7.18613
-7.1862
-7.18626
-7.18632
-7.18637
-7.18641
-7.18643
-7.18645
-7.18646
-7.51324
-7.51322
-7.5132
-7.51316
-7.51311
-7.51305
-7.51298
-7.5129
-7.51282
-7.51274
-7.51265
-7.51255
-7.51246
-7.51237
-7.51228
-7.51219
-7.5121
-7.51202
-7.51194
-7.51187
-7.51181
-7.51175
-7.51171
-7.51168
-7.51165
-7.51164
-7.51165
-7.51166
-7.51168
-7.51172
-7.51177
-7.51182
-7.51189
-7.51196
-7.51204
-7.51212
-7.51221
-7.5123
-7.51239
-7.51249
-7.51258
-7.51267
-7.51276
-7.51284
-7.51291
-7.51298
-7.51304
-7.51309
-7.51312
-7.51315
-7.51316
-7.51316
-7.51314
-7.51311
-7.51308
-7.51302
-7.51296
-7.51289
-7.51282
-7.51273
-7.51265
-7.51255
-7.51246
-7.51237
-7.51228
-7.51219
-7.5121
-7.51202
-7.51194
-7.51187
-7.51181
-7.51175
-7.51171
-7.51168
-7.51165
-7.51164
-7.51165
-7.51166
-7.51168
-7.51172
-7.51177
-7.51182
-7.51189
-7.51196
-7.51204
-7.51212
-7.51221
-7.5123
-7.51239
-7.51248
-7.51258
-7.51267
-7.51276
-7.51284
-7.51292
-7.513
-7.51306
-7.51312
-7.51317
-7.5132
-7.51323
-7.51324
-7.84004
-7.84002
-7.83999
-7.83994
-7.83989
-7.83982
-7.83974
-7.83965
-7.83956
-7.83946
-7.83935
-7.83925
-7.83914
-7.83904
-7.83893
-7.83883
-7.83874
-7.83864
-7.83856
-7.83848
-7.83842
-7.83836
-7.83831
-7.83828
-7.83825
-7.83824
-7.83824
-7.83826
-7.83828
-7.83832
-7.83837
-7.83844
-7.83851
-7.83859
-7.83867
-7.83877
-7.83886
-7.83897
-7.83907
-7.83918
-7.83928
-7.83938
-7.83948
-7.83958
-7.83967
-7.83974
-7.83981
-7.83987
-7.83991
-7.83994
-7.83995
-7.83995
-7.83993
-7.8399
-7.83985
-7.8398
-7.83972
-7.83964
-7.83955
-7.83946
-7.83936
-7.83925
-7.83915
-7.83904
-7.83894
-7.83884
-7.83874
-7.83865
-7.83856
-7.83849
-7.83842
-7.83836
-7.83831
-7.83828
-7.83825
-7.83824
-7.83824
-7.83826
-7.83828
-7.83832
-7.83837
-7.83843
-7.8385
-7.83858
-7.83867
-7.83876
-7.83886
-7.83896
-7.83906
-7.83917
-7.83927
-7.83938
-7.83948
-7.83958
-7.83967
-7.83976
-7.83984
-7.8399
-7.83996
-7.84
-7.84003
-7.84004
-8.16687
-8.16685
-8.16681
-8.16676
-8.16669
-8.16662
-8.16653
-8.16643
-8.16632
-8.16621
-8.16609
-8.16598
-8.16586
-8.16574
-8.16563
-8.16551
-8.16541
-8.16531
-8.16522
-8.16513
-8.16506
-8.165
-8.16495
-8.16491
-8.16488
-8.16487
-8.16488
-8.16489
-8.16492
-8.16496
-8.16502
-8.16508
-8.16516
-8.16525
-8.16534
-8.16545
-8.16556
-8.16567
-8.16579
-8.1659
-8.16602
-8.16614
-8.16625
-8.16635
-8.16645
-8.16654
-8.16662
-8.16668
-8.16673
-8.16676
-8.16678
-8.16677
-8.16675
-8.16672
-8.16666
-8.1666
-8.16652
-8.16643
-8.16633
-8.16622
-8.16611
-8.16599
-8.16587
-8.16575
-8.16564
-8.16553
-8.16542
-8.16532
-8.16523
-8.16514
-8.16507
-8.165
-8.16495
-8.16491
-8.16489
-8.16487
-8.16488
-8.16489
-8.16492
-8.16496
-8.16501
-8.16508
-8.16516
-8.16524
-8.16533
-8.16544
-8.16554
-8.16566
-8.16577
-8.16589
-8.16601
-8.16612
-8.16624
-8.16635
-8.16645
-8.16655
-8.16664
-8.16671
-8.16677
-8.16682
-8.16685
-8.16687
-8.49373
-8.4937
-8.49367
-8.49361
-8.49354
-8.49345
-8.49335
-8.49324
-8.49313
-8.493
-8.49288
-8.49275
-8.49262
-8.49249
-8.49237
-8.49224
-8.49213
-8.49202
-8.49192
-8.49183
-8.49175
-8.49169
-8.49163
-8.49159
-8.49156
-8.49155
-8.49156
-8.49157
-8.4916
-8.49165
-8.49171
-8.49178
-8.49186
-8.49196
-8.49206
-8.49217
-8.49229
-8.49242
-8.49254
-8.49267
-8.4928
-8.49293
-8.49305
-8.49317
-8.49327
-8.49337
-8.49345
-8.49352
-8.49358
-8.49361
-8.49363
-8.49363
-8.49361
-8.49357
-8.49351
-8.49343
-8.49335
-8.49325
-8.49314
-8.49302
-8.49289
-8.49277
-8.49264
-8.49251
-8.49238
-8.49226
-8.49214
-8.49204
-8.49193
-8.49184
-8.49176
-8.49169
-8.49164
-8.49159
-8.49157
-8.49155
-8.49155
-8.49157
-8.4916
-8.49165
-8.4917
-8.49177
-8.49185
-8.49195
-8.49205
-8.49216
-8.49228
-8.4924
-8.49252
-8.49265
-8.49278
-8.49291
-8.49304
-8.49316
-8.49327
-8.49338
-8.49347
-8.49356
-8.49362
-8.49368
-8.49371
-8.49373
-8.82062
-8.8206
-8.82055
-8.82049
-8.82042
-8.82032
-8.82022
-8.8201
-8.81998
-8.81984
-8.81971
-8.81957
-8.81943
-8.81929
-8.81916
-8.81903
-8.81891
-8.81879
-8.81869
-8.81859
-8.81851
-8.81843
-8.81838
-8.81833
-8.81831
-8.81829
-8.8183
-8.81831
-8.81835
-8.8184
-8.81846
-8.81854
-8.81863
-8.81873
-8.81884
-8.81896
-8.81909
-8.81922
-8.81935
-8.81949
-8.81963
-8.81977
-8.8199
-8.82002
-8.82014
-8.82024
-8.82033
-8.82041
-8.82046
-8.8205
-8.82052
-8.82052
-8.82049
-8.82045
-8.82039
-8.82031
-8.82021
-8.82011
-8.81999
-8.81986
-8.81973
-8.81959
-8.81946
-8.81932
-8.81918
-8.81905
-8.81893
-8.81881
-8.8187
-8.8186
-8.81852
-8.81844
-8.81838
-8.81834
-8.81831
-8.81829
-8.81829
-8.81831
-8.81834
-8.81839
-8.81845
-8.81853
-8.81861
-8.81871
-8.81882
-8.81894
-8.81906
-8.81919
-8.81933
-8.81947
-8.81961
-8.81974
-8.81988
-8.82001
-8.82013
-8.82025
-8.82035
-8.82044
-8.82051
-8.82057
-8.8206
-8.82062
-9.14755
-9.14752
-9.14748
-9.14742
-9.14733
-9.14724
-9.14713
-9.147
-9.14687
-9.14673
-9.14659
-9.14645
-9.1463
-9.14616
-9.14602
-9.14588
-9.14575
-9.14563
-9.14552
-9.14542
-9.14533
-9.14526
-9.1452
-9.14515
-9.14512
-9.14511
-9.14511
-9.14513
-9.14517
-9.14522
-9.14528
-9.14537
-9.14546
-9.14557
-9.14568
-9.14581
-9.14594
-9.14608
-9.14622
-9.14637
-9.14651
-9.14665
-9.14679
-9.14692
-9.14704
-9.14715
-9.14725
-9.14733
-9.14739
-9.14743
-9.14745
-9.14744
-9.14742
-9.14737
-9.14731
-9.14722
-9.14713
-9.14701
-9.14689
-9.14676
-9.14662
-9.14647
-9.14633
-9.14618
-9.14604
-9.14591
-9.14577
-9.14565
-9.14554
-9.14543
-9.14534
-9.14527
-9.1452
-9.14516
-9.14512
-9.14511
-9.14511
-9.14513
-9.14516
-9.14521
-9.14527
-9.14535
-9.14544
-9.14555
-9.14566
-9.14578
-9.14592
-9.14605
-9.14619
-9.14634
-9.14648
-9.14663
-9.14677
-9.14691
-9.14704
-9.14716
-9.14726
-9.14736
-9.14743
-9.14749
-9.14753
-9.14755
-9.47451
-9.47449
-9.47444
-9.47438
-9.47429
-9.47419
-9.47408
-9.47396
-9.47382
-9.47368
-9.47353
-9.47338
-9.47323
-9.47309
-9.47294
-9.4728
-9.47267
-9.47255
-9.47243
-9.47233
-9.47224
-9.47216
-9.4721
-9.47205
-9.47202
-9.47201
-9.47201
-9.47203
-9.47207
-9.47212
-9.47219
-9.47227
-9.47237
-9.47248
-9.4726
-9.47273
-9.47287
-9.47301
-9.47316
-9.4733
-9.47345
-9.4736
-9.47374
-9.47387
-9.474
-9.47411
-9.47421
-9.47429
-9.47435
-9.47439
-9.47441
-9.47441
-9.47438
-9.47434
-9.47427
-9.47418
-9.47408
-9.47397
-9.47384
-9.4737
-9.47356
-9.47341
-9.47326
-9.47312
-9.47297
-9.47283
-9.47269
-9.47257
-9.47245
-9.47234
-9.47225
-9.47217
-9.47211
-9.47206
-9.47203
-9.47201
-9.47201
-9.47203
-9.47206
-9.47211
-9.47218
-9.47226
-9.47235
-9.47246
-9.47258
-9.4727
-9.47284
-9.47298
-9.47313
-9.47327
-9.47342
-9.47357
-9.47372
-9.47386
-9.47399
-9.47411
-9.47422
-9.47432
-9.4744
-9.47446
-9.4745
-9.47452
)
;

boundaryField
{
    top
    {
        type            calculated;
        value           nonuniform List<scalar> 
102
(
-9.63801
-9.63799
-9.63794
-9.63787
-9.63779
-9.63769
-9.63757
-9.63744
-9.63731
-9.63717
-9.63702
-9.63687
-9.63672
-9.63657
-9.63642
-9.63628
-9.63615
-9.63602
-9.63591
-9.6358
-9.63571
-9.63563
-9.63557
-9.63552
-9.63549
-9.63548
-9.63548
-9.6355
-9.63554
-9.63559
-9.63566
-9.63575
-9.63585
-9.63596
-9.63608
-9.63621
-9.63635
-9.63649
-9.63664
-9.63679
-9.63694
-9.63709
-9.63723
-9.63736
-9.63749
-9.6376
-9.6377
-9.63778
-9.63785
-9.63789
-9.63791
-9.63791
-9.63788
-9.63783
-9.63776
-9.63768
-9.63757
-9.63746
-9.63733
-9.63719
-9.63705
-9.6369
-9.63675
-9.6366
-9.63645
-9.63631
-9.63617
-9.63604
-9.63593
-9.63582
-9.63572
-9.63564
-9.63558
-9.63553
-9.6355
-9.63548
-9.63548
-9.6355
-9.63554
-9.63559
-9.63565
-9.63573
-9.63583
-9.63594
-9.63605
-9.63618
-9.63632
-9.63646
-9.63661
-9.63676
-9.63691
-9.63706
-9.6372
-9.63734
-9.63748
-9.6376
-9.63771
-9.63781
-9.63789
-9.63795
-9.63799
-9.63801
)
;
    }
    bottom
    {
        type            calculated;
        value           nonuniform List<scalar> 
102
(
0.163109
0.163079
0.163022
0.162939
0.162831
0.162697
0.162538
0.162355
0.162147
0.161917
0.161667
0.1614
0.16112
0.160833
0.160547
0.16027
0.160011
0.159781