/*--------------------------------*- C++ -*----------------------------------*\
| =========                 |                                                 |
| \\      /  F ield         | OpenFOAM: The Open Source CFD Toolbox           |
|  \\    /   O peration     | Version:  2.3.0                                 |
|   \\  /    A nd           | Web:      www.OpenFOAM.org                      |
|    \\/     M anipulation  |                                                 |
\*---------------------------------------------------------------------------*/
FoamFile
{
    version     2.0;
    format      ascii;
    class       volScalarField;
    location    "4000";
    object      p;
}
// * * * * * * * * * * * * * * * * * * * * * * * * * * * * * * * * * * * * * //

dimensions      [0 2 -2 0 0 0 0];

internalField   nonuniform List<scalar> 
3060
(
0
-3.0139
-8.66713
-16.921
-27.735
-41.0744
-56.9087
-75.1962
-95.8594
-118.76
-143.679
-170.3
-198.189
-226.77
-255.304
-282.897
-308.605
-331.542
-350.953
-366.45
-378.137
-386.397
-391.865
-395.245
-397.133
-397.919
-397.788
-396.731
-394.547
-390.828
-384.966
-376.249
-364.046
-347.992
-328.015
-304.55
-278.392
-250.507
-221.926
-193.582
-166.225
-140.439
-116.66
-95.1969
-76.2534
-59.9518
-46.3572
-35.5048
-27.4215
-22.1337
-19.6669
-20.037
-23.2411
-29.2599
-38.0673
-49.6369
-63.9409
-80.9389
-100.554
-122.644
-146.98
-173.223
-200.901
-229.387
-257.882
-285.418
-310.962
-333.585
-352.562
-367.589
-378.837
-386.743
-391.98
-395.247
-397.107
-397.912
-397.811
-396.763
-394.534
-390.675
-384.547
-375.448
-362.796
-346.272
-325.885
-302.145
-275.859
-247.931
-219.305
-190.842
-163.233
-137.018
-112.597
-90.261
-70.2052
-52.5503
-37.3619
-24.6765
-14.525
-6.9438
-1.97391
0.347977
40.0359
37.4552
32.5931
25.4473
16.0138
4.29582
-9.68279
-25.8621
-44.1351
-64.3405
-86.25
-109.542
-133.762
-158.304
-182.528
-206.032
-228.576
-249.44
-267.437
-281.763
-292.512
-300.126
-305.229
-308.448
-310.29
-311.079
-310.963
-309.936
-307.834
-304.323
-298.883
-290.879
-279.695
-264.909
-246.512
-225.387
-202.711
-179.163
-155.004
-130.727
-107.039
-84.5459
-63.6984
-44.8144
-28.1167
-13.7542
-1.81383
7.66791
14.6871
19.2542
21.3775
21.0593
18.2996
13.0947
5.4345
-4.68924
-17.266
-32.2476
-49.5321
-68.9525
-90.2639
-113.118
-137.024
-161.335
-185.37
-208.724
-231.088
-251.62
-269.129
-282.945
-293.251
-300.525
-305.403
-308.505
-310.302
-311.082
-310.969
-309.926
-307.764
-304.11
-298.416
-290.04
-278.396
-263.089
-244.236
-222.827
-199.994
-176.288
-151.929
-127.404
-103.372
-80.4021
-58.9091
-39.1874
-21.4458
-5.83077
7.5638
18.6886
27.5267
34.0778
38.3465
40.3331
69.8923
67.361
62.6193
55.7196
46.7455
35.8207
23.1101
8.80927
-6.8783
-23.7639
-41.6842
-60.501
-80.1004
-100.389
-121.164
-141.791
-161.096
-177.956
-191.963
-203.592
-212.811
-219.194
-223.247
-225.686
-227.038
-227.601
-227.506
-226.748
-225.187
-222.514
-218.193
-211.516
-202.024
-190.189
-176.009
-159.047
-139.802
-119.468
-99.1925
-79.538
-60.6682
-42.6863
-25.7345
-9.98736
4.35366
17.0694
27.9438
36.7883
43.4579
47.8529
49.911
49.602
46.9308
41.9358
34.6881
25.2988
13.925
0.764362
-13.9638
-30.0433
-47.2791
-65.5047
-84.5872
-104.429
-124.801
-144.977
-163.727
-179.965
-193.482
-204.751
-213.525
-219.521
-223.347
-225.689
-227.019
-227.596
-227.525
-226.775
-225.177
-222.378
-217.789
-210.686
-200.779
-188.572
-173.851
-156.274
-136.5
-115.735
-95.0502
-74.9302
-55.5257
-36.9303
-19.2649
-2.67425
12.6716
26.5785
38.8424
49.2741
57.7186
64.0634
68.2341
70.1845
116.777
114.317
109.722
103.061
94.4425
84.0166
71.9773
58.5545
43.9945
28.5353
12.3853
-4.29096
-21.3791
-38.8026
-56.397
-73.6789
-89.9676
-104.945
-118.193
-128.524
-135.637
-140.609
-143.518
-144.939
-145.586
-145.811
-145.742
-145.378
-144.584
-143.003
-139.922
-134.822
-127.607
-117.222
-104.071
-89.2678
-73.18
-56.1965
-39.0449
-22.1744
-5.7177
10.2302
25.5202
39.9466
53.2614
65.1977
75.4972
83.9354
90.3355
94.5706
96.559
96.2602
93.6808
88.872
81.9267
72.9845
62.2352
49.914
36.2841
21.6101
6.13075
-9.96211
-26.535
-43.5007
-60.669
-77.4831
-93.2562
-107.688
-120.251
-129.754
-136.334
-140.923
-143.528
-144.85
-145.51
-145.789
-145.788
-145.471
-144.671
-142.946
-139.511
-134.028
-126.182
-114.973
-101.191
-85.8554
-69.2578
-51.8209
-34.2399
-16.8967
0.091714
16.6438
32.6318
47.8786
62.1664
75.2528
86.8933
96.866
104.988
111.12
115.165
117.061
164.648
162.435
158.302
152.318
144.582
135.228
124.415
112.329
99.1673
85.1286
70.4065
55.1891
39.6708
24.0783
8.73435
-5.87462
-19.3074
-31.6721
-43.2483
-53.1201
-59.9766
-63.6604
-65.1904
-65.5778
-65.5078
-65.395
-65.3547
-65.3877
-65.3811
-64.9302
-63.3727
-59.6982
-52.8967
-43.1188
-31.685
-19.4172
-6.02773
8.47518
23.5644
38.7532
53.7326
68.2721
82.1633
95.1976
107.161
117.839
127.027
134.547
140.249
144.023
145.794
145.528
143.23
138.945
132.757
124.787
115.192
104.159
91.8957
78.6177
64.5376
49.8628
34.8045
19.6056
4.61349
-9.63795
-22.7076
-34.7479
-45.8974
-54.9874
-60.9328
-63.9334
-65.1315
-65.4049
-65.379
-65.3591
-65.4245
-65.544
-65.5533
-64.9345
-62.9672
-58.5206
-50.8128
-40.3379
-28.538
-15.9361
-2.17903
12.6772
28.1265
43.7254
59.1853
74.292
88.8546
102.684
115.585
127.359
137.809
146.757
154.048
159.559
163.198
164.904
206.799
204.783
201.024
195.59
188.582
180.131
170.39
159.534
147.751
135.232
122.167
108.744
95.1603
81.6317
68.4255
55.8871
44.3958
34.2169
25.5545
18.5294
13.2919
10.9228
11.0456
12.3088
13.4044
13.9107
13.9194
13.4215
12.3013
10.9662
10.7153
12.9816
18.1903
25.2528
33.9704
44.1599
55.6049
68.0059
80.9594
94.1156
107.206
120.004
132.299
143.885
154.555
164.106
172.346
179.106
184.242
187.647
189.246
189.006
186.931
183.067
177.496
170.335
161.736
151.875
140.946
129.155
116.709
103.814
90.6839
77.5518
64.7045
52.5152
41.3749
31.5456
23.2535
16.6101
12.0848
10.5945
11.2592
12.6498
13.6037
13.9605
13.8249
13.1722
11.9421
10.8461
11.2455
14.4052
20.2072
27.643
36.7232
47.2624
59.0587
71.8099
85.131
98.6977
112.26
125.608
138.55
150.896
162.455
173.039
182.46
190.55
197.16
202.166
205.478
207.032
245.908
244.086
240.692
235.794
229.491
221.909
213.195
203.515
193.045
181.966
170.461
158.718
146.929
135.303
124.078
113.522
103.923
95.5215
88.5717
83.4298
80.533
80.6198
83.5649
87.2849
90.1777
91.4742
91.4396
90.0462
86.9893
83.0424
79.9578
79.9194
82.9418
88.1907
95.205
103.619
113.175
123.61
134.621
145.927
157.283
168.468
179.276
189.505
198.958
207.444
214.785
220.82
225.415
228.464
229.898
229.683
227.823
224.363
219.381
212.992
205.336
196.58
186.906
176.508
165.582
154.332
142.967
131.713
120.824
110.589
101.307
93.2286
86.6366
81.9083
79.6006
80.5221
84.0826
87.9122
90.5684
91.5603
91.2779
89.5581
86.3466
82.6196
80.2757
81.0224
84.5701
90.2157
97.5752
106.31
116.184
126.943
138.298
149.988
161.785
173.485
184.896
195.835
206.117
215.562
223.997
231.259
237.208
241.723
244.714
246.119
282.483
280.84
277.78
273.374
267.72
260.942
253.182
244.6
235.365
225.652
215.637
205.499
195.42
185.592
176.221
167.536
159.774
153.162
147.943
144.425
143.025
144.601
150.024
157.181
162.674
165.362
165.261
162.33
156.529
149.153
143.77
142.362
143.913
147.548
152.845
159.486
167.223
175.815
185.01
194.571
204.28
213.933
223.334
232.288
240.609
248.112
254.628
260.003
264.104
266.831
268.115
267.922
266.257
263.164
258.72
253.035
246.246
238.512
230.008
220.919
211.435
201.748
192.057
182.57
173.509
165.115
157.64
151.323
146.426
143.282
142.39
144.791
151.04
158.282
163.38
165.543
164.937
161.492
155.368
148.292
143.826
143.143
145.153
149.146
154.756
161.689
169.714
178.602
188.112
198.025
208.138
218.262
228.215
237.821
246.902
255.286
262.806
269.305
274.645
278.709
281.406
282.674
317.391
315.913
313.166
309.219
304.169
298.138
291.266
283.709
275.628
267.192
258.57
249.929
241.442
233.28
225.627
218.675
212.625
207.678
204.057
202.039
201.986
204.508
210.644
219.85
228.087
232.385
232.201
227.518
218.951
209.674
203.69
201.352
201.564
203.709
207.421
212.417
218.468
225.363
232.888
240.84
249.027
257.26
265.355
273.129
280.401
286.998
292.753
297.518
301.165
303.595
304.74
304.568
303.083
300.328
296.379
291.343
285.353
278.564
271.144
263.269
255.12
246.881
238.737
230.877
223.497
216.801
211.004
206.319
202.985
201.302
201.678
204.85
211.886
221.434
229.161
232.684
231.688
226.256
217.352
208.653
203.545
201.779
202.388
204.854
208.845
214.099
220.404
227.559
235.362
243.625
252.169
260.821
269.412
277.771
285.732
293.127
299.794
305.583
310.356
314
316.422
317.562
351.201
349.878
347.423
343.905
339.419
334.085
328.043
321.441
314.437
307.192
299.866
292.619
285.605
278.982
272.907
267.546
263.062
259.628
257.43
256.693
257.709
260.892
266.899
275.853
285.002
290.34
290.099
284.322
274.926
266.004
260.163
257.156
256.301
257.172
259.477
262.983
267.498
272.843
278.839
285.314
292.096
299.016
305.903
312.583
318.886
324.643
329.695
333.896
337.124
339.279
340.296
340.143
338.825
336.382
332.891
328.454
323.204
317.289
310.872
304.121
297.209
290.308
283.589
277.223
271.379
266.233
261.964
258.751
256.795
256.341
257.709
261.376
268.067
277.507
286.299
290.72
289.454
282.848
273.325
265.021
259.819
257.252
256.726
257.868
260.409
264.134
268.862
274.426
280.659
287.399
294.488
301.771
309.091
316.288
323.203
329.675
335.547
340.672
344.917
348.168
350.334
351.355
384.36
383.185
381.008
377.897
373.946
369.274
364.013
358.311
352.318
346.187
340.069
334.113
328.46
323.249
318.616
314.697
311.625
309.532
308.562
308.879
310.679
314.21
319.776
327.401
335.465
340.584
340.342
334.826
326.596
319.026
313.608
310.241
308.599
308.424
309.515
311.703
314.839
318.783
323.389
328.512
334.004
339.711
345.477
351.14
356.538
361.509
365.901
369.574
372.407
374.304
375.2
375.065
373.903
371.755
368.693
364.821
360.263
355.166
349.683
343.977
338.211
332.545
327.134
322.131
317.683
313.937
311.034
309.117
308.339
308.874
310.939
314.805
320.807
328.794
336.664
340.965
339.708
333.502
325.261
318.112
313.104
310.051
308.659
308.696
309.973
312.334
315.64
319.758
324.554
329.893
335.639
341.651
347.786
353.896
359.828
365.43
370.551
375.049
378.791
381.668
383.589
384.496
417.149
416.118
414.212
411.498
408.066
404.032
399.524
394.681
389.649
384.57
379.587
374.834
370.44
366.526
363.206
360.59
358.777
357.862
357.94
359.109
361.473
365.135
370.158
376.369
382.689
386.781
386.578
382.17
375.733
369.571
364.675
361.165
358.956
357.934
357.991
359.024
360.931
363.611
366.954
370.838
375.137
379.717
384.433
389.137
393.677
397.901
401.663
404.828
407.28
408.927
409.707
409.59
408.58
406.715
404.067
400.734
396.839
392.518
387.921
383.198
378.503
373.983
369.779
366.024
362.843
360.354
358.664
357.876
358.09
359.41
361.948
365.814
371.07
377.456
383.622
387.087
386.071
381.147
374.67
368.717
364.049
360.734
358.692
357.817
358.007
359.165
361.197
364.006
367.491
371.541
376.041
380.866
385.888
390.968
395.965
400.734
405.132
409.022
412.277
414.789
416.472
417.268
449.723
448.837
447.204
444.886
441.971
438.569
434.801
430.798
426.695
422.626
418.721
415.101
411.882
409.165
407.046
405.607
404.916
405.032
406.003
407.867
410.646
414.332
418.838
423.884
428.674
431.695
431.542
428.286
423.411
418.407
414.011
410.465
407.836
406.124
405.3
405.321
406.134
407.673
409.86
412.599
415.786
419.302
423.02
426.805
430.515
434.01
437.152
439.817
441.893
443.293
443.958
443.857
442.997
441.414
439.175
436.374
433.127
429.562
425.819
422.039
418.36
414.918
411.837
409.231
407.205
405.848
405.235
405.429
406.481
408.43
411.299
415.078
419.669
424.741
429.362
431.917
431.173
427.525
422.547
417.594
413.286
409.832
407.292
405.664
404.92
405.02
405.911
407.535
409.818
412.675
416.009
419.714
423.674
427.765
431.854
435.809
439.494
442.781
445.55
447.698
449.142
449.825
482.136
481.401
480.048
478.137
475.751
472.99
469.968
466.804
463.621
460.54
457.677
455.142
453.031
451.432
450.42
450.05
450.365
451.387
453.126
455.569
458.673
462.352
466.438
470.617
474.291
476.502
476.394
474.016
470.283
466.14
462.151
458.601
455.643
453.354
451.771
450.901
450.731
451.23
452.348
454.015
456.147
458.642
461.391
464.273
467.161
469.927
472.447
474.605
476.298
477.446
477.992
477.909
477.203
475.906
474.083
471.82
469.224
466.414
463.515
460.656
457.962
455.551
453.531
451.999
451.036
450.707
451.057
452.112
453.881
456.349
459.471
463.155
467.22
471.326
474.81
476.663
476.125
473.431
469.545
465.347
461.344
457.803
454.866
452.604
451.051
450.214
450.081
450.623
451.794
453.534
455.764
458.395
461.325
464.444
467.634
470.773
473.738
476.412
478.684
480.456
481.653
482.222
514.364
513.787
512.73
511.247
509.413
507.319
505.065
502.757
500.504
498.41
496.577
495.097
494.052
493.512
493.533
494.148
495.374
497.206
499.618
502.556
505.934
509.615
513.396
516.972
519.896
521.569
521.495
519.708
516.745
513.202
509.506
505.943
502.704
499.918
497.666
495.995
494.929
494.465
494.579
495.224
496.336
497.831
499.618
501.593
503.647
505.667
507.544
509.176
510.47
511.354
511.776
511.712
511.166
510.169
508.779
507.074
505.149
503.11
501.066
499.129
497.409
496.004
495.007
494.494
494.527
495.147
496.371
498.196
500.593
503.507
506.845
510.464
514.153
517.594
520.313
521.691
521.287
519.229
516.082
512.416
508.637
505.018
501.744
498.936
496.671
494.995
493.929
493.471
493.601
494.278
495.443
497.023
498.934
501.079
503.357
505.661
507.883
509.919
511.669
513.048
513.985
514.431
546.32
545.912
545.172
544.146
542.9
541.51
540.063
538.646
537.35
536.263
535.466
535.035
535.034
535.516
536.518
538.055
540.12
542.687
545.702
549.081
552.708
556.42
560.003
563.186
565.633
566.971
566.92
565.505
563.032
559.878
556.367
552.76
549.262
546.027
543.17
540.767
538.867
537.494
536.645
536.295
536.398
536.893
537.704
538.749
539.939
541.18
542.381
543.455
544.326
544.928
545.219
545.175
544.8
544.122
543.191
542.076
540.856
539.619
538.459
537.466
536.729
536.33
536.339
536.815
537.799
539.31
541.344
543.871
546.836
550.151
553.694
557.299
560.745
563.756
565.991
567.072
566.748
565.087
562.413
559.096
555.455
551.747
548.171
544.877
541.973
539.532
537.603
536.206
535.341
534.989
535.107
535.641
536.521
537.671
539.006
540.44
541.881
543.241
544.437
545.394
546.052
546.367
577.869
577.645
577.248
576.715
576.1
575.464
574.873
574.395
574.099
574.052
574.316
574.945
575.986
577.475
579.429
581.845
584.701
587.951
591.521
595.308
599.177
602.956
606.437
609.383
611.545
612.685
612.65
611.452
609.269
606.342
602.918
599.226
595.47
591.814
588.39
585.297
582.604
580.352
578.559
577.219
576.307
575.781
575.587
575.664
575.945
576.361
576.841
577.319
577.733
578.033
578.18
578.158
577.968
577.634
577.198
576.713
576.242
575.855
575.62
575.608
575.883
576.505
577.525
578.98
580.893
583.263
586.065
589.252
592.747
596.443
600.201
603.843
607.161
609.919
611.868
612.774
612.497
611.071
608.68
605.571
601.991
598.17
594.307
590.565
587.07
583.917
581.172
578.874
577.042
575.673
574.743
574.214
574.037
574.154
574.504
575.018
575.628
576.265
576.864
577.366
577.721
577.895
608.837
608.813
608.788
608.79
608.856
609.027
609.349
609.867
610.624
611.664
613.026
614.743
616.842
619.34
622.236
625.514
629.135
633.039
637.139
641.32
645.438
649.322
652.778
655.604
657.61
658.642
658.612
657.529
655.497
652.676
649.255
645.435
641.405
637.333
633.36
629.595
626.123
623.001
620.261
617.919
615.966
614.384
613.14
612.199
611.519
611.055
610.763
610.599
610.52
610.49
610.483
610.483
610.494
610.533
610.631
610.824
611.156
611.672
612.416
613.432
614.761
616.438
618.49
620.936
623.777
626.994
630.549
634.377
638.388
642.463
646.456
650.191
653.475
656.109
657.908
658.723
658.473
657.176
654.94
651.931
648.344
644.381
640.231
636.058
632
628.162
624.626
621.444
618.65
616.257
614.26
612.638
611.364
610.402
609.711
609.248
608.97
608.83
608.785
608.793
608.821
608.84
639.012
639.206
639.583
640.161
640.958
641.994
643.291
644.865
646.736
648.919
651.427
654.273
657.462
660.989
664.84
668.981
673.363
677.914
682.538
687.116
691.501
695.528
699.022
701.811
703.747
704.725
704.692
703.656
701.678
698.871
695.384
691.389
687.06
682.561
678.032
673.593
669.335
665.329
661.622
658.245
655.212
652.525
650.177
648.159
646.458
645.057
643.938
643.083
642.472
642.086
641.911
641.937
642.165
642.608
643.28
644.202
645.392
646.87
648.653
650.755
653.191
655.968
659.092
662.556
666.345
670.422
674.734
679.206
683.739
688.209
692.467
696.347
699.673
702.278
704.019
704.799
704.566
703.331
701.161
698.174
694.524
690.387
685.936
681.334
676.718
672.203
667.878
663.808
660.039
656.599
653.5
650.743
648.32
646.22
644.428
642.927
641.7
640.728
639.99
639.467
639.138
638.99
668.152
668.579
669.388
670.581
672.157
674.114
676.444
679.138
682.184
685.57
689.283
693.309
697.63
702.223
707.056
712.081
717.239
722.449
727.61
732.6
737.277
741.487
745.071
747.883
749.806
750.763
750.721
749.684
747.692
744.829
741.216
736.999
732.337
727.383
722.277
717.14
712.071
707.15
702.437
697.981
693.814
689.965
686.452
683.296
680.511
678.113
676.114
674.522
673.342
672.575
672.22
672.273
672.735
673.609
674.896
676.595
678.699
681.198
684.081
687.332
690.935
694.869
699.114
703.641
708.413
713.379
718.474
723.613
728.692
733.584
738.146
742.221
745.652
748.299
750.048
750.829
750.61
749.396
747.232
744.207
740.445
736.099
731.325
726.278
721.093
715.888
710.758
705.778
701.004
696.479
692.232
688.286
684.657
681.358
678.402
675.802
673.569
671.71
670.233
669.141
668.432
668.103
695.99
696.664
697.928
699.769
702.167
705.092
708.509
712.378
716.658
721.307
726.282
731.543
737.049
742.754
748.609
754.554
760.519
766.415
772.14
777.572
782.575
787.006
790.725
793.608
795.558
796.516
796.458
795.386
793.33
790.355
786.56
782.072
777.033
771.585
765.864
759.991
754.069
748.187
742.419
736.829
731.472
726.4
721.661
717.306
713.381
709.933
707.005
704.635
702.854
701.684
701.138
701.22
701.929
703.26
705.196
707.714
710.781
714.357
718.399
722.859
727.689
732.84
738.263
743.906
749.71
755.61
761.528
767.373
773.035
778.389
783.299
787.62
791.213
793.957
795.762
796.572
796.365
795.144
792.944
789.834
785.916
781.322
776.194
770.674
764.893
758.969
753.003
747.075
741.254
735.596
730.15
724.959
720.064
715.507
711.33
707.575
704.282
701.491
699.236
697.543
696.431
695.913
722.238
723.167
724.904
727.418
730.667
734.595
739.139
744.228
749.789
755.751
762.041
768.59
775.331
782.198
789.122
796.032
802.845
809.469
815.797
821.71
827.08
831.776
835.675
838.668
840.676
841.65
841.57
840.437
838.275
835.137
831.108
826.296
820.829
814.838
808.453
801.793
794.967
788.071
781.193
774.412
767.808
761.457
755.44
749.835
744.723
740.183
736.291
733.114
730.709
729.119
728.375
728.486
729.453
731.257
733.868
737.237
741.305
746.001
751.249
756.969
763.081
769.504
776.162
782.976
789.867
796.754
803.547
810.146
816.441
822.308
827.618
832.237
836.044
838.935
840.833
841.693
841.499
840.253
837.982
834.744
830.627
825.743
820.219
814.186
807.77
801.087
794.24
787.32
780.404
773.563
766.865
760.377
754.166
748.301
742.855
737.901
733.511
729.754
726.691
724.375
722.847
722.131
746.592
747.781
749.998
753.195
757.309
762.257
767.947
774.28
781.15
788.456
796.096
803.973
811.992
820.066
828.106
836.027
843.737
851.136
858.115
864.558
870.344
875.355
879.478
882.621
884.714
885.716
885.608
884.391
882.086
878.737
874.419
869.227
863.274
856.682
849.576
842.073
834.288
826.324
818.284
810.265
802.368
794.698
787.365
780.48
774.154
768.501
763.626
759.626
756.585
754.57
753.623
753.765
754.993
757.281
760.578
764.814
769.901
775.74
782.222
789.235
796.666
804.404
812.343
820.378
828.408
836.335
844.058
851.469
858.453
864.891
870.657
875.633
879.707
882.79
884.815
885.744
885.563
884.275
881.903
878.497
874.133
868.91
862.941
856.346
849.247
841.757
833.983
826.023
817.966
809.897
801.906
794.082
786.52
779.317
772.576
766.401
760.894
756.154
752.272
749.324
747.372
746.455
768.743
770.189
772.881
776.755
781.724
787.684
794.513
802.083
810.261
818.915
827.913
837.133
846.453
855.761
864.952
873.925
882.576
890.797
898.479
905.505
911.762
917.138
921.533
924.865
927.071
928.112
927.971
926.649
924.164
920.558
915.896
910.263
903.764
896.512
888.628
880.229
871.435
862.361
853.122
843.834
834.623
825.62
816.963
808.794
801.257
794.494
788.641
783.825
780.154
777.716
776.568
776.74
778.228
780.995
784.973
790.07
796.172
803.15
810.865
819.174
827.934
837.004
846.248
855.535
864.743
873.756
882.458
890.735
898.467
905.534
911.819
917.208
921.603
924.923
927.108
928.124
927.956
926.609
924.106
920.49
915.831
910.216
903.748
896.539
888.706
880.362
871.618
862.579
853.347
844.025
834.72
825.546
816.625
808.082
800.049
792.659
786.044
780.331
775.637
772.064
769.691
768.575
788.38
790.073
793.22
797.743
803.535
810.466
818.391
827.156
836.601
846.565
856.893
867.433
878.043
888.586
898.938
908.982
918.602
927.684
936.111
943.769
950.546
956.338
961.05
964.607
966.95
968.041
967.864
966.418
963.722
959.814
954.757
948.63
941.53
933.568
924.859
915.526
905.695
895.491
885.044
874.491
863.978
853.665
843.715
834.298
825.588
817.754
810.96
805.358
801.082
798.236
796.896
797.097
798.835
802.062
806.695
812.62
819.7
827.778
836.689
846.261
856.321
866.701
877.239
887.779
898.175
908.295
918.01
927.192
935.719
943.468
950.325
956.182
960.947
964.544
966.918
968.035
967.882
966.462
963.799
959.935
954.933
948.875
941.858
933.989
925.38
916.147
906.405
896.27
885.856
875.284
864.679
854.179
843.931
834.087
824.804
816.242
808.561
801.913
796.44
792.266
789.49
788.184
805.201
807.123
810.69
815.811
822.361
830.19
839.13
849.003
859.626
870.815
882.393
894.184
906.023
917.756
929.239
940.338
950.926
960.878
970.071
978.39
985.721
991.964
997.027
1000.84
1003.34
1004.49
1004.27
1002.69
999.755
995.516
990.029
983.37
975.636
966.934
957.383
947.109
936.246
924.933
913.314
901.545
889.795
878.244
867.08
856.499
846.697
837.869
830.204
823.876
819.039
815.817
814.298
814.527
816.495
820.148
825.387
832.079
840.064
849.164
859.188
869.939
881.222
892.842
904.614
916.36
927.914
939.124
949.848
959.946
969.289
977.75
985.214
991.576
996.746
1000.65
1003.23
1004.46
1004.32
1002.82
999.973
995.83
990.452
983.917
976.318
967.761
958.358
948.229
937.495
926.283
914.722
902.947
891.104
879.353
867.86
856.8
846.355
836.707
828.039
820.528
814.336
809.608
806.461
804.979
818.925
821.046
824.982
830.628
837.843
846.458
856.288
867.135
878.796
891.069
903.758
916.669
929.621
942.441
954.968
967.055
978.559
989.346
999.285
1008.26
1016.14
1022.84
1028.27
1032.34
1035
1036.22
1035.96
1034.24
1031.06
1026.49
1020.56
1013.37
1005
995.575
985.209
974.037
962.201
949.855
937.158
924.283
911.418
898.761
886.52
874.909
864.145
854.443
846.012
839.046
833.717
830.165
828.49
828.742
830.913
834.939
840.71
848.075
856.857
866.856
877.861
889.657
902.026
914.757
927.643
940.489
953.111
965.34
977.017
987.994
998.128
1007.29
1015.36
1022.23
1027.81
1032.03
1034.83
1036.17
1036.05
1034.45
1031.42
1026.99
1021.22
1014.2
1006.02
996.789
986.617
975.631
963.962
951.746
939.128
926.257
913.299
900.427
887.828
875.695
864.226
853.625
844.092
835.824
829.002
823.788
820.316
818.679
829.289
831.574
835.812
841.887
849.644
858.901
869.456
881.095
893.603
906.763
920.363
934.201
948.08
961.815
975.234
988.172
1000.48
1012
1022.61
1032.17
1040.56
1047.69
1053.45
1057.77
1060.59
1061.86
1061.57
1059.72
1056.32
1051.42
1045.09
1037.41
1028.47
1018.39
1007.3
995.34
982.66
969.426
955.814
942.012
928.22
914.651
901.526
889.072
877.522
867.106
858.049
850.56
844.828
841.005
839.201
839.473
841.811
846.144
852.35
860.266
869.698
880.432
892.24
904.891
918.153
931.801
945.615
959.387
972.918
986.025
998.533
1010.28
1021.12
1030.92
1039.54
1046.88
1052.84
1057.36
1060.35
1061.8
1061.69
1060.01
1056.79
1052.09
1045.96
1038.5
1029.79
1019.94
1009.09
997.346
984.862
971.783
958.266
944.476
930.589
916.794
903.288
890.278
877.975
866.597
856.359
847.474
840.137
834.527
830.788
829.024
836.078
838.484
842.942
849.33
857.481
867.203
878.282
890.493
903.609
917.406
931.664
946.172
960.729
975.142
989.227
1002.81
1015.72
1027.81
1038.94
1048.96
1057.76
1065.22
1071.26
1075.78
1078.72
1080.05
1079.73
1077.77
1074.19
1069.05
1062.39
1054.32
1044.93
1034.34
1022.69
1010.12
996.8
982.898
968.605
954.121
939.655
925.425
911.661
898.599
886.481
875.548
866.036
858.167
852.14
848.118
846.22
846.506
848.966
853.524
860.048
868.365
878.27
889.535
901.923
915.191
929.099
943.412
957.903
972.357
986.568
1000.34
1013.48
1025.82
1037.21
1047.5
1056.56
1064.27
1070.54
1075.28
1078.44
1079.98
1079.87
1078.12
1074.76
1069.83
1063.42
1055.6
1046.47
1036.15
1024.76
1012.44
999.334
985.605
971.417
956.949
942.386
927.923
913.764
900.122
887.22
875.281
864.535
855.201
847.491
841.591
837.656
835.8
839.02
841.502
846.101
852.684
861.077
871.079
882.466
895.007
908.469
922.622
937.243
952.117
967.043
981.829
996.285
1010.23
1023.49
1035.9
1047.33
1057.62
1066.66
1074.33
1080.54
1085.18
1088.21
1089.57
1089.24
1087.22
1083.53
1078.23
1071.38
1063.08
1053.42
1042.54
1030.56
1017.65
1003.96
989.678
975.001
960.137
945.295
930.695
916.568
903.155
890.703
879.459
869.67
861.564
855.35
851.201
849.241
849.536
852.075
856.777
863.502
872.068
882.26
893.842
906.569
920.192
934.465
949.15
964.019
978.854
993.447
1007.59
1021.09
1033.78
1045.49
1056.07
1065.38
1073.32
1079.77
1084.66
1087.91
1089.5
1089.39
1087.59
1084.13
1079.07
1072.48
1064.44
1055.06
1044.46
1032.76
1020.11
1006.66
992.567
978.008
963.167
948.235
933.407
918.887
904.892
891.646
879.383
868.334
858.73
850.789
844.707
840.649
838.732
)
;

boundaryField
{
    top
    {
        type            calculated;
        value           nonuniform List<scalar> 
102
(
839.289
841.803
846.458
853.118
861.607
871.716
883.221
895.887
909.479
923.763
938.517
953.525
968.585
983.51
998.105
1012.18
1025.57
1038.11
1049.65
1060.05
1069.18
1076.92
1083.19
1087.89
1090.95
1092.32
1091.98
1089.94
1086.21
1080.85
1073.93
1065.54
1055.79
1044.79
1032.69
1019.64
1005.82
991.394
976.573
961.568
946.588
931.852
917.589
904.044
891.464
880.101
870.203
862.003
855.714
851.513
849.528
849.827
852.399
857.159
863.965
872.628
882.932
894.636
907.492
921.248
935.657
950.48
965.487
980.464
995.201
1009.49
1023.13
1035.94
1047.77
1058.46
1067.87
1075.89
1082.41
1087.35
1090.64
1092.24
1092.13
1090.31
1086.82
1081.71
1075.05
1066.93
1057.46
1046.75
1034.94
1022.16
1008.58
994.351
979.653
964.674
949.608
934.646
919.993
905.867
892.493
880.106
868.942
859.233
851.202
845.047
840.938
838.997
)
;
    }
    bottom
    {
        type            calculated;
        value           nonuniform List<scalar> 
102
(
-38.9021
-41.9282
-47.604
-55.8902
-66.7458
-80.1356
-96.0286
-114.383
-135.12
-158.103
-183.112
-209.832
-237.827
-266.519
-295.168
-322.879
-348.707
-371.766
-391.3
-406.916
-418.719
-427.086
-432.648
-436.104
-438.046
-438.862
-438.731
-437.643
-435.404
-431.608
-425.65
-416.825
-404.506
-388.329
-368.228
-344.639
-318.358
-290.353
-261.655
-233.196
-205.732
-179.849
-155.982
-134.439
-115.425
-99.0614
-85.4147
-74.5199
-66.4044
-61.0952
-58.6182
-58.9899
-62.2071
-68.2502
-77.0925
-88.707
-103.066
-120.128
-139.815
-161.988
-186.415
-212.757
-240.544
-269.146
-297.759
-325.416
-351.084
-373.831
-392.931
-408.08
-419.442
-427.454
-432.781
-436.121
-438.03
-438.858
-438.749
-437.665
-435.375
-431.434
-425.209
-416.001
-403.232
-386.587
-366.077
-342.216
-315.809
-287.766
-259.025
-230.451
-202.738
-176.427
-151.918
-129.502
-109.374
-91.6541
-76.4091
-63.6756
-53.4849
-45.8739
-40.884
-38.5527
)
;
    }
    frontAndBack
    {
        type            empty;
    }
    left_cyc
    {
        type            cyclic;
    }
    right_cyc
    {
        type            cyclic;
    }
}


// ************************************************************************* //
