/*--------------------------------*- C++ -*----------------------------------*\
| =========                 |                                                 |
| \\      /  F ield         | OpenFOAM: The Open Source CFD Toolbox           |
|  \\    /   O peration     | Version:  2.3.0                                 |
|   \\  /    A nd           | Web:      www.OpenFOAM.org                      |
|    \\/     M anipulation  |                                                 |
\*---------------------------------------------------------------------------*/
FoamFile
{
    version     2.0;
    format      ascii;
    class       volScalarField;
    location    "4000";
    object      p;
}
// * * * * * * * * * * * * * * * * * * * * * * * * * * * * * * * * * * * * * //

dimensions      [0 2 -2 0 0 0 0];

internalField   nonuniform List<scalar> 
765
(
0
-13.4929
-38.3107
-73.2924
-116.819
-166.495
-218.608
-268.253
-311.54
-346.307
-368.299
-377.038
-379.248
-378.161
-372.121
-355.221
-323.591
-282.952
-234.954
-183.113
-132.279
-86.6784
-49.0854
-21.3288
-4.69741
-0.0606678
-7.71722
-27.1973
-57.5181
-97.2798
-144.471
-196.005
-247.316
-293.84
-332.396
-361.052
-374.591
-378.98
-379.301
-376.033
-364.866
-339.073
-302.239
-257.12
-206.458
-154.492
-105.982
-64.2789
-31.5497
-9.28793
1.43384
43.6159
34.9185
19.1762
-2.63118
-29.4082
-59.892
-92.8661
-128.024
-161.372
-184.752
-199.001
-205.743
-206.768
-206.331
-202.163
-190.129
-170.156
-139.591
-104.159
-70.5989
-39.3804
-11.4868
11.772
29.2389
39.886
42.8815
37.9359
25.5119
6.51259
-18.007
-46.8501
-78.7033
-112.847
-148.078
-176.181
-193.875
-204.17
-206.823
-206.946
-205.194
-196.445
-180.396
-154.39
-119.7
-84.9939
-52.5192
-22.7779
2.94593
23.4311
37.6117
44.544
133.791
126.851
114.314
97.0642
76.0795
52.3342
26.7424
-0.13886
-25.1525
-40.8639
-47.9745
-47.5096
-44.8712
-46.2897
-48.6395
-43.9236
-31.4823
-8.87356
17.975
43.895
68.1762
89.9632
108.285
122.148
130.625
133.011
129.067
119.173
104.109
84.8307
62.3287
37.5652
11.2828
-15.2756
-35.5962
-45.962
-48.8196
-45.757
-45.3489
-48.4714
-47.1332
-38.2456
-19.9436
6.15773
32.8069
58.0463
81.2399
101.447
117.688
128.995
134.531
221.241
215.395
204.87
190.531
173.424
154.69
135.589
117.475
102.726
93.4509
92.8967
102.12
109.126
105.279
95.1779
91.95
99.0889
112.072
129.413
148.258
167.138
184.744
199.892
211.499
218.63
220.634
217.313
208.99
196.403
180.53
162.481
143.463
124.803
108.2
96.5368
91.406
97.2445
106.954
108.095
99.3314
91.7263
94.9542
105.574
121.45
139.948
159.098
177.57
194.139
207.685
217.194
221.861
294.76
290.119
281.846
270.785
257.949
244.405
231.248
219.606
211.157
207.717
212.588
226.897
236.294
231.307
216.541
207.992
209.397
216.351
227.167
239.906
253.366
266.432
278.021
287.092
292.734
294.325
291.683
285.108
275.31
263.243
249.964
236.559
224.148
214.053
208.28
208.749
219.85
233.617
235.086
222.954
210.126
207.832
212.598
222.023
234.147
247.51
260.998
273.527
284.035
291.537
295.252
365.739
362.134
355.797
347.539
338.324
329.146
320.967
314.692
311.306
311.686
317.101
328.967
337.59
332.864
320.313
312.724
310.985
313.209
318.66
326.298
335.212
344.444
353.002
359.898
364.263
365.501
363.442
358.368
350.96
342.129
332.872
324.173
316.975
312.194
310.871
313.763
323.06
335.068
336.478
325.647
315.048
311.088
311.655
315.839
322.652
331.163
340.45
349.544
357.449
363.225
366.121
434.71
432.144
427.734
422.203
416.394
411.159
407.278
405.42
406.036
409.345
415.321
423.79
429.726
426.434
417.848
410.975
406.839
405.359
406.473
409.764
414.625
420.294
425.931
430.679
433.765
434.651
433.175
429.603
424.546
418.808
413.253
408.702
405.892
405.365
407.498
412.266
419.806
427.96
428.944
421.559
413.525
408.213
405.538
405.553
407.941
412.216
417.669
423.503
428.859
432.91
434.982
502.406
500.974
498.646
495.983
493.622
492.193
492.247
494.18
498.055
503.632
510.269
517.042
521.056
518.873
512.516
505.717
499.74
495.286
492.744
492.127
493.134
495.245
497.843
500.286
501.98
502.483
501.646
499.706
497.155
494.607
492.706
492.049
493.121
496.134
501.01
507.254
514.122
519.904
520.551
515.444
508.56
502.109
496.889
493.471
492
492.345
494.056
496.557
499.21
501.389
502.56
568.333
568.223
568.278
568.819
570.18
572.681
576.584
581.992
588.704
596.201
603.573
609.693
612.775
611.141
605.757
598.671
591.12
584.099
578.259
573.89
570.979
569.294
568.529
568.351
568.431
568.486
568.395
568.342
568.627
569.581
571.535
574.784
579.525
585.69
592.916
600.454
607.262
611.955
612.433
608.402
601.859
594.357
586.974
580.537
575.473
571.924
569.727
568.597
568.209
568.231
568.35
631.305
632.747
635.555
639.726
645.21
651.937
659.817
668.663
678.085
687.418
695.683
701.78
704.528
703.093
697.94
690.26
681.163
671.694
662.625
654.426
647.343
641.487
636.934
633.743
631.935
631.458
632.252
634.398
637.927
642.806
648.969
656.337
664.782
674.002
683.466
692.323
699.496
703.859
704.277
700.609
693.888
685.264
675.828
666.491
657.843
650.227
643.791
638.613
634.763
632.282
631.157
689.553
692.752
698.636
706.827
716.841
728.168
740.319
752.8
765.064
776.365
785.754
792.246
795.001
793.567
788.184
779.616
768.813
756.764
744.287
731.991
720.38
709.948
701.206
694.658
690.72
689.635
691.439
696.056
703.194
712.404
723.176
735.003
747.392
759.828
771.659
782.014
789.893
794.382
794.802
791.083
783.811
773.87
762.258
749.883
737.437
725.435
714.369
704.735
697.041
691.755
689.217
740.863
745.919
755.034
767.442
782.224
798.428
815.149
831.57
846.973
860.545
871.381
878.616
881.6
880.037
874.08
864.285
851.464
836.53
820.338
803.638
787.21
771.949
758.809
748.734
742.55
740.816
743.693
750.914
761.841
775.603
791.246
807.829
824.468
840.426
854.927
867.098
876.03
880.963
881.428
877.378
869.21
857.636
843.549
827.836
811.287
794.602
778.64
764.32
752.595
744.361
740.327
782.783
789.605
801.784
818.204
837.565
858.537
879.848
900.372
919.179
935.351
947.985
956.279
959.662
957.874
951.052
939.679
924.493
906.385
886.278
865.108
843.932
824.011
806.675
793.254
784.935
782.58
786.481
796.174
810.698
828.811
849.175
870.473
891.469
911.172
928.653
942.99
953.32
958.958
959.497
954.897
945.5
931.943
915.061
895.765
874.975
853.625
832.902
814.097
798.543
787.514
782.054
812.599
820.859
835.523
855.197
878.312
903.282
928.598
952.898
975.004
993.841
1008.44
1017.96
1021.84
1019.78
1011.93
998.8
981.148
959.912
936.147
911.01
885.814
862.051
841.303
825.168
815.112
812.249
816.987
828.688
846.126
867.784
892.058
917.384
942.301
965.552
986.009
1002.64
1014.55
1021.04
1021.67
1016.39
1005.59
989.898
970.19
947.461
922.809
897.434
872.749
850.284
831.63
818.333
811.712
828.396
837.463
853.5
874.959
900.133
927.334
954.989
981.638
1005.89
1026.52
1042.48
1052.9
1057.14
1054.87
1046.28
1031.92
1012.58
989.294
963.222
935.721
908.259
882.382
859.765
842.134
831.109
827.957
833.169
845.985
865.026
888.623
915.054
942.671
969.968
995.482
1017.91
1036.12
1049.15
1056.25
1056.95
1051.18
1039.37
1022.21
1000.61
975.669
948.637
920.95
894.07
869.602
849.246
834.694
827.419
)
;

boundaryField
{
    top
    {
        type            calculated;
        value           nonuniform List<scalar> 
51
(
830.253
839.81
856.61
878.98
905.132
933.348
962.08
989.884
1015.22
1036.81
1053.53
1064.47
1068.94
1066.54
1057.51
1042.45
1022.22
997.869
970.651
942.031
913.539
886.669
863.116
844.67
833.07
829.731
835.243
848.708
868.602
893.153
920.583
949.239
977.685
1004.33
1027.79
1046.86
1060.53
1068
1068.73
1062.66
1050.27
1032.29
1009.7
983.648
955.454
926.719
898.837
873.403
852.162
836.898
829.218
)
;
    }
    bottom
    {
        type            calculated;
        value           nonuniform List<scalar> 
51
(
-71.5506
-85.3234
-110.633
-146.292
-190.659
-241.318
-294.512
-345.153
-389.409
-425.11
-447.944
-457.328
-459.844
-458.596
-452.006
-434.316
-401.773
-360.172
-311.182
-258.268
-206.411
-159.922
-121.601
-93.297
-76.3247
-71.5863
-79.4075
-99.2821
-130.197
-170.728
-218.842
-271.421
-323.781
-371.292
-410.804
-440.352
-454.637
-459.496
-459.864
-456.195
-444.324
-417.66
-379.879
-333.782
-282.097
-229.071
-179.611
-137.104
-103.739
-81.0322
-70.0847
)
;
    }
    frontAndBack
    {
        type            empty;
    }
    left_cyc
    {
        type            cyclic;
    }
    right_cyc
    {
        type            cyclic;
    }
}


// ************************************************************************* //
