/*--------------------------------*- C++ -*----------------------------------*\
| =========                 |                                                 |
| \\      /  F ield         | OpenFOAM: The Open Source CFD Toolbox           |
|  \\    /   O peration     | Version:  2.3.0                                 |
|   \\  /    A nd           | Web:      www.OpenFOAM.org                      |
|    \\/     M anipulation  |                                                 |
\*---------------------------------------------------------------------------*/
FoamFile
{
    version     2.0;
    format      ascii;
    class       volScalarField;
    location    "4000";
    object      p;
}
// * * * * * * * * * * * * * * * * * * * * * * * * * * * * * * * * * * * * * //

dimensions      [0 2 -2 0 0 0 0];

internalField   nonuniform List<scalar> 
3060
(
-918.492
-922.307
-929.274
-939.039
-951.108
-964.934
-980.128
-996.834
-1016
-1038.97
-1066.62
-1098.6
-1133.63
-1170.38
-1207.4
-1243.2
-1276.47
-1306.27
-1331.84
-1352.12
-1366.56
-1375.73
-1380.6
-1382.47
-1382.66
-1382.2
-1381.65
-1381.19
-1380.59
-1379.18
-1375.9
-1369.38
-1358.34
-1341.86
-1319.51
-1291.98
-1260.34
-1225.61
-1189.15
-1152.72
-1117.99
-1086.29
-1058.62
-1035.47
-1016.55
-1000.94
-987.815
-976.899
-968.364
-962.562
-959.804
-960.256
-963.887
-970.488
-979.721
-991.258
-1005.02
-1021.46
-1041.48
-1065.91
-1094.78
-1127.44
-1162.8
-1199.4
-1235.54
-1269.53
-1300.12
-1326.32
-1347.05
-1361.94
-1371.61
-1377.08
-1379.71
-1380.8
-1381.32
-1381.79
-1382.35
-1382.71
-1382.17
-1379.6
-1373.66
-1363.09
-1347.05
-1325.18
-1298.34
-1267.5
-1233.4
-1197.12
-1160.02
-1123.61
-1089.3
-1058.43
-1032.09
-1010.31
-991.968
-975.747
-960.921
-947.535
-936.054
-927.027
-920.912
-918.019
-971.606
-971.565
-971.496
-971.439
-971.565
-972.32
-974.644
-980.073
-990.406
-1006.73
-1028.66
-1054.58
-1082.75
-1111.7
-1140.1
-1166.75
-1191.71
-1216.22
-1239.71
-1259.36
-1273.43
-1282.57
-1287.86
-1290.49
-1291.51
-1291.66
-1291.39
-1290.8
-1289.73
-1287.7
-1283.9
-1277.26
-1266.58
-1250.89
-1229.88
-1205.67
-1180.77
-1155.34
-1128.5
-1100.86
-1073.9
-1049.15
-1028.07
-1011.95
-1001.3
-995.456
-992.904
-992.16
-992.192
-992.421
-992.574
-992.547
-992.358
-992.147
-992.258
-993.381
-996.691
-1003.75
-1015.91
-1033.51
-1055.76
-1081.28
-1108.58
-1136.13
-1162.57
-1187.74
-1212.57
-1236.2
-1255.83
-1270.03
-1279.47
-1285.2
-1288.4
-1290.1
-1291
-1291.5
-1291.67
-1291.33
-1289.96
-1286.7
-1280.46
-1270.03
-1254.41
-1233.4
-1209.4
-1184.84
-1159.52
-1132.3
-1103.61
-1074.74
-1047.04
-1022.05
-1001.56
-986.929
-978.129
-973.753
-971.999
-971.49
-971.446
-971.516
-971.58
-971.611
-933.5
-934.191
-935.548
-937.701
-940.88
-945.432
-951.829
-960.602
-972.167
-986.556
-1003.26
-1021.46
-1040.44
-1059.87
-1079.8
-1100.76
-1123.22
-1145.9
-1165.59
-1180.85
-1192.61
-1200.69
-1204.81
-1206.36
-1206.64
-1206.43
-1206.1
-1205.75
-1205.25
-1204.17
-1201.7
-1196.53
-1187.41
-1174.82
-1158.82
-1138.84
-1116.91
-1096.07
-1076.97
-1058.91
-1041.49
-1024.82
-1009.41
-995.882
-984.764
-976.197
-969.945
-965.594
-962.73
-961.026
-960.279
-960.399
-961.4
-963.402
-966.645
-971.483
-978.343
-987.612
-999.437
-1013.55
-1029.38
-1046.29
-1063.89
-1082.17
-1101.7
-1123.02
-1144.76
-1163.69
-1178.64
-1190.36
-1198.33
-1202.6
-1204.57
-1205.42
-1205.86
-1206.19
-1206.51
-1206.64
-1206.09
-1203.98
-1198.87
-1189.64
-1176.98
-1160.54
-1139.73
-1116.82
-1094.77
-1074.16
-1054.4
-1035.08
-1016.27
-998.412
-982.272
-968.642
-957.881
-949.823
-943.995
-939.869
-937.007
-935.095
-933.934
-933.417
-877.214
-878.284
-880.342
-883.494
-887.916
-893.858
-901.621
-911.47
-923.474
-937.343
-952.471
-968.177
-984.02
-999.836
-1015.68
-1031.8
-1048.56
-1065.76
-1082.27
-1097.61
-1109.75
-1117.33
-1121.46
-1122.36
-1121.87
-1121.19
-1120.77
-1120.73
-1120.94
-1120.91
-1119.42
-1114.76
-1106.84
-1094.77
-1080.16
-1064.48
-1048.23
-1032.51
-1017.45
-1002.72
-988.133
-973.731
-959.79
-946.809
-935.365
-925.86
-918.392
-912.823
-908.931
-906.51
-905.418
-905.594
-907.048
-909.863
-914.201
-920.279
-928.31
-938.379
-950.305
-963.614
-977.724
-992.195
-1006.82
-1021.62
-1036.83
-1052.75
-1068.97
-1084.36
-1098.52
-1109.44
-1116.39
-1120.09
-1121
-1120.88
-1120.71
-1120.85
-1121.36
-1122.05
-1122.32
-1120.68
-1115.57
-1106.85
-1093.51
-1077.76
-1060.97
-1043.8
-1027.25
-1011.24
-995.421
-979.595
-963.763
-948.162
-933.314
-919.913
-908.498
-899.25
-892.026
-886.538
-882.494
-879.662
-877.888
-877.084
-830.688
-831.769
-833.835
-836.958
-841.251
-846.864
-853.959
-862.674
-873.04
-884.913
-897.969
-911.793
-926.014
-940.346
-954.566
-968.47
-981.861
-994.647
-1007.01
-1019.16
-1029.25
-1036.07
-1039.14
-1039.05
-1037.67
-1036.49
-1035.99
-1036.27
-1037.25
-1038.45
-1038.48
-1035.6
-1029.29
-1019.62
-1007.88
-995.743
-983.056
-969.853
-956.386
-942.883
-929.549
-916.615
-904.38
-893.187
-883.358
-875.096
-868.451
-863.361
-859.715
-857.406
-856.354
-856.524
-857.922
-860.596
-864.633
-870.148
-877.242
-885.953
-896.19
-907.709
-920.172
-933.246
-946.649
-960.163
-973.582
-986.663
-999.181
-1011.21
-1022.64
-1031.39
-1036.77
-1038.69
-1038.15
-1036.92
-1036.12
-1036.05
-1036.76
-1038.08
-1039.28
-1038.68
-1034.51
-1026.76
-1015.86
-1003.58
-991.132
-978.181
-964.631
-950.616
-936.345
-922.02
-907.878
-894.227
-881.461
-869.982
-860.07
-851.817
-845.152
-839.925
-835.972
-833.154
-831.37
-830.557
-788.27
-789.395
-791.529
-794.716
-799.02
-804.518
-811.283
-819.352
-828.687
-839.14
-850.462
-862.354
-874.538
-886.787
-898.912
-910.742
-922.058
-932.546
-941.785
-949.497
-955.747
-959.823
-960.397
-958.033
-954.492
-952.333
-951.706
-952.374
-954.696
-958.622
-961.644
-961.696
-957.787
-951.391
-943.398
-933.977
-923.479
-912.347
-900.909
-889.374
-877.925
-866.764
-856.13
-846.29
-837.496
-829.935
-823.702
-818.814
-815.244
-812.949
-811.896
-812.066
-813.464
-816.111
-820.046
-825.308
-831.917
-839.836
-848.944
-859.034
-869.841
-881.105
-892.598
-904.125
-915.503
-926.496
-936.739
-945.788
-953.337
-959.233
-962.081
-961.017
-957.493
-953.848
-952.051
-951.753
-952.758
-955.41
-958.919
-960.583
-959.023
-954.134
-947.506
-939.351
-929.724
-918.965
-907.479
-895.548
-883.371
-871.119
-858.992
-847.229
-836.12
-825.957
-816.966
-809.262
-802.857
-797.7
-793.716
-790.829
-788.98
-788.133
-749.469
-750.584
-752.686
-755.793
-759.928
-765.116
-771.37
-778.673
-786.958
-796.089
-805.871
-816.075
-826.475
-836.867
-847.063
-856.881
-866.115
-874.519
-881.778
-887.506
-891.189
-891.944
-888.714
-882.162
-875.154
-870.605
-869.472
-871.039
-876.33
-884.411
-891.817
-895.064
-893.824
-889.674
-883.589
-876.104
-867.611
-858.441
-848.856
-839.067
-829.268
-819.657
-810.445
-801.852
-794.086
-787.309
-781.629
-777.102
-773.749
-771.572
-770.566
-770.729
-772.062
-774.567
-778.249
-783.101
-789.095
-796.162
-804.178
-812.966
-822.312
-831.997
-841.813
-851.565
-861.057
-870.068
-878.314
-885.452
-891.054
-894.538
-894.652
-890.063
-882.05
-874.45
-870.294
-869.517
-871.49
-876.986
-884.179
-890.029
-892.111
-890.399
-886.091
-879.886
-872.272
-863.608
-854.188
-844.246
-833.976
-823.562
-813.195
-803.086
-793.463
-784.551
-776.529
-769.515
-763.559
-758.667
-754.822
-751.998
-750.173
-749.333
-713.137
-714.221
-716.255
-719.234
-723.15
-727.988
-733.72
-740.292
-747.616
-755.563
-763.967
-772.64
-781.396
-790.053
-798.441
-806.382
-813.681
-820.112
-825.401
-829.217
-831.102
-830.272
-824.914
-814.435
-802.818
-794.944
-792.695
-796
-805.298
-818.197
-828.897
-833.65
-833.846
-831.439
-827.208
-821.617
-815.007
-807.659
-799.813
-791.67
-783.416
-775.234
-767.314
-759.848
-753.016
-746.971
-741.832
-737.681
-734.572
-732.535
-731.59
-731.744
-732.995
-735.333
-738.738
-743.172
-748.573
-754.852
-761.878
-769.49
-777.502
-785.723
-793.965
-802.045
-809.774
-816.941
-823.297
-828.546
-832.32
-834.109
-832.908
-826.44
-814.541
-802.159
-794.48
-792.769
-796.598
-805.845
-817.716
-826.997
-830.86
-830.803
-828.325
-824.057
-818.418
-811.719
-804.219
-796.135
-787.655
-778.952
-770.201
-761.584
-753.289
-745.501
-738.375
-732.031
-726.544
-721.961
-718.306
-715.591
-713.822
-713.004
-678.379
-679.418
-681.356
-684.172
-687.835
-692.301
-697.512
-703.39
-709.832
-716.712
-723.881
-731.178
-738.442
-745.513
-752.238
-758.454
-763.989
-768.643
-772.176
-774.287
-774.567
-772.407
-766.492
-754.967
-740.36
-729.369
-726.012
-731.15
-743.92
-759.369
-770.519
-775.704
-777.212
-776.373
-773.799
-769.904
-764.989
-759.301
-753.047
-746.412
-739.567
-732.682
-725.928
-719.478
-713.498
-708.136
-703.519
-699.747
-696.893
-695.011
-694.134
-694.277
-695.437
-697.594
-700.711
-704.728
-709.564
-715.112
-721.24
-727.792
-734.6
-741.491
-748.294
-754.84
-760.956
-766.451
-771.108
-774.668
-776.804
-777.064
-774.72
-768.074
-755.229
-739.779
-728.866
-726.109
-731.754
-744.361
-758.741
-768.653
-773.311
-774.703
-773.862
-771.318
-767.445
-762.523
-756.778
-750.403
-743.566
-736.425
-729.136
-721.859
-714.754
-707.982
-701.685
-695.985
-690.975
-686.728
-683.298
-680.725
-679.036
-678.252
-644.565
-645.546
-647.367
-649.996
-653.384
-657.465
-662.162
-667.379
-673.006
-678.917
-684.973
-691.03
-696.947
-702.583
-707.801
-712.46
-716.41
-719.485
-721.484
-722.16
-721.172
-718.038
-711.931
-701.46
-687.342
-675.469
-671.642
-677.69
-691.194
-705.684
-715.628
-721.052
-723.551
-723.971
-722.804
-720.39
-716.981
-712.779
-707.962
-702.692
-697.123
-691.411
-685.711
-680.184
-674.985
-670.262
-666.145
-662.746
-660.152
-658.431
-657.626
-657.757
-658.821
-660.791
-663.617
-667.227
-671.526
-676.395
-681.701
-687.292
-693.012
-698.7
-704.2
-709.359
-714.021
-718.021
-721.175
-723.269
-724.032
-723.09
-719.886
-713.382
-701.959
-686.998
-675.064
-671.724
-678.156
-691.375
-704.881
-714.015
-719.168
-721.641
-722.123
-721.048
-718.725
-715.388
-711.223
-706.394
-701.045
-695.317
-689.346
-683.275
-677.245
-671.4
-665.875
-660.792
-656.259
-652.364
-649.183
-646.775
-645.186
-644.444
-611.267
-612.178
-613.865
-616.285
-619.375
-623.059
-627.245
-631.827
-636.688
-641.704
-646.745
-651.68
-656.38
-660.723
-664.589
-667.857
-670.407
-672.105
-672.799
-672.301
-670.367
-666.662
-660.704
-651.811
-640.31
-630.102
-626.661
-632.261
-643.773
-655.449
-663.89
-669.257
-672.371
-673.749
-673.739
-672.59
-670.492
-667.604
-664.07
-660.028
-655.613
-650.964
-646.225
-641.546
-637.075
-632.957
-629.323
-626.293
-623.962
-622.408
-621.678
-621.797
-622.76
-624.538
-627.072
-630.282
-634.063
-638.294
-642.838
-647.549
-652.277
-656.875
-661.2
-665.114
-668.481
-671.163
-673.013
-673.866
-673.517
-671.694
-668.014
-661.883
-652.454
-640.296
-629.883
-626.713
-632.483
-643.632
-654.621
-662.634
-667.9
-671.07
-672.574
-672.717
-671.725
-669.775
-667.012
-663.564
-659.553
-655.098
-650.32
-645.342
-640.295
-635.309
-630.513
-626.03
-621.975
-618.448
-615.538
-613.318
-611.844
-611.155
-578.229
-579.059
-580.591
-582.776
-585.545
-588.813
-592.479
-596.434
-600.56
-604.735
-608.834
-612.739
-616.333
-619.508
-622.163
-624.199
-625.522
-626.037
-625.638
-624.202
-621.583
-617.594
-612.02
-604.664
-595.961
-588.358
-585.796
-590.148
-598.764
-607.609
-614.628
-619.707
-623.159
-625.244
-626.165
-626.078
-625.112
-623.379
-620.987
-618.049
-614.681
-611.007
-607.159
-603.275
-599.496
-595.962
-592.806
-590.147
-588.087
-586.705
-586.055
-586.161
-587.019
-588.597
-590.833
-593.642
-596.916
-600.532
-604.355
-608.243
-612.056
-615.658
-618.917
-621.714
-623.932
-625.463
-626.196
-626.015
-624.786
-622.342
-618.465
-612.875
-605.285
-596.181
-588.325
-585.814
-590.142
-598.433
-606.899
-613.751
-618.859
-622.444
-624.716
-625.849
-625.981
-625.231
-623.699
-621.481
-618.67
-615.367
-611.675
-607.704
-603.571
-599.397
-595.307
-591.42
-587.855
-584.717
-582.103
-580.095
-578.755
-578.126
-545.321
-546.058
-547.413
-549.335
-551.751
-554.573
-557.699
-561.02
-564.42
-567.781
-570.988
-573.931
-576.507
-578.62
-580.186
-581.128
-581.381
-580.883
-579.573
-577.392
-574.28
-570.178
-565.063
-559.017
-552.544
-547.213
-545.492
-548.576
-554.686
-561.299
-567.103
-571.807
-575.425
-578.028
-579.696
-580.499
-580.507
-579.789
-578.419
-576.483
-574.079
-571.314
-568.307
-565.186
-562.083
-559.132
-556.46
-554.185
-552.408
-551.21
-550.644
-550.736
-551.482
-552.849
-554.774
-557.171
-559.933
-562.94
-566.061
-569.163
-572.115
-574.791
-577.074
-578.861
-580.057
-580.58
-580.357
-579.319
-577.398
-574.519
-570.604
-565.59
-559.503
-552.836
-547.293
-545.486
-548.447
-554.33
-560.784
-566.593
-571.426
-575.247
-578.093
-580.025
-581.102
-581.384
-580.933
-579.809
-578.082
-575.83
-573.142
-570.114
-566.852
-563.469
-560.079
-556.801
-553.748
-551.03
-548.744
-546.975
-545.788
-545.23
-512.514
-513.142
-514.294
-515.917
-517.941
-520.277
-522.83
-525.492
-528.155
-530.709
-533.048
-535.073
-536.693
-537.826
-538.402
-538.368
-537.681
-536.312
-534.241
-531.462
-527.988
-523.857
-519.17
-514.147
-509.274
-505.559
-504.432
-506.548
-510.849
-515.853
-520.7
-525.043
-528.738
-531.731
-534.005
-535.56
-536.414
-536.596
-536.151
-535.14
-533.639
-531.741
-529.551
-527.184
-524.761
-522.405
-520.237
-518.368
-516.895
-515.895
-515.421
-515.498
-516.123
-517.261
-518.854
-520.817
-523.049
-525.436
-527.855
-530.185
-532.304
-534.101
-535.474
-536.335
-536.609
-536.243
-535.196
-533.441
-530.967
-527.775
-523.89
-519.387
-514.447
-509.522
-505.668
-504.416
-506.398
-510.574
-515.563
-520.526
-525.073
-529.027
-532.31
-534.891
-536.765
-537.941
-538.442
-538.301
-537.563
-536.286
-534.544
-532.422
-530.012
-527.416
-524.743
-522.1
-519.598
-517.339
-515.419
-513.922
-512.912
-512.436
-479.843
-480.348
-481.266
-482.551
-484.135
-485.937
-487.867
-489.83
-491.726
-493.458
-494.931
-496.058
-496.761
-496.97
-496.633
-495.712
-494.189
-492.061
-489.344
-486.076
-482.323
-478.193
-473.855
-469.582
-465.793
-463.128
-462.364
-463.824
-466.92
-470.819
-474.959
-479.005
-482.746
-486.048
-488.826
-491.03
-492.634
-493.632
-494.041
-493.9
-493.266
-492.217
-490.842
-489.241
-487.52
-485.791
-484.16
-482.728
-481.586
-480.803
-480.431
-480.491
-480.982
-481.871
-483.102
-484.599
-486.268
-488.006
-489.704
-491.252
-492.546
-493.487
-493.99
-493.983
-493.412
-492.245
-490.473
-488.105
-485.174
-481.74
-477.897
-473.8
-469.686
-465.942
-463.214
-462.35
-463.713
-466.771
-470.748
-475.074
-479.376
-483.415
-487.042
-490.161
-492.716
-494.676
-496.03
-496.785
-496.964
-496.611
-495.783
-494.55
-492.995
-491.208
-489.283
-487.32
-485.416
-483.666
-482.158
-480.97
-480.163
-479.781
-447.402
-447.764
-448.417
-449.318
-450.408
-451.616
-452.865
-454.073
-455.157
-456.032
-456.62
-456.847
-456.647
-455.967
-454.766
-453.025
-450.743
-447.942
-444.664
-440.982
-437
-432.866
-428.786
-425.034
-421.948
-419.926
-419.366
-420.407
-422.739
-425.912
-429.561
-433.395
-437.183
-440.75
-443.969
-446.75
-449.034
-450.788
-452.007
-452.707
-452.93
-452.734
-452.192
-451.387
-450.408
-449.349
-448.3
-447.349
-446.571
-446.029
-445.769
-445.812
-446.154
-446.766
-447.6
-448.587
-449.647
-450.693
-451.632
-452.372
-452.826
-452.911
-452.56
-451.718
-450.35
-448.446
-446.02
-443.11
-439.783
-436.14
-432.319
-428.511
-424.963
-421.984
-419.967
-419.359
-420.359
-422.721
-426.031
-429.906
-434.025
-438.135
-442.046
-445.624
-448.774
-451.434
-453.565
-455.154
-456.207
-456.749
-456.823
-456.488
-455.812
-454.871
-453.744
-452.516
-451.27
-450.088
-449.044
-448.207
-447.632
-447.357
-415.325
-415.524
-415.876
-416.343
-416.879
-417.427
-417.928
-418.316
-418.527
-418.496
-418.162
-417.466
-416.358
-414.798
-412.761
-410.241
-407.254
-403.839
-400.06
-396.012
-391.823
-387.666
-383.754
-380.34
-377.688
-376.04
-375.587
-376.373
-378.245
-380.968
-384.304
-388.014
-391.874
-395.691
-399.314
-402.627
-405.55
-408.027
-410.035
-411.572
-412.66
-413.341
-413.669
-413.706
-413.523
-413.19
-412.777
-412.354
-411.981
-411.709
-411.574
-411.596
-411.772
-412.077
-412.47
-412.896
-413.293
-413.592
-413.72
-413.608
-413.187
-412.397
-411.187
-409.52
-407.38
-404.774
-401.737
-398.327
-394.637
-390.791
-386.953
-383.323
-380.134
-377.626
-376.034
-375.586
-376.386
-378.337
-381.228
-384.808
-388.812
-392.998
-397.163
-401.147
-404.833
-408.134
-410.992
-413.378
-415.281
-416.712
-417.7
-418.289
-418.532
-418.489
-418.222
-417.796
-417.276
-416.725
-416.203
-415.764
-415.452
-415.3
-383.782
-383.798
-383.81
-383.791
-383.71
-383.529
-383.207
-382.703
-381.974
-380.976
-379.668
-378.011
-375.969
-373.519
-370.649
-367.368
-363.704
-359.709
-355.462
-351.072
-346.682
-342.471
-338.647
-335.433
-333.03
-331.588
-331.187
-331.83
-333.444
-335.913
-339.08
-342.751
-346.719
-350.792
-354.809
-358.639
-362.184
-365.378
-368.177
-370.566
-372.549
-374.148
-375.397
-376.335
-377.01
-377.466
-377.751
-377.911
-377.987
-378.014
-378.02
-378.019
-378.01
-377.972
-377.876
-377.686
-377.357
-376.845
-376.101
-375.08
-373.737
-372.033
-369.938
-367.434
-364.522
-361.225
-357.592
-353.699
-349.653
-345.591
-341.686
-338.135
-335.145
-332.901
-331.547
-331.192
-331.888
-333.61
-336.257
-339.663
-343.617
-347.898
-352.305
-356.668
-360.854
-364.764
-368.325
-371.493
-374.246
-376.58
-378.511
-380.067
-381.284
-382.202
-382.864
-383.313
-383.591
-383.741
-383.801
-383.808
-383.793
-383.78
-352.979
-352.79
-352.424
-351.869
-351.108
-350.126
-348.906
-347.433
-345.688
-343.653
-341.308
-338.636
-335.619
-332.249
-328.531
-324.484
-320.147
-315.582
-310.877
-306.151
-301.55
-297.251
-293.448
-290.332
-288.058
-286.718
-286.341
-286.915
-288.408
-290.763
-293.873
-297.58
-301.702
-306.055
-310.476
-314.828
-319.006
-322.931
-326.547
-329.824
-332.747
-335.321
-337.553
-339.462
-341.064
-342.379
-343.426
-344.225
-344.795
-345.153
-345.315
-345.289
-345.073
-344.658
-344.026
-343.159
-342.039
-340.646
-338.96
-336.963
-334.636
-331.965
-328.942
-325.569
-321.862
-317.861
-313.625
-309.241
-304.824
-300.519
-296.494
-292.935
-290.023
-287.901
-286.66
-286.35
-286.996
-288.602
-291.123
-294.449
-298.411
-302.813
-307.465
-312.199
-316.875
-321.384
-325.645
-329.604
-333.226
-336.497
-339.416
-341.995
-344.251
-346.203
-347.87
-349.271
-350.423
-351.341
-352.043
-352.544
-352.859
-353.001
-323.148
-322.735
-321.957
-320.816
-319.316
-317.466
-315.275
-312.755
-309.916
-306.768
-303.315
-299.563
-295.515
-291.181
-286.579
-281.741
-276.715
-271.571
-266.402
-261.328
-256.497
-252.075
-248.237
-245.145
-242.921
-241.625
-241.262
-241.817
-243.279
-245.618
-248.758
-252.57
-256.895
-261.563
-266.417
-271.319
-276.16
-280.85
-285.327
-289.543
-293.469
-297.083
-300.372
-303.324
-305.927
-308.171
-310.044
-311.537
-312.645
-313.364
-313.696
-313.642
-313.203
-312.375
-311.159
-309.559
-307.581
-305.236
-302.534
-299.487
-296.106
-292.403
-288.394
-284.1
-279.558
-274.818
-269.951
-265.049
-260.233
-255.644
-251.446
-247.806
-244.879
-242.779
-241.569
-241.27
-241.892
-243.45
-245.926
-249.24
-253.258
-257.812
-262.727
-267.841
-273.015
-278.134
-283.114
-287.89
-292.42
-296.675
-300.641
-304.31
-307.677
-310.74
-313.49
-315.92
-318.017
-319.771
-321.171
-322.211
-322.887
-323.198
-294.548
-293.895
-292.676
-290.908
-288.617
-285.838
-282.608
-278.97
-274.964
-270.627
-265.992
-261.09
-255.947
-250.591
-245.058
-239.388
-233.64
-227.889
-222.231
-216.787
-211.697
-207.116
-203.197
-200.078
-197.854
-196.567
-196.216
-196.788
-198.279
-200.674
-203.913
-207.893
-212.473
-217.501
-222.83
-228.326
-233.875
-239.384
-244.779
-249.999
-254.996
-259.725
-264.144
-268.213
-271.889
-275.127
-277.884
-280.121
-281.806
-282.913
-283.427
-283.343
-282.663
-281.393
-279.551
-277.165
-274.269
-270.905
-267.115
-262.944
-258.433
-253.626
-248.562
-243.287
-237.853
-232.325
-226.78
-221.319
-216.06
-211.141
-206.714
-202.928
-199.916
-197.77
-196.535
-196.22
-196.831
-198.381
-200.862
-204.216
-208.335
-213.074
-218.278
-223.795
-229.49
-235.249
-240.982
-246.619
-252.106
-257.406
-262.484
-267.314
-271.869
-276.117
-280.025
-283.553
-286.661
-289.308
-291.456
-293.073
-294.135
-294.628
-267.459
-266.553
-264.871
-262.445
-259.325
-255.57
-251.25
-246.434
-241.196
-235.604
-229.719
-223.598
-217.293
-210.854
-204.331
-197.778
-191.263
-184.865
-178.683
-172.834
-167.449
-162.669
-158.629
-155.441
-153.182
-151.885
-151.549
-152.163
-153.729
-156.234
-159.631
-163.835
-168.727
-174.169
-180.027
-186.171
-192.487
-198.877
-205.256
-211.55
-217.689
-223.604
-229.224
-234.476
-239.284
-243.571
-247.259
-250.279
-252.57
-254.084
-254.791
-254.676
-253.742
-252.007
-249.507
-246.294
-242.431
-237.991
-233.051
-227.688
-221.979
-215.995
-209.806
-203.48
-197.09
-190.711
-184.432
-178.356
-172.601
-167.298
-162.586
-158.596
-155.441
-153.195
-151.896
-151.547
-152.15
-153.717
-156.24
-159.676
-163.936
-168.898
-174.426
-180.381
-186.634
-193.074
-199.608
-206.158
-212.663
-219.069
-225.327
-231.388
-237.197
-242.698
-247.825
-252.509
-256.679
-260.263
-263.195
-265.417
-266.885
-267.57
-242.173
-241.009
-238.853
-235.754
-231.784
-227.029
-221.586
-215.557
-209.044
-202.147
-194.958
-187.562
-180.037
-172.455
-164.884
-157.393
-150.058
-142.963
-136.21
-129.911
-124.187
-119.164
-114.958
-111.663
-109.341
-108.021
-107.702
-108.38
-110.056
-112.718
-116.33
-120.819
-126.082
-132
-138.448
-145.303
-152.451
-159.788
-167.218
-174.652
-181.996
-189.155
-196.03
-202.513
-208.495
-213.865
-218.513
-222.338
-225.252
-227.185
-228.088
-227.941
-226.747
-224.535
-221.359
-217.294
-212.434
-206.882
-200.749
-194.145
-187.181
-179.96
-172.581
-165.14
-157.726
-150.432
-143.354
-136.601
-130.288
-124.54
-119.482
-115.229
-111.877
-109.487
-108.09
-107.69
-108.288
-109.889
-112.487
-116.045
-120.49
-125.721
-131.618
-138.056
-144.915
-152.086
-159.473
-166.993
-174.574
-182.147
-189.644
-196.99
-204.107
-210.906
-217.294
-223.17
-228.431
-232.977
-236.711
-239.553
-241.436
-242.316
-218.982
-217.563
-214.936
-211.17
-206.355
-200.603
-194.038
-186.791
-178.994
-170.776
-162.258
-153.555
-144.772
-136.003
-127.337
-118.858
-110.65
-102.807
-95.4299
-88.6265
-82.51
-77.1912
-72.7702
-69.3266
-66.9132
-65.5555
-65.2579
-66.0188
-67.8384
-70.7065
-74.5894
-79.4251
-85.1262
-91.5868
-98.6911
-106.322
-114.363
-122.706
-131.241
-139.861
-148.452
-156.89
-165.044
-172.775
-179.942
-186.399
-192.008
-196.636
-200.171
-202.519
-203.619
-203.44
-201.987
-199.3
-195.449
-190.535
-184.676
-178.006
-170.667
-162.803
-154.557
-146.063
-137.452
-128.845
-120.352
-112.083
-104.144
-96.649
-89.7124
-83.4526
-77.9831
-73.4057
-69.8013
-67.2237
-65.6995
-65.2345
-65.8281
-67.4818
-70.1866
-73.9098
-78.5906
-84.1429
-90.4626
-97.4376
-104.956
-112.91
-121.202
-129.742
-138.445
-147.227
-155.998
-164.661
-173.107
-181.22
-188.877
-195.947
-202.298
-207.8
-212.332
-215.789
-218.083
-219.157
-198.225
-196.561
-193.485
-189.078
-183.452
-176.741
-169.091
-160.662
-151.61
-142.093
-132.261
-122.254
-112.204
-102.23
-92.4411
-82.9356
-73.8116
-65.1692
-57.1117
-49.7448
-43.174
-37.4992
-32.8083
-29.171
-26.6347
-25.225
-24.9506
-25.8129
-27.8108
-30.9322
-35.1453
-40.3949
-46.6032
-53.6741
-61.4995
-69.9646
-78.9517
-88.342
-98.0142
-107.843
-117.689
-127.402
-136.822
-145.779
-154.102
-161.616
-168.154
-173.557
-177.689
-180.438
-181.726
-181.516
-179.814
-176.67
-172.171
-166.436
-159.61
-151.852
-143.335
-134.231
-124.712
-114.946
-105.09
-95.2925
-85.6865
-76.3966
-67.5432
-59.2448
-51.6187
-44.7782
-38.8287
-33.8616
-29.9489
-27.139
-25.4577
-24.9131
-25.5049
-27.2308
-30.0781
-34.0154
-38.989
-44.9236
-51.7271
-59.2976
-67.5291
-76.3162
-85.5565
-95.1511
-105.002
-115.008
-125.059
-135.031
-144.79
-154.193
-163.087
-171.314
-178.717
-185.14
-190.438
-194.483
-197.171
-198.431
-180.083
-178.198
-174.715
-169.729
-163.368
-155.783
-147.144
-137.629
-127.42
-116.696
-105.631
-94.3915
-83.131
-71.993
-61.1046
-50.5818
-40.5357
-31.0751
-22.3073
-14.3378
-7.26766
-1.18993
3.81474
7.6821
10.3664
11.8399
12.0897
11.1119
8.90988
5.49851
0.91045
-4.80171
-11.5652
-19.2894
-27.8698
-37.1916
-47.1324
-57.5633
-68.3485
-79.3436
-90.3878
-101.305
-111.909
-122.005
-131.393
-139.876
-147.261
-153.369
-158.043
-161.155
-162.614
-162.376
-160.449
-156.89
-151.802
-145.32
-137.61
-128.854
-119.248
-108.991
-98.28
-87.3088
-76.2612
-65.3096
-54.6092
-44.3018
-34.5211
-25.3942
-17.0417
-9.57575
-3.09747
2.30724
6.57107
9.64716
11.5081
12.1429
11.5507
9.73715
6.71884
2.52839
-2.78325
-9.14694
-16.4781
-24.681
-33.6531
-43.2881
-53.4784
-64.1147
-75.0848
-86.2709
-97.5407
-108.748
-119.734
-130.333
-140.366
-149.655
-158.017
-165.276
-171.268
-175.845
-178.889
-180.316
-164.564
-162.497
-158.681
-153.219
-146.252
-137.946
-128.485
-118.065
-106.884
-95.1387
-83.0224
-70.7187
-58.4015
-46.2328
-34.3575
-22.9079
-12.0085
-1.77784
7.67081
16.2299
23.7991
30.288
35.6186
39.7277
42.5685
44.1098
44.3346
43.2375
40.8243
37.1137
32.1413
25.9607
18.6439
10.2805
0.975355
-9.15374
-19.9775
-31.3562
-43.1392
-55.1642
-67.2514
-79.2043
-90.8159
-101.871
-112.152
-121.442
-129.529
-136.22
-141.34
-144.751
-146.351
-146.09
-143.977
-140.077
-134.503
-127.403
-118.96
-109.372
-98.8528
-87.62
-75.8917
-63.8808
-51.7918
-39.8174
-28.1316
-16.8932
-6.24986
3.66168
12.7152
20.7962
27.8039
33.6536
38.2782
41.6292
43.6762
44.4041
43.8105
41.904
38.7052
34.2494
28.5883
21.7892
13.9338
5.1157
-4.56254
-14.9917
-26.057
-37.6385
-49.6096
-61.8356
-74.166
-86.4354
-98.467
-110.074
-121.063
-131.235
-140.392
-148.342
-154.904
-159.919
-163.255
-164.819
-157.433
-155.138
-150.901
-144.836
-137.099
-127.87
-117.354
-105.764
-93.3191
-80.2371
-66.7313
-53.007
-39.2596
-25.6729
-12.4147
0.360508
12.5085
23.8944
34.3921
43.8846
52.2652
59.4385
65.3225
69.85
72.9691
74.6435
74.8521
73.5877
70.8594
66.6914
61.1249
54.2191
46.052
36.7192
26.3339
15.0247
2.93561
-9.77531
-22.9356
-36.3586
-49.8403
-63.1609
-76.0903
-88.3907
-99.8214
-110.143
-119.126
-126.554
-132.238
-136.024
-137.8
-137.51
-135.165
-130.836
-124.648
-116.765
-107.386
-96.7309
-85.0331
-72.5328
-59.4704
-46.0819
-32.5949
-19.2259
-6.17311
6.38078
18.2673
29.3322
39.4359
48.4537
56.2775
62.8162
67.9973
71.7666
74.0878
74.941
74.3217
72.241
68.7242
63.8119
57.5603
50.0408
41.3394
31.5548
20.7967
9.1847
-3.15267
-16.078
-29.4441
-43.0937
-56.8539
-70.5373
-83.9457
-96.8716
-109.1
-120.412
-130.589
-139.42
-146.708
-152.276
-155.98
-157.716
-116.561
-114.758
-111.43
-106.669
-100.598
-93.3602
-85.1148
-76.029
-66.2731
-56.017
-45.4262
-34.6604
-23.8713
-13.2026
-2.78781
7.24915
16.7929
25.7364
33.9802
41.4328
48.0109
53.6403
58.257
61.8078
64.251
65.5564
65.7054
64.6919
62.5246
59.2243
54.8251
49.3744
42.9337
35.5781
27.396
18.4884
8.96901
-1.0368
-11.3914
-21.9457
-32.5391
-43.0006
-53.1513
-62.8065
-71.7787
-79.8817
-86.935
-92.7702
-97.2376
-100.214
-101.612
-101.384
-99.5388
-96.1354
-91.2724
-85.081
-77.717
-69.3528
-60.1709
-50.3585
-40.1026
-29.5865
-18.9871
-8.47311
1.79848
11.6816
21.0422
29.758
37.7189
44.8273
50.9984
56.161
60.2575
63.2442
65.0908
65.78
65.3067
63.6812
60.9251
57.0719
52.1664
46.265
39.4346
31.7522
23.3033
14.1816
4.48877
-5.66592
-16.1647
-26.8812
-37.6787
-48.4113
-58.9249
-69.0581
-78.6439
-87.512
-95.4923
-102.419
-108.138
-112.509
-115.419
-116.784
-257.398
-252.95
-244.728
-232.947
-217.898
-199.924
-179.411
-156.765
-132.406
-106.751
-80.2105
-53.1818
-26.0425
0.848012
27.1429
52.5124
76.6502
99.2742
120.126
138.97
155.594
169.812
181.463
190.412
196.554
199.811
200.137
197.519
191.981
183.579
172.403
158.578
142.262
123.646
102.958
80.4583
56.4406
31.2322
5.19241
-21.2897
-47.808
-73.9401
-99.2458
-123.271
-145.557
-165.648
-183.106
-197.524
-208.545
-215.877
-219.315
-218.755
-214.214
-205.828
-193.826
-178.52
-160.284
-139.536
-116.718
-92.2886
-66.7069
-40.4234
-13.8736
12.5255
38.3709
63.2812
86.9063
108.928
129.062
147.056
162.695
175.794
186.206
193.816
198.543
200.34
199.192
195.123
188.188
178.472
166.09
151.182
133.918
114.49
93.1185
70.0441
45.5322
19.8717
-6.62431
-33.6197
-60.7652
-87.6964
-114.03
-139.365
-163.288
-185.379
-205.223
-222.416
-236.584
-247.396
-254.581
-257.947
)
;

boundaryField
{
    top
    {
        type            calculated;
        value           nonuniform List<scalar> 
102
(
-9.81
-9.81
-9.81
-9.81
-9.81
-9.81
-9.81
-9.81
-9.81
-9.81
-9.81
-9.81
-9.81
-9.81
-9.81
-9.81
-9.81
-9.81
-9.81
-9.81
-9.81
-9.81
-9.81
-9.81
-9.81
-9.81
-9.81
-9.81
-9.81
-9.81
-9.81
-9.81
-9.81
-9.81
-9.81
-9.81
-9.81
-9.81
-9.81
-9.81
-9.81
-9.81
-9.81
-9.81
-9.81
-9.81
-9.81
-9.81
-9.81
-9.81
-9.81
-9.81
-9.81
-9.81
-9.81
-9.81
-9.81
-9.81
-9.81
-9.81
-9.81
-9.81
-9.81
-9.81
-9.81
-9.81
-9.81
-9.81
-9.81
-9.81
-9.81
-9.81
-9.81
-9.81
-9.81
-9.81
-9.81
-9.81
-9.81
-9.81
-9.81
-9.81
-9.81
-9.81
-9.81
-9.81
-9.81
-9.81
-9.81
-9.81
-9.81
-9.81
-9.81
-9.81
-9.81
-9.81
-9.81
-9.81
-9.81
-9.81
-9.81
-9.81
)
;
    }
    bottom
    {
        type            calculated;
        value           nonuniform List<scalar> 
102
(
-956.701
-960.546
-967.564
-977.402
-989.564
-1003.5
-1018.81
-1035.64
-1054.93
-1078.03
-1105.81
-1137.9
-1173.06
-1209.93
-1247.08
-1283.01
-1316.42
-1346.35
-1372.06
-1392.47
-1407.04
-1416.34
-1421.31
-1423.28
-1423.54
-1423.12
-1422.59
-1422.12
-1421.46
-1419.98
-1416.6
-1409.98
-1398.81
-1382.19
-1359.7
-1332.03
-1300.25
-1265.38
-1228.79
-1192.23
-1157.37
-1125.54
-1097.75
-1074.47
-1055.43
-1039.71
-1026.49
-1015.49
-1006.89
-1001.04
-998.263
-998.718
-1002.38
-1009.03
-1018.34
-1029.96
-1043.83
-1060.37
-1080.52
-1105.07
-1134.06
-1166.85
-1202.34
-1239.08
-1275.36
-1309.49
-1340.21
-1366.55
-1387.42
-1402.44
-1412.23
-1417.81
-1420.53
-1421.69
-1422.25
-1422.73
-1423.27
-1423.57
-1422.95
-1420.28
-1414.23
-1403.53
-1387.36
-1365.36
-1338.38
-1307.41
-1273.18
-1236.77
-1199.54
-1163
-1128.57
-1097.58
-1071.12
-1049.21
-1030.74
-1014.39
-999.452
-985.963
-974.395
-965.3
-959.14
-956.224
)
;
    }
    frontAndBack
    {
        type            empty;
    }
    left_cyc
    {
        type            cyclic;
    }
    right_cyc
    {
        type            cyclic;
    }
}


// ************************************************************************* //
