/*--------------------------------*- C++ -*----------------------------------*\
| =========                 |                                                 |
| \\      /  F ield         | OpenFOAM: The Open Source CFD Toolbox           |
|  \\    /   O peration     | Version:  2.3.0                                 |
|   \\  /    A nd           | Web:      www.OpenFOAM.org                      |
|    \\/     M anipulation  |                                                 |
\*---------------------------------------------------------------------------*/
FoamFile
{
    version     2.0;
    format      ascii;
    class       volScalarField;
    location    "4000";
    object      p_rgh;
}
// * * * * * * * * * * * * * * * * * * * * * * * * * * * * * * * * * * * * * //

dimensions      [0 2 -2 0 0 0 0];

internalField   nonuniform List<scalar> 
765
(
-71.5506
-85.3234
-110.633
-146.292
-190.659
-241.318
-294.512
-345.153
-389.409
-425.11
-447.944
-457.328
-459.844
-458.596
-452.006
-434.316
-401.773
-360.172
-311.182
-258.268
-206.411
-159.922
-121.601
-93.297
-76.3247
-71.5863
-79.4075
-99.2821
-130.197
-170.728
-218.842
-271.421
-323.781
-371.292
-410.804
-440.352
-454.637
-459.496
-459.864
-456.195
-444.324
-417.66
-379.879
-333.782
-282.097
-229.071
-179.611
-137.104
-103.739
-81.0322
-70.0847
-113.868
-124.561
-143.792
-170.389
-203.114
-240.588
-281.446
-325.074
-366.865
-398.309
-419.714
-431.932
-435.632
-433.77
-424.904
-406.177
-378.362
-339.451
-295.569
-253.744
-215.192
-181.006
-152.596
-131.252
-118.18
-114.456
-120.579
-135.807
-159.011
-188.969
-224.361
-263.757
-306.263
-349.971
-386.345
-411.677
-428.276
-434.974
-435.516
-430.289
-415.583
-392.099
-357.913
-314.76
-271.65
-231.48
-194.985
-163.576
-138.592
-121.253
-112.709
-61.1546
-72.5778
-92.912
-120.792
-154.902
-194.079
-237.295
-283.81
-329.591
-365.88
-391.387
-404.899
-409.064
-406.852
-397.233
-375.319
-342.74
-299.214
-252.206
-207.931
-167.476
-131.821
-102.095
-79.5856
-65.6671
-61.6454
-68.236
-84.4135
-108.839
-140.147
-177.087
-218.564
-263.716
-310.692
-351.892
-381.89
-400.905
-408.134
-408.791
-403.078
-386.501
-358.494
-319.428
-272.749
-226.89
-184.53
-146.438
-113.673
-87.433
-69.0564
-59.8972
7.83888
-5.415
-28.7256
-60.2321
-98.1957
-141.176
-187.981
-237.525
-286.525
-330.48
-362.588
-377.39
-381.856
-379.617
-369.232
-342.831
-301.529
-253.75
-203.765
-156.067
-111.839
-72.2946
-38.8165
-13.0896
3.02012
7.72121
0.0268805
-18.6486
-46.4722
-81.6031
-122.434
-167.654
-216.099
-266.027
-312.6
-351.166
-373.187
-381.007
-381.644
-375.425
-356.773
-320.877
-275.412
-225.792
-176.772
-130.757
-88.8361
-52.2403
-22.4818
-1.34858
9.30949
65.5432
49.8636
22.7175
-13.1515
-55.3061
-102.048
-152.516
-206.506
-261.363
-312.186
-350.784
-369.562
-375.63
-372.482
-359.131
-326.79
-278.561
-224.323
-169.425
-117.92
-69.9692
-26.3082
11.5675
41.3705
60.3679
65.956
56.8099
34.8611
2.80057
-36.7032
-81.5485
-130.469
-182.952
-238.061
-291.348
-336.792
-364.139
-374.315
-375.208
-366.99
-343.601
-300.967
-248.697
-193.637
-140.441
-90.7979
-45.0225
-4.15246
29.9224
54.6464
67.2896
118.441
99.0413
65.8991
23.1574
-25.5193
-77.7436
-132.687
-190.859
-250.315
-306.949
-353.75
-381.352
-390.783
-386.081
-365.233
-323.757
-269.178
-209.952
-150.857
-94.8829
-41.6781
8.31124
53.1
89.2888
112.74
119.658
108.321
81.3007
42.5904
-3.76822
-54.6898
-108.599
-165.424
-224.813
-283.365
-335.675
-372.442
-388.733
-390.048
-376.958
-344.246
-294.209
-236.465
-177.052
-119.666
-65.3438
-13.8187
33.742
74.613
104.931
120.598
168.083
143.593
102.147
49.7826
-8.10308
-67.98
-128.599
-190.573
-252.925
-312.644
-363.804
-398.001
-411.195
-404.545
-377.188
-330.536
-272.617
-210.468
-147.976
-86.7495
-26.346
32.5568
87.0381
132.088
161.653
170.367
156.059
122.06
74.098
18.1094
-41.3487
-101.947
-163.484
-226.045
-287.558
-343.471
-386.039
-408.202
-410.085
-391.976
-353.031
-299.122
-238.411
-176.038
-114.46
-53.9959
5.59961
62.5953
112.959
151.004
170.792
218.121
187.293
135.543
71.1652
1.61234
-68.1224
-135.913
-201.233
-264.74
-324.726
-376.437
-412.704
-427.866
-420.055
-390.209
-342.555
-284.375
-221.388
-156.253
-88.9259
-19.2831
50.9362
117.545
173.594
210.756
221.721
203.701
161.036
101.579
33.4986
-36.8378
-106.018
-172.662
-237.292
-299.405
-355.613
-399.566
-424.277
-426.527
-406.051
-365.429
-311.177
-250.089
-186.167
-120.419
-52.0742
17.8634
86.7683
148.959
196.598
221.524
271.156
233.094
170.038
92.6526
10.4003
-70.0098
-144.967
-213.414
-277.201
-335.87
-386.02
-421.808
-437.369
-429.219
-399.352
-352.967
-296.265
-233.539
-166.143
-92.7953
-13.3675
69.1733
148.91
216.952
262.671
276.339
253.938
201.615
129.666
48.4783
-33.7311
-111.834
-183.444
-249.591
-311.019
-365.661
-408.601
-433.589
-435.974
-415.147
-375.345
-322.735
-262.711
-197.962
-128.265
-51.8692
29.4081
111.269
186.285
244.523
275.409
329.776
284.946
211.788
122.912
29.2132
-61.2806
-143.481
-215.534
-279.901
-337.046
-384.869
-418.964
-434.053
-426.034
-397.376
-353.183
-298.334
-235.713
-165.611
-86.0638
2.82296
96.5935
187.959
266.653
320.249
336.572
309.933
248.823
165.824
72.9697
-20.1865
-107.11
-183.942
-252.006
-312.781
-365.344
-406.231
-430.323
-432.709
-412.612
-374.768
-324.437
-265.56
-199.629
-125.663
-41.1273
50.7321
144.194
230.537
298.321
334.875
396.294
347.019
267.638
171.771
70.7695
-26.794
-114.822
-190.645
-256.374
-312.762
-358.663
-390.976
-405.345
-397.597
-370.346
-328.092
-274.418
-211.092
-137.898
-53.0663
42.7041
143.813
242.316
327.514
386.177
404.356
374.808
308.143
218.428
118.338
17.8605
-75.7087
-157.264
-227.808
-288.749
-339.829
-378.795
-401.741
-404.09
-384.998
-349.09
-300.524
-241.975
-174.14
-95.9728
-5.13166
93.9542
194.695
287.907
361.635
401.994
472.557
423.279
344.797
250.343
150.399
52.8485
-36.3196
-113.907
-180.579
-236.585
-281.124
-311.995
-325.7
-318.204
-292.132
-251.303
-198.336
-134.443
-59.6476
26.6266
122.757
223.07
320.183
404.279
462.72
481.122
451.326
385.113
296.658
197.898
97.9676
3.73526
-79.4555
-151.425
-212.614
-262.742
-300.252
-322.209
-324.527
-306.336
-271.947
-224.576
-166.089
-97.0018
-16.9402
74.7114
173.462
272.96
364.79
437.823
478.347
560.144
517.43
450.289
369.918
284.502
199.773
119.907
47.7216
-15.1874
-67.9742
-109.588
-138.193
-150.886
-143.857
-119.659
-81.5755
-31.7413
28.587
98.5478
176.807
260.93
346.97
429.641
501.432
551.881
568.031
541.983
485.024
409.644
325.527
239.534
156.527
80.2173
12.5991
-45.1953
-92.2734
-127.198
-147.587
-149.8
-132.968
-101.055
-56.6866
-1.47293
63.6624
137.82
219.105
304.384
389.203
467.351
529.973
565.245
660.201
632.171
589.213
538.821
485.729
432.404
379.626
328.337
282.069
242.516
211.016
189.211
179.441
184.91
203.436
232.354
269.848
314.517
364.813
417.837
471.329
524.902
576.569
622.237
655.117
665.908
648.598
611.714
564.033
511.633
458.027
404.778
351.926
302.83
259.815
224.294
197.722
182.067
180.321
193.239
217.525
251.049
292.294
339.949
392.171
444.902
498.189
550.886
600.05
640.335
663.625
774.525
769.4
763.302
758.35
755.151
752.936
749.329
742.492
735.19
728.204
722.014
717.239
714.842
716.244
720.464
726.373
733.265
740.627
747.799
752.741
755.146
758.043
762.597
768.577
774.264
776.499
773.033
767.023
761.313
757.239
754.707
752.223
746.197
738.862
731.575
724.88
719.31
715.644
715.179
718.258
723.434
729.851
736.95
744.269
750.935
753.646
755.836
759.369
764.672
770.79
775.253
)
;

boundaryField
{
    top
    {
        type            fixedFluxPressure;
        gradient        nonuniform List<scalar> 
51
(
1966.15
2406.59
3093.56
3913.21
4793.73
5706.65
6676.86
7716.08
8695.19
9552.36
10239.8
10711.2
10917.2
10803.3
10405.8
9776.68
8962.82
8011.54
6979.86
5972.98
5046.08
4153.08
3309.87
2577.11
2058.46
1891.26
2160.57
2744.84
3512.99
4371.72
5270.59
6204.76
7238.92
8258.36
9180.62
9953.6
10530.8
10864.9
10900.9
10626.4
10099.3
9367.39
8476.77
7475.67
6429.88
5486.49
4584.32
3715.31
2919.02
2277.52
1913.24
)
;
        value           nonuniform List<scalar> 
51
(
840.063
849.62
866.42
888.79
914.942
943.158
971.89
999.694
1025.03
1046.62
1063.34
1074.28
1078.75
1076.35
1067.32
1052.26
1032.03
1007.68
980.461
951.841
923.349
896.479
872.926
854.48
842.88
839.541
845.053
858.518
878.412
902.963
930.393
959.049
987.495
1014.14
1037.6
1056.67
1070.34
1077.81
1078.54
1072.47
1060.08
1042.1
1019.51
993.458
965.264
936.529
908.647
883.213
861.972
846.708
839.028
)
;
    }
    bottom
    {
        type            fixedFluxPressure;
        gradient        uniform 0;
        value           nonuniform List<scalar> 
51
(
-71.5506
-85.3234
-110.633
-146.292
-190.659
-241.318
-294.512
-345.153
-389.409
-425.11
-447.944
-457.328
-459.844
-458.596
-452.006
-434.316
-401.773
-360.172
-311.182
-258.268
-206.411
-159.922
-121.601
-93.297
-76.3247
-71.5863
-79.4075
-99.2821
-130.197
-170.728
-218.842
-271.421
-323.781
-371.292
-410.804
-440.352
-454.637
-459.496
-459.864
-456.195
-444.324
-417.66
-379.879
-333.782
-282.097
-229.071
-179.611
-137.104
-103.739
-81.0322
-70.0847
)
;
    }
    frontAndBack
    {
        type            empty;
    }
    left_cyc
    {
        type            cyclic;
    }
    right_cyc
    {
        type            cyclic;
    }
}


// ************************************************************************* //
