/*--------------------------------*- C++ -*----------------------------------*\
| =========                 |                                                 |
| \\      /  F ield         | OpenFOAM: The Open Source CFD Toolbox           |
|  \\    /   O peration     | Version:  2.3.0                                 |
|   \\  /    A nd           | Web:      www.OpenFOAM.org                      |
|    \\/     M anipulation  |                                                 |
\*---------------------------------------------------------------------------*/
FoamFile
{
    version     2.0;
    format      ascii;
    class       volScalarField;
    location    "4000";
    object      p_rgh;
}
// * * * * * * * * * * * * * * * * * * * * * * * * * * * * * * * * * * * * * //

dimensions      [0 2 -2 0 0 0 0];

internalField   nonuniform List<scalar> 
3060
(
-38.9021
-41.9282
-47.604
-55.8902
-66.7458
-80.1356
-96.0286
-114.383
-135.12
-158.103
-183.112
-209.832
-237.827
-266.519
-295.168
-322.879
-348.707
-371.766
-391.3
-406.916
-418.719
-427.086
-432.648
-436.104
-438.046
-438.862
-438.731
-437.643
-435.404
-431.608
-425.65
-416.825
-404.506
-388.329
-368.228
-344.639
-318.358
-290.353
-261.655
-233.196
-205.732
-179.849
-155.982
-134.439
-115.425
-99.0614
-85.4147
-74.5199
-66.4044
-61.0952
-58.6182
-58.9899
-62.2071
-68.2502
-77.0925
-88.707
-103.066
-120.128
-139.815
-161.988
-186.415
-212.757
-240.544
-269.146
-297.759
-325.416
-351.084
-373.831
-392.931
-408.08
-419.442
-427.454
-432.781
-436.121
-438.03
-438.858
-438.749
-437.665
-435.375
-431.434
-425.209
-416.001
-403.232
-386.587
-366.077
-342.216
-315.809
-287.766
-259.025
-230.451
-202.738
-176.427
-151.918
-129.502
-109.374
-91.6541
-76.4091
-63.6756
-53.4849
-45.8739
-40.884
-38.5527
-61.5
-64.1838
-69.2356
-76.6533
-86.437
-98.5799
-113.055
-129.801
-148.71
-169.62
-192.305
-216.443
-241.58
-267.109
-292.371
-316.932
-340.557
-362.519
-381.616
-397.023
-408.805
-417.377
-423.325
-427.238
-429.58
-430.633
-430.514
-429.215
-426.606
-422.392
-416.096
-407.123
-394.891
-379.008
-359.493
-337.25
-313.471
-288.841
-263.622
-238.353
-213.748
-190.417
-168.81
-149.246
-131.947
-117.063
-104.682
-94.8424
-87.5523
-82.8047
-80.5955
-80.9267
-83.7975
-89.2068
-97.1608
-107.664
-120.703
-136.227
-154.133
-174.254
-196.345
-220.058
-244.901
-270.222
-295.328
-319.77
-343.242
-364.894
-383.517
-398.419
-409.757
-417.974
-423.672
-427.429
-429.676
-430.661
-430.478
-429.107
-426.39
-421.999
-415.426
-406.07
-393.377
-376.982
-357.028
-334.523
-310.614
-285.858
-260.469
-234.976
-210.046
-186.248
-163.999
-143.59
-125.231
-109.067
-95.1943
-83.6636
-74.4953
-67.6933
-63.257
-61.1906
-75.7384
-78.5402
-83.7792
-91.3922
-101.286
-113.328
-127.346
-143.14
-160.504
-179.249
-199.212
-220.257
-242.271
-265.157
-288.707
-312.201
-334.457
-354.322
-371.342
-385.928
-397.978
-406.984
-413.36
-417.713
-420.45
-421.751
-421.647
-420.133
-417.167
-412.556
-405.885
-396.551
-384.189
-369.353
-352.112
-332.091
-309.836
-286.565
-263.498
-241.237
-219.958
-199.771
-180.821
-163.282
-147.356
-133.266
-121.232
-111.447
-104.066
-99.1961
-96.912
-97.2554
-100.219
-105.751
-113.771
-124.158
-136.748
-151.338
-167.705
-185.63
-204.919
-225.403
-246.947
-269.449
-292.665
-315.792
-337.566
-356.869
-373.437
-387.68
-399.277
-407.859
-413.939
-418.091
-420.668
-421.815
-421.551
-419.884
-416.751
-411.921
-404.921
-395.132
-382.354
-367.168
-349.429
-328.855
-306.148
-282.531
-259.121
-236.453
-214.683
-193.908
-174.248
-155.846
-138.871
-123.519
-109.996
-98.4984
-89.1871
-82.1842
-77.5742
-75.4142
-57.5953
-60.5545
-66.0683
-74.0463
-84.3625
-96.8508
-111.304
-127.481
-145.131
-164.013
-183.918
-204.684
-226.198
-248.38
-271.049
-293.677
-315.517
-336.19
-355.174
-371.149
-383.668
-393.65
-401.001
-406.093
-409.409
-411.064
-410.981
-409.155
-405.655
-400.36
-392.786
-382.614
-369.92
-353.81
-334.837
-314.252
-292.527
-270.117
-247.848
-226.203
-205.332
-185.339
-166.375
-148.649
-132.414
-117.94
-105.497
-95.3214
-87.6047
-82.4918
-80.085
-80.4477
-83.5672
-89.3699
-97.7431
-108.53
-121.526
-136.485
-153.135
-171.206
-190.456
-210.691
-231.774
-253.607
-275.979
-298.281
-319.737
-339.973
-358.346
-373.525
-385.493
-395.021
-401.937
-406.733
-409.797
-411.179
-410.8
-408.709
-404.954
-399.337
-391.294
-380.682
-367.353
-350.462
-330.942
-309.939
-287.84
-265.119
-242.544
-220.53
-199.204
-178.65
-158.993
-140.411
-123.12
-107.367
-93.4028
-81.4612
-71.739
-64.3916
-59.535
-57.2518
-27.0698
-30.0595
-35.6191
-43.6484
-54.0175
-66.5674
-81.1132
-97.4519
-115.374
-134.673
-155.156
-176.636
-198.925
-221.794
-244.911
-267.749
-289.806
-311.077
-331.679
-350.483
-365.927
-377.579
-386.174
-392.408
-396.603
-398.783
-398.722
-396.417
-392.093
-385.731
-377.029
-365.291
-349.794
-330.966
-310.387
-289.096
-266.975
-244.15
-221.231
-198.741
-177.009
-156.272
-136.741
-118.63
-102.16
-87.5601
-75.0506
-64.8345
-57.0864
-51.9475
-49.5246
-49.8902
-53.0291
-58.8593
-67.2653
-78.0969
-91.1715
-106.28
-123.199
-141.701
-161.567
-182.585
-204.54
-227.18
-250.136
-272.825
-294.715
-315.829
-336.122
-354.195
-368.699
-379.551
-387.605
-393.412
-397.224
-398.968
-398.425
-395.702
-390.998
-384.181
-374.886
-362.283
-345.872
-326.418
-305.604
-284.156
-261.869
-238.897
-215.803
-193.059
-170.961
-149.723
-129.53
-110.57
-93.0394
-77.1469
-63.1014
-51.1021
-41.3275
-33.9295
-29.0301
-26.722
5.12831
2.02044
-3.7448
-12.0499
-22.748
-35.6658
-50.6097
-67.3731
-85.7463
-105.525
-126.517
-148.538
-171.402
-194.902
-218.769
-242.638
-266.067
-288.635
-309.913
-329.487
-346.849
-360.508
-370.404
-377.427
-382.375
-385.121
-385.088
-382.275
-377.283
-370.245
-360.372
-346.69
-329.216
-309.455
-287.971
-265.25
-241.742
-217.911
-194.222
-171.059
-148.704
-127.386
-107.316
-88.7081
-71.7842
-56.7705
-43.8903
-33.3529
-25.3445
-20.0213
-17.5059
-17.886
-21.1428
-27.1787
-35.8621
-47.0287
-60.4855
-76.0184
-93.4025
-112.412
-132.827
-154.436
-177.025
-200.357
-224.127
-247.921
-271.264
-293.711
-314.783
-334.05
-350.66
-363.273
-372.322
-378.767
-383.248
-385.388
-384.657
-381.279
-375.83
-368.142
-357.35
-342.643
-324.569
-304.535
-282.873
-260.045
-236.456
-212.548
-188.743
-165.385
-142.72
-120.949
-100.254
-80.8219
-62.8475
-46.5372
-32.1009
-19.7426
-9.65139
-1.99412
3.08979
5.49054
38.2327
34.9649
28.9173
20.2286
9.06763
-4.37192
-19.88
-37.2393
-56.2346
-76.6612
-98.3281
-121.057
-144.675
-168.995
-193.796
-218.835
-243.736
-268.064
-291.285
-312.675
-331.331
-345.973
-356.122
-363.221
-368.199
-371.13
-371.136
-368.232
-363.334
-356.356
-346.217
-331.376
-312.426
-290.752
-267.288
-242.782
-217.782
-192.761
-168.069
-144.006
-120.816
-98.715
-77.9075
-58.6059
-41.0327
-25.4195
-11.9989
-0.994948
7.38776
12.9726
15.6173
15.2171
11.7949
5.46608
-3.61764
-15.2717
-29.2853
-45.4314
-63.4765
-83.191
-104.355
-126.759
-150.197
-174.45
-199.262
-224.318
-249.234
-273.529
-296.604
-317.677
-335.695
-349.283
-358.41
-364.798
-369.211
-371.456
-370.612
-367.091
-361.598
-353.851
-342.616
-326.816
-307.333
-285.395
-261.824
-237.306
-212.331
-187.331
-162.62
-138.459
-115.053
-92.5817
-71.2193
-51.1459
-32.5558
-15.6572
-0.666456
12.2
22.7355
30.7522
36.0886
38.6143
70.2038
66.7148
60.2734
51.047
39.2374
25.0718
8.79139
-9.36085
-29.1514
-50.3652
-72.8109
-96.3205
-120.742
-145.927
-171.706
-197.942
-224.26
-250.212
-275.234
-298.573
-319.249
-335.732
-346.385
-352.5
-356.626
-359.08
-359.148
-356.856
-352.938
-346.918
-336.076
-319.253
-298.233
-274.574
-249.27
-223.094
-196.634
-170.374
-144.613
-119.582
-95.4764
-72.4821
-50.7923
-30.6182
-12.1919
4.23658
18.4087
30.0695
38.9807
44.9338
47.7588
47.3308
43.6771
36.9355
27.2866
14.948
0.163481
-16.8098
-35.7144
-56.3043
-78.3526
-101.653
-126.016
-151.255
-177.168
-203.522
-229.957
-255.971
-280.929
-304.013
-324.122
-339.507
-348.828
-354.106
-357.633
-359.399
-358.639
-355.702
-351.175
-344.169
-331.966
-314.203
-292.716
-268.86
-243.534
-217.443
-191.115
-164.981
-139.321
-114.313
-90.1116
-66.8624
-44.7194
-23.8562
-4.47019
13.2181
28.9719
42.5474
53.7059
62.2259
67.9137
70.6119
100.326
96.5439
89.5784
79.6345
66.9595
51.8295
34.5326
15.3532
-5.44329
-27.6219
-50.9848
-75.3729
-100.66
-126.741
-153.512
-180.886
-208.517
-235.963
-262.639
-287.764
-310.32
-328.9
-341.553
-347.833
-350.776
-352.414
-352.557
-351.209
-348.479
-342.128
-329.156
-310.199
-287.269
-261.785
-234.778
-207.047
-179.2
-151.707
-124.848
-98.7817
-73.6541
-49.6208
-26.8628
-5.59634
13.9263
31.4221
46.59
59.1262
68.7432
75.1867
78.2504
77.786
73.8252
66.5331
56.1297
42.8795
27.0761
9.02419
-10.9783
-32.6554
-55.7638
-80.0967
-105.48
-131.761
-158.787
-186.423
-214.295
-241.906
-268.604
-293.536
-315.591
-333.198
-344.349
-349.397
-351.68
-352.687
-352.116
-350.165
-346.674
-338.93
-324.555
-304.773
-281.434
-255.82
-228.879
-201.338
-173.74
-146.498
-119.89
-94.0031
-68.9373
-44.8016
-21.7295
0.110369
20.5103
39.2265
55.9873
70.5062
82.4963
91.6876
97.8425
100.768
128.419
124.258
116.61
105.729
91.9242
75.5371
56.9227
36.4248
14.3571
-9.01254
-33.4713
-58.8646
-85.0917
-112.094
-139.835
-168.252
-197.042
-225.788
-253.915
-280.638
-304.932
-325.475
-340.57
-348.966
-352.285
-353.521
-353.712
-352.797
-349.586
-340.997
-325.548
-304.61
-279.913
-252.787
-224.268
-195.152
-166.035
-137.357
-109.387
-82.2165
-55.9415
-30.6889
-6.63258
15.997
36.9134
55.7831
72.2421
85.9176
96.4534
103.534
106.906
106.395
102.036
94.0286
82.6427
68.2069
51.0845
31.648
10.2555
-12.7703
-37.1568
-62.6886
-89.2046
-116.586
-144.736
-173.575
-202.747
-231.775
-260.02
-286.626
-310.488
-330.18
-343.906
-350.807
-353.172
-353.766
-353.311
-351.723
-347.403
-337.271
-320.582
-298.916
-273.877
-246.702
-218.349
-189.544
-160.815
-132.541
-104.996
-78.1919
-52.1741
-27.0118
-2.81895
20.2349
41.9221
61.9616
80.0304
95.7798
108.856
118.924
125.686
128.907
154.795
150.156
141.645
129.576
114.336
96.3531
76.0692
53.9075
30.2478
5.40592
-20.379
-46.9496
-74.2259
-102.193
-130.878
-160.232
-190.006
-219.829
-249.155
-277.225
-303.039
-325.357
-342.728
-353.898
-359.276
-361.194
-361.37
-359.701
-354.322
-342.907
-325.171
-302.44
-276.188
-247.66
-217.862
-187.558
-157.307
-127.501
-98.399
-70.0273
-42.4393
-15.7386
9.89917
34.2169
56.8774
77.4767
95.5663
110.682
122.379
130.262
134.022
133.452
128.593
119.683
107.055
91.1208
72.3333
51.1558
28.0279
3.33788
-22.597
-49.5411
-77.339
-105.903
-135.191
-165.145
-195.456
-225.692
-255.245
-283.289
-308.755
-330.336
-346.524
-356.236
-360.392
-361.471
-360.904
-358.319
-351.615
-338.771
-319.967
-296.608
-270.097
-241.616
-212.097
-182.241
-152.544
-123.338
-94.8473
-67.0625
-39.9659
-13.5888
11.9693
36.5299
59.8331
81.5449
101.272
118.584
133.039
144.217
151.747
155.339
179.979
174.757
165.188
151.661
134.655
114.707
92.3668
68.157
42.5422
15.9024
-11.4835
-39.4448
-67.9145
-96.9132
-126.524
-156.709
-187.288
-217.945
-248.182
-277.281
-304.294
-328.061
-347.301
-360.89
-368.658
-371.892
-372.007
-368.899
-361.041
-347.173
-327.55
-303.341
-275.842
-246.213
-215.401
-184.124
-152.885
-122.016
-91.7334
-62.0329
-32.929
-4.51075
23.0335
49.4049
74.1975
96.916
117.005
133.886
147.003
155.866
160.097
159.456
153.989
143.976
129.828
112.056
91.2275
67.9177
42.6702
15.9593
-11.8357
-40.4452
-69.7085
-99.5601
-130.003
-160.989
-192.276
-223.49
-254.074
-283.251
-310.014
-333.157
-351.378
-363.643
-370.095
-372.255
-371.393
-367.147
-357.937
-342.804
-322.262
-297.53
-269.871
-240.394
-209.988
-179.311
-148.809
-118.758
-89.3143
-60.4581
-32.119
-4.29671
22.9159
49.32
74.6094
98.3805
120.15
139.386
155.537
168.077
176.548
180.591
204.574
198.662
187.84
172.579
153.473
131.184
106.39
79.733
51.7803
22.9916
-6.29928
-35.8959
-65.7328
-95.8551
-126.385
-157.309
-188.519
-219.766
-250.606
-280.377
-308.19
-332.967
-353.542
-368.872
-378.501
-382.932
-382.967
-378.525
-368.719
-353.067
-332.071
-306.804
-278.438
-248.045
-216.503
-184.465
-152.375
-120.495
-88.9698
-57.7895
-26.9402
3.49148
33.2903
62.0996
89.426
114.662
137.125
156.099
170.898
180.921
185.707
184.982
178.797
167.479
151.53
131.579
108.326
82.4827
54.7165
25.6084
-4.38269
-34.9371
-65.8751
-97.1399
-128.764
-160.715
-192.824
-224.784
-256.1
-286.06
-313.73
-338
-357.697
-371.839
-380.164
-383.369
-382.231
-376.535
-365.432
-348.658
-326.879
-301.201
-272.781
-242.656
-211.655
-180.383
-149.231
-118.404
-87.9871
-57.9455
-28.1706
1.358
30.5425
59.1507
86.8151
113.046
137.252
158.779
176.946
191.105
200.69
205.266
229.15
222.448
210.187
192.935
171.413
146.428
118.803
89.3161
58.6516
27.3629
-4.14492
-35.6359
-67.0328
-98.39
-129.849
-161.436
-193.124
-224.737
-255.874
-285.941
-314.121
-339.419
-360.759
-377.131
-387.925
-393.151
-393.103
-387.726
-376.661
-359.906
-338.082
-312.224
-283.401
-252.594
-220.6
-187.994
-155.166
-122.302
-89.4685
-56.6454
-23.8106
8.93545
41.3347
72.9566
103.202
131.334
156.522
177.898
194.626
205.975
211.396
210.576
203.569
190.757
172.742
150.29
124.253
95.495
64.8257
32.9515
0.428875
-32.3569
-65.1911
-98.0087
-130.855
-163.72
-196.515
-229.006
-260.757
-291.134
-319.287
-344.198
-364.799
-380.107
-389.666
-393.622
-392.313
-385.666
-373.397
-355.648
-333.175
-307.025
-278.264
-247.848
-216.539
-184.878
-153.206
-121.655
-90.2288
-58.8701
-27.449
4.05966
35.5394
66.7102
97.1271
126.2
153.216
177.38
197.866
213.884
224.746
229.933
254.197
246.616
232.754
213.288
189.081
161.098
130.319
97.671
63.9634
29.8512
-4.16771
-37.8059
-70.9605
-103.68
-136.088
-168.285
-200.327
-232.136
-263.28
-293.271
-321.382
-346.705
-368.248
-385.064
-396.453
-402.108
-401.981
-396.035
-384.267
-366.978
-344.87
-318.891
-290.021
-259.142
-226.956
-193.925
-160.445
-126.608
-92.3911
-57.7613
-22.7089
12.6325
47.9461
82.7139
116.214
147.564
175.777
199.819
218.688
231.512
237.637
236.711
228.792
214.32
194.012
168.785
139.657
107.656
73.7472
38.7775
3.41663
-31.8706
-66.8177
-101.332
-135.449
-169.197
-202.582
-235.429
-267.332
-297.766
-325.975
-351.042
-371.984
-387.89
-398.153
-402.58
-401.197
-394.04
-381.192
-363.063
-340.44
-314.298
-285.616
-255.261
-223.903
-192.009
-159.923
-127.677
-95.1926
-62.3752
-29.0959
4.65742
38.7357
72.7956
106.297
138.543
168.687
195.783
218.847
236.932
249.215
255.082
280.111
271.578
255.988
234.141
207.052
175.852
141.687
105.636
68.6367
31.4319
-5.34349
-41.3499
-76.4444
-110.647
-144.048
-176.83
-209.103
-240.827
-271.729
-301.362
-329.079
-354.061
-375.404
-392.217
-403.761
-409.554
-409.352
-403.125
-391.082
-373.687
-351.671
-325.911
-297.291
-266.593
-234.431
-201.213
-167.179
-132.368
-96.6941
-60.1058
-22.6336
15.5352
54.0108
92.1828
129.186
163.985
195.439
222.34
243.512
257.927
264.817
263.775
254.868
238.605
215.834
187.632
155.192
119.716
82.3118
43.9918
5.5479
-32.4671
-69.7189
-106.066
-141.508
-176.114
-209.947
-242.919
-274.749
-304.974
-332.932
-357.805
-378.701
-394.764
-405.326
-409.996
-408.622
-401.3
-388.327
-370.254
-347.875
-322.096
-293.807
-263.788
-232.638
-200.754
-168.35
-135.417
-101.814
-67.3961
-32.0634
4.16381
41.0946
78.3073
115.141
150.799
184.3
214.542
240.374
260.684
274.503
281.107
307.201
297.658
280.257
255.934
225.865
191.348
153.693
114.127
73.7261
33.3666
-6.27914
-44.7851
-81.9426
-117.717
-152.184
-185.581
-218.068
-249.663
-280.188
-309.275
-336.362
-360.731
-381.566
-398.042
-409.422
-415.147
-414.868
-408.564
-396.551
-379.366
-357.725
-332.431
-304.266
-273.909
-241.876
-208.491
-173.898
-138.069
-100.867
-62.2145
-22.201
18.9152
60.6566
102.302
142.883
181.228
216.021
245.878
269.447
285.536
293.241
292.075
282.118
263.978
238.648
207.373
171.523
132.476
91.5137
49.7626
8.12673
-32.7377
-72.4141
-110.695
-147.523
-183.021
-217.303
-250.357
-281.994
-311.839
-339.329
-363.75
-384.307
-400.21
-410.78
-415.538
-414.23
-406.991
-394.222
-376.535
-354.699
-329.546
-301.874
-272.366
-241.535
-209.699
-176.982
-143.324
-108.534
-72.4067
-34.89
3.94061
43.8223
84.2646
124.541
163.721
200.682
234.169
262.866
285.494
300.928
308.317
335.736
325.171
305.967
279.203
246.215
208.457
167.389
124.372
80.6009
37.0599
-5.50169
-46.5771
-85.8818
-123.311
-158.934
-193.02
-225.771
-257.253
-287.364
-315.817
-342.145
-365.73
-385.855
-401.77
-412.776
-418.298
-417.94
-411.685
-399.898
-383.126
-362.04
-337.356
-309.75
-279.794
-247.904
-214.318
-179.104
-142.183
-103.38
-62.5881
-19.9712
24.1286
69.1401
114.238
158.344
200.158
238.214
270.966
296.898
314.652
323.182
321.887
310.875
290.873
263.025
228.742
189.562
147.018
102.54
57.3737
12.5336
-31.2234
-73.3906
-113.68
-151.97
-188.433
-223.221
-256.379
-287.797
-317.19
-344.096
-367.913
-387.945
-403.481
-413.874
-418.621
-417.42
-410.425
-398.079
-380.997
-359.899
-335.534
-308.598
-279.676
-249.188
-217.373
-184.288
-149.825
-113.765
-75.8384
-36.0539
5.44509
48.3201
92.0023
135.681
178.314
218.657
255.316
286.823
311.741
328.788
336.974
365.939
354.411
333.523
304.496
268.811
228.064
183.836
137.601
90.654
44.0678
-1.32712
-44.9423
-86.4106
-125.545
-162.41
-197.289
-230.401
-261.851
-291.597
-319.428
-344.971
-367.709
-387.027
-402.264
-412.778
-418.018
-417.577
-411.439
-399.979
-383.718
-363.26
-339.224
-312.181
-282.592
-250.779
-216.903
-180.974
-142.876
-102.422
-59.4759
-14.2885
32.7063
80.843
129.2
176.597
221.623
262.692
298.121
326.244
345.554
354.86
353.444
341.439
319.702
289.522
252.462
210.204
164.416
116.645
68.2474
20.3345
-26.2397
-70.875
-113.193
-153.012
-190.531
-225.921
-259.268
-290.525
-319.49
-345.801
-368.964
-388.391
-403.458
-413.577
-418.262
-417.195
-410.536
-398.733
-382.37
-362.099
-338.575
-312.392
-284.033
-253.83
-221.95
-188.395
-153.026
-115.605
-75.8467
-33.7919
10.3317
56.1031
102.873
149.747
195.592
239.062
278.648
312.752
339.797
358.354
367.295
397.974
385.611
363.277
332.324
294.354
251.072
204.153
155.15
105.431
56.1358
8.16652
-37.8119
-81.3481
-122.166
-160.324
-196.09
-229.683
-261.228
-290.724
-318.028
-342.852
-364.778
-383.291
-397.823
-407.807
-412.731
-412.198
-406.196
-395.087
-379.343
-359.491
-336.05
-309.484
-280.155
-248.3
-214.014
-177.27
-137.941
-95.8461
-50.8361
-3.25435
46.3724
97.2906
148.496
198.728
246.496
290.122
327.82
357.81
378.456
388.436
386.915
374.051
350.826
318.662
279.247
234.375
185.813
135.198
83.9623
33.3011
-15.8481
-62.7947
-107.065
-148.43
-187.077
-223.177
-256.834
-288.049
-316.687
-342.48
-365.035
-383.87
-398.457
-408.279
-412.887
-411.969
-405.683
-394.463
-378.839
-359.384
-336.657
-311.153
-283.256
-253.219
-221.147
-187.006
-150.643
-111.824
-70.2761
-26.0694
20.4793
68.8667
118.368
168.02
216.62
262.748
304.813
341.12
369.979
389.836
399.432
431.949
418.952
395.541
363.172
323.537
278.408
229.515
178.451
126.62
75.2025
25.1504
-22.8083
-68.1453
-110.497
-149.904
-186.594
-220.76
-252.527
-281.917
-308.838
-333.074
-354.295
-372.08
-385.954
-395.426
-400.036
-399.403
-393.519
-382.725
-367.437
-348.096
-325.13
-298.904
-269.693
-237.663
-202.867
-165.26
-124.727
-81.1244
-34.308
15.2867
67.0483
120.151
173.532
225.883
275.668
321.161
360.518
391.883
413.526
424.018
422.415
408.902
384.572
350.95
309.815
263.032
212.423
159.67
106.253
53.4159
2.1601
-46.7471
-92.7433
-135.554
-175.323
-212.197
-246.276
-277.584
-306.039
-331.448
-353.509
-371.838
-385.999
-395.552
-400.099
-399.335
-393.419
-382.755
-367.815
-349.091
-327.048
-302.087
-274.507
-244.494
-212.11
-177.302
-139.926
-99.7757
-56.62
-10.5605
38.0005
88.4854
140.11
191.863
242.505
290.579
334.449
372.364
402.56
423.389
433.487
467.925
454.574
430.59
397.499
357.039
311.004
261.129
209.002
156.021
103.372
52.024
2.74477
-43.8782
-87.4056
-127.845
-165.359
-200.089
-232.136
-261.527
-288.198
-311.987
-332.637
-349.81
-363.112
-372.125
-376.443
-375.703
-369.903
-359.36
-344.431
-325.484
-302.858
-276.84
-247.634
-215.359
-180.045
-141.656
-100.113
-55.3361
-7.21831
43.7278
96.8271
151.209
205.785
259.239
310.036
356.453
396.639
428.71
450.887
461.667
460.016
446.142
421.227
386.863
344.873
297.142
245.497
191.617
136.982
82.849
30.2491
-19.9987
-67.2614
-111.219
-151.947
-189.537
-224.063
-255.548
-283.94
-309.099
-330.798
-348.734
-362.557
-371.899
-376.41
-375.802
-370.224
-360.054
-345.705
-327.591
-306.094
-281.534
-254.143
-224.059
-191.319
-155.875
-117.614
-76.3821
-32.0182
15.3402
65.2182
116.984
169.82
222.7
274.383
323.418
368.173
406.89
437.775
459.128
469.51
505.924
492.575
468.656
435.721
395.501
349.762
300.188
248.313
195.482
142.842
91.3421
41.7542
-5.30597
-49.3489
-90.333
-128.327
-163.406
-195.622
-224.984
-251.437
-274.852
-295.022
-311.674
-324.483
-333.094
-337.148
-336.3
-330.556
-320.209
-305.567
-286.933
-264.579
-238.73
-209.545
-177.117
-141.48
-102.628
-60.5402
-15.2161
33.354
84.6296
137.903
192.297
246.741
299.959
350.469
396.606
436.566
468.496
490.619
501.401
499.746
485.88
461.04
426.84
385.093
337.649
286.283
232.615
178.076
123.888
71.0705
20.4547
-27.2877
-71.7977
-113.055
-151.075
-185.88
-217.472
-245.801
-270.759
-292.169
-309.792
-323.345
-332.524
-337.022
-336.561
-331.286
-321.548
-307.705
-290.108
-269.07
-244.847
-217.627
-187.52
-154.561
-118.728
-79.9596
-38.1781
6.68358
54.4475
104.594
156.468
209.255
261.953
313.366
362.096
406.566
445.062
475.816
497.125
507.514
545.928
533.009
509.921
478.191
439.491
395.5
347.797
297.81
246.783
195.775
145.672
97.2053
50.9751
7.48023
-33.1722
-70.9425
-105.819
-137.794
-166.84
-192.889
-215.822
-235.463
-251.583
-263.907
-272.132
-275.938
-274.993
-269.312
-259.173
-244.842
-226.574
-204.594
-179.087
-150.19
-117.996
-82.5636
-43.9333
-2.15712
42.6754
90.4205
140.575
192.443
245.189
297.811
349.125
397.757
442.155
480.623
511.398
532.761
543.199
541.594
528.18
504.205
471.255
431.073
385.414
335.942
284.166
231.409
178.809
127.319
77.7377
30.7252
-13.3334
-54.3042
-92.1104
-126.707
-158.05
-186.076
-210.681
-231.714
-248.98
-262.245
-271.25
-275.726
-275.402
-270.414
-261.091
-247.751
-230.69
-210.172
-186.414
-159.575
-129.762
-97.0287
-61.3962
-22.8692
18.5377
62.7786
109.636
158.586
208.997
260.099
310.963
360.482
407.363
450.135
487.185
516.827
537.409
547.471
587.884
575.886
554.501
525.173
489.456
448.882
404.877
358.709
311.476
264.104
217.366
171.904
128.249
86.8541
47.902
11.5452
-22.1157
-53.006
-81.051
-106.157
-128.197
-147.008
-162.384
-174.089
-181.854
-185.391
-184.379
-178.845
-169.052
-155.24
-137.63
-116.417
-91.7682
-63.82
-32.6817
1.55201
38.7815
78.877
121.649
166.821
213.942
262.394
311.439
360.2
407.638
452.54
493.52
529.048
557.51
577.309
587.008
585.513
573.057
550.852
520.391
483.288
441.143
395.455
347.563
298.635
249.668
201.499
154.83
110.254
68.1567
28.791
-7.67046
-41.1082
-71.4261
-98.5271
-122.296
-142.588
-159.23
-172.018
-180.726
-185.11
-184.905
-180.239
-171.421
-158.736
-142.444
-122.775
-99.9219
-74.0403
-45.2462
-13.6268
20.746
57.7943
97.4088
139.423
183.589
229.434
276.4
323.814
370.864
416.581
459.822
499.275
533.481
560.892
579.969
589.321
631.707
621.165
602.431
576.806
545.665
510.339
472.049
431.864
390.689
349.279
308.251
268.106
229.256
192.039
156.712
123.527
92.661
64.2475
38.405
15.2563
-5.05897
-22.3773
-36.509
-47.2392
-54.3293
-57.5151
-56.4947
-51.302
-42.1878
-29.3709
-13.0501
6.59425
29.4008
55.2256
83.936
115.4
149.465
185.935
224.535
264.872
306.594
349.222
392.178
434.756
476.109
515.23
550.951
581.96
606.851
624.209
632.738
631.42
620.477
601.022
574.397
542.026
505.297
465.487
423.723
380.97
338.034
295.587
254.179
214.266
176.196
140.333
106.931
76.171
48.1995
23.1475
1.14965
-17.6458
-33.0725
-44.9454
-53.061
-57.194
-57.0879
-52.8588
-44.7969
-33.1593
-18.1785
-0.0628474
21.0048
44.8675
71.391
100.456
131.941
165.707
201.561
239.228
278.446
318.861
360.04
401.452
442.447
482.232
519.86
554.221
584.059
608.024
624.749
632.973
677.286
668.756
653.655
633.08
608.163
579.987
549.521
517.596
484.897
451.974
419.256
387.07
355.651
325.169
295.927
268.247
242.347
218.394
196.53
176.894
159.63
144.897
132.87
123.742
117.723
115.046
115.987
120.505
128.371
139.389
153.378
170.173
189.62
211.57
235.878
262.393
290.936
321.275
353.087
385.894
419.502
453.627
487.891
521.802
554.739
585.936
614.484
639.339
659.356
673.367
680.276
679.205
670.348
654.661
633.268
607.342
578.006
546.271
513.011
478.949
444.673
410.644
377.212
344.637
313.186
283.296
255.266
229.311
205.603
184.292
165.521
149.441
136.209
125.994
118.979
115.367
115.398
118.969
125.819
135.721
148.47
163.878
181.774
202.004
224.425
248.9
275.282
303.394
332.998
363.737
395.375
427.726
460.533
493.443
525.999
557.617
587.573
615
638.896
658.158
671.652
678.315
724.487
718.515
708.013
693.805
676.727
657.559
636.98
615.553
593.72
571.81
550.052
528.575
507.421
486.539
466.24
446.852
428.587
411.596
396.007
381.944
369.53
358.9
350.198
343.578
339.211
337.285
338.028
341.401
347.211
355.297
365.511
377.717
391.782
407.579
424.982
443.853
464.033
485.311
507.374
529.723
552.362
575.242
598.205
620.988
643.215
664.391
683.897
700.996
714.864
724.635
729.483
728.729
722.523
711.601
696.806
679.002
658.993
637.485
615.067
592.201
569.232
546.395
523.817
501.522
479.647
458.64
438.788
420.287
403.291
387.933
374.34
362.64
352.967
345.459
340.266
337.557
337.533
340.114
345.085
352.262
361.481
372.589
385.444
399.917
415.882
433.218
451.792
471.441
491.929
512.879
534.121
555.683
577.499
599.415
621.18
642.434
662.705
681.401
697.811
711.137
720.539
725.211
773.179
770.272
765.259
758.629
750.862
742.385
733.55
724.626
715.796
707.167
698.768
690.552
682.379
673.984
665.606
657.497
649.785
642.549
635.849
629.746
624.302
619.59
615.69
612.693
610.702
609.835
610.245
611.9
614.674
618.463
623.178
628.739
635.075
642.117
649.802
658.064
666.823
675.958
685.26
694.303
703.31
712.445
721.759
731.211
740.676
749.943
758.712
766.598
773.146
777.856
780.235
779.861
776.829
771.59
764.646
756.487
747.553
738.207
728.726
719.297
710.023
700.921
691.911
682.792
673.527
664.484
655.85
647.733
640.21
633.346
627.205
621.857
617.375
613.842
611.348
610.003
609.942
611.114
613.378
616.619
620.739
625.649
631.271
637.535
644.381
651.747
659.571
667.764
676.174
684.492
692.666
700.925
709.385
718.074
726.943
735.865
744.637
752.967
760.482
766.74
771.252
773.537
823.151
823.752
825.001
826.989
829.777
833.388
837.802
842.966
848.79
855.157
861.923
868.911
875.887
882.478
888.735
894.699
900.326
905.555
910.321
914.569
918.25
921.326
923.771
925.572
926.728
927.259
927.204
926.554
925.275
923.357
920.803
917.635
913.884
909.593
904.819
899.623
894.072
888.223
882.088
875.497
868.812
862.312
856.193
850.612
845.689
841.515
838.142
835.581
833.803
832.74
832.294
832.356
832.952
834.193
836.169
838.94
842.524
846.899
852.003
857.735
863.967
870.532
877.215
883.695
889.764
895.544
901.011
906.104
910.759
914.914
918.517
921.528
923.918
925.67
926.783
927.274
927.181
926.49
925.167
923.198
920.587
917.35
913.518
909.13
904.237
898.898
893.178
887.134
880.798
874.076
867.077
860.13
853.454
847.217
841.555
836.578
832.369
828.973
826.396
824.608
823.538
823.089
)
;

boundaryField
{
    top
    {
        type            fixedFluxPressure;
        gradient        nonuniform List<scalar> 
102
(
1556.9
1671.69
1876.07
2156.42
2498.45
2888.39
3313.81
3763.97
4230.03
4705.1
5184.36
5665.58
6150.7
6650.73
7150.94
7637.78
8103.45
8542.03
8948.31
9317.36
9644.38
9924.74
10153.9
10327.7
10441.8
10492.5
10475.6
10391.9
10245
10038.6
9776.63
9463.21
9102.9
8700.47
8261.03
7790
7293.51
6779.05
6257.85
5753.04
5255.34
4761.14
4272.48
3794.62
3335.16
2903.84
2512.33
2173.98
1903.3
1714.99
1622.63
1636.89
1755.46
1966.63
2256.4
2609.99
3013.14
3452.89
3918.07
4399.5
4890.17
5385.62
5885.07
6394.94
6915
7425.34
7915.73
8379.04
8809.33
9201.26
9549.82
9850.27
10098.2
10289.5
10420.2
10486.9
10485.8
10418.2
10288.2
10099.6
9856.67
9563.72
9225.29
8846.09
8430.91
7984.75
7512.96
7021.8
6520.06
6024.67
5540.63
5059.69
4581.08
4107.75
3645.05
3200.38
2783.08
2404.33
2076.97
1814.99
1632.64
1543.13
)
;
        value           nonuniform List<scalar> 
102
(
849.099
851.613
856.268
862.928
871.417
881.526
893.031
905.697
919.289
933.573
948.327
963.335
978.395
993.32
1007.91
1021.99
1035.38
1047.92
1059.46
1069.86
1078.99
1086.73
1093
1097.7
1100.76
1102.13
1101.79
1099.75
1096.02
1090.66
1083.74
1075.35
1065.6
1054.6
1042.5
1029.45
1015.63
1001.2
986.383
971.378
956.398
941.662
927.399
913.854
901.274
889.911
880.013
871.813
865.524
861.323
859.338
859.637
862.209
866.969
873.775
882.438
892.742
904.446
917.302
931.058
945.467
960.29
975.297
990.274
1005.01
1019.3
1032.94
1045.75
1057.58
1068.27
1077.68
1085.7
1092.22
1097.16
1100.45
1102.05
1101.94
1100.12
1096.63
1091.52
1084.86
1076.74
1067.27
1056.56
1044.75
1031.97
1018.39
1004.16
989.463
974.484
959.418
944.456
929.803
915.677
902.303
889.916
878.752
869.043
861.012
854.857
850.748
848.807
)
;
    }
    bottom
    {
        type            fixedFluxPressure;
        gradient        nonuniform List<scalar> 
102
(
0
0
0
0
0
0
0
0
0
0
0
0
0
0
0
0
0
0
0
0
0
0
0
0
0
0
0
0
0
0
0
0
0
0
0
0
0
0
0
0
0
0
0
0
0
0
0
0
0
0
0
0
0
0
0
0
0
0
0
0
0
0
0
0
0
0
0
0
0
0
0
0
0
0
0
0
0
0
0
0
0
0
0
0
0
0
0
0
0
0
0
0
0
0
0
0
0
0
0
0
0
-1.62529e-14
)
;
        value           nonuniform List<scalar> 
102
(
-38.9021
-41.9282
-47.604
-55.8902
-66.7458
-80.1356
-96.0286
-114.383
-135.12
-158.103
-183.112
-209.832
-237.827
-266.519
-295.168
-322.879
-348.707
-371.766
-391.3
-406.916
-418.719
-427.086
-432.648
-436.104
-438.046
-438.862
-438.731
-437.643
-435.404
-431.608
-425.65
-416.825
-404.506
-388.329
-368.228
-344.639
-318.358
-290.353
-261.655
-233.196
-205.732
-179.849
-155.982
-134.439
-115.425
-99.0614
-85.4147
-74.5199
-66.4044
-61.0952
-58.6182
-58.9899
-62.2071
-68.2502
-77.0925
-88.707
-103.066
-120.128
-139.815
-161.988
-186.415
-212.757
-240.544
-269.146
-297.759
-325.416
-351.084
-373.831
-392.931
-408.08
-419.442
-427.454
-432.781
-436.121
-438.03
-438.858
-438.749
-437.665
-435.375
-431.434
-425.209
-416.001
-403.232
-386.587
-366.077
-342.216
-315.809
-287.766
-259.025
-230.451
-202.738
-176.427
-151.918
-129.502
-109.374
-91.6541
-76.4091
-63.6756
-53.4849
-45.8739
-40.884
-38.5527
)
;
    }
    frontAndBack
    {
        type            empty;
    }
    left_cyc
    {