/*--------------------------------*- C++ -*----------------------------------*\
| =========                 |                                                 |
| \\      /  F ield         | OpenFOAM: The Open Source CFD Toolbox           |
|  \\    /   O peration     | Version:  2.3.0                                 |
|   \\  /    A nd           | Web:      www.OpenFOAM.org                      |
|    \\/     M anipulation  |                                                 |
\*---------------------------------------------------------------------------*/
FoamFile
{
    version     2.0;
    format      ascii;
    class       volScalarField;
    location    "4000";
    object      p_rgh;
}
// * * * * * * * * * * * * * * * * * * * * * * * * * * * * * * * * * * * * * //

dimensions      [0 2 -2 0 0 0 0];

internalField   nonuniform List<scalar> 
3060
(
-38.887
-42.0334
-47.9257
-56.5071
-67.7131
-81.4849
-97.7729
-116.525
-137.662
-161.05
-186.475
-213.636
-242.115
-271.346
-300.581
-328.877
-355.223
-378.717
-398.602
-414.403
-426.215
-434.442
-439.771
-442.978
-444.72
-445.425
-445.29
-444.303
-442.249
-438.676
-432.911
-424.171
-411.776
-395.339
-374.814
-350.719
-323.851
-295.2
-265.874
-236.849
-208.883
-182.547
-158.258
-136.314
-116.912
-100.173
-86.1665
-74.9457
-66.56
-61.0607
-58.4917
-58.8783
-62.2162
-68.4741
-77.6053
-89.5582
-104.283
-121.727
-141.807
-164.386
-189.242
-216.05
-244.356
-273.542
-302.793
-331.086
-357.318
-380.55
-400.039
-415.395
-426.786
-434.676
-439.794
-442.913
-444.655
-445.407
-445.331
-444.383
-442.309
-438.619
-432.608
-423.503
-410.679
-393.798
-372.908
-348.59
-321.643
-293.006
-263.689
-234.591
-206.408
-179.664
-154.744
-131.926
-111.401
-93.2848
-77.6484
-64.5406
-54.013
-46.1268
-40.9458
-38.5228
-65.3575
-67.975
-72.9086
-80.1692
-89.7759
-101.748
-116.085
-132.748
-151.638
-172.586
-195.35
-219.583
-244.806
-270.385
-295.684
-320.389
-344.353
-366.795
-386.352
-402.002
-413.865
-422.444
-428.382
-432.282
-434.611
-435.654
-435.527
-434.223
-431.609
-427.384
-421.066
-412.042
-399.672
-383.47
-363.433
-340.687
-316.578
-291.821
-266.565
-241.245
-216.568
-193.175
-171.539
-151.995
-134.775
-120.024
-107.812
-98.149
-91.0154
-86.3821
-84.2299
-84.5533
-87.3525
-92.6363
-100.428
-110.755
-123.634
-139.039
-156.883
-176.999
-199.132
-222.912
-247.824
-273.19
-298.341
-322.956
-346.812
-368.99
-388.097
-403.257
-414.7
-422.955
-428.671
-432.436
-434.686
-435.675
-435.5
-434.14
-431.435
-427.055
-420.489
-411.111
-398.305
-381.602
-361.159
-338.198
-314
-289.141
-263.72
-238.167
-213.146
-189.256
-166.937
-146.505
-128.182
-112.119
-98.3968
-87.043
-78.0502
-71.3981
-67.069
-65.0553
-80.3609
-83.1835
-88.4613
-96.1324
-106.103
-118.236
-132.349
-148.222
-165.622
-184.336
-204.18
-225.003
-246.696
-269.205
-292.45
-315.855
-338.143
-358.1
-375.594
-390.918
-403.514
-412.658
-418.962
-423.216
-425.88
-427.14
-427.027
-425.537
-422.623
-418.086
-411.447
-401.913
-388.947
-373.355
-355.642
-335.503
-313.195
-290.048
-267.328
-245.455
-224.487
-204.497
-185.637
-168.1
-152.118
-137.941
-125.814
-115.949
-108.507
-103.598
-101.295
-101.643
-104.631
-110.21
-118.298
-128.771
-141.455
-156.128
-172.54
-190.443
-209.616
-229.873
-251.082
-273.19
-296.104
-319.171
-341.009
-360.49
-377.635
-392.637
-404.733
-413.429
-419.451
-423.532
-426.063
-427.194
-426.947
-425.328
-422.275
-417.545
-410.583
-400.559
-387.142
-371.244
-353.146
-332.52
-309.789
-286.322
-263.254
-240.957
-219.484
-198.904
-179.339
-160.949
-143.926
-128.49
-114.873
-103.287
-93.9053
-86.8508
-82.2082
-80.0335
-61.3159
-64.2835
-69.8112
-77.8064
-88.1407
-100.644
-115.107
-131.287
-148.938
-167.829
-187.775
-208.637
-230.326
-252.762
-275.708
-298.457
-319.986
-339.955
-358.531
-374.714
-387.868
-398.54
-406.164
-411.255
-414.527
-416.151
-416.056
-414.239
-410.761
-405.435
-397.539
-386.653
-373.316
-357.006
-338.464
-318.533
-297.015
-274.416
-251.857
-229.97
-208.943
-188.872
-169.883
-152.157
-135.928
-121.458
-109.012
-98.8287
-91.1036
-85.9839
-83.5738
-83.9379
-87.0635
-92.8752
-101.258
-112.053
-125.052
-140.007
-156.652
-174.728
-194.015
-214.347
-235.609
-257.704
-280.36
-302.778
-323.886
-343.446
-361.543
-377.072
-389.735
-399.91
-407.038
-411.836
-414.878
-416.255
-415.892
-413.836
-410.124
-404.466
-396.025
-384.688
-370.798
-353.855
-334.882
-314.53
-292.604
-269.694
-246.84
-224.591
-203.112
-182.479
-162.794
-144.206
-126.915
-111.159
-97.1848
-85.2282
-75.4892
-68.1267
-63.259
-60.9706
-30.6293
-33.6208
-39.1827
-47.215
-57.588
-70.1427
-84.6944
-101.041
-118.972
-138.287
-158.794
-180.312
-202.652
-225.588
-248.791
-271.754
-293.988
-315.463
-336.153
-354.689
-369.892
-381.85
-390.76
-397.133
-401.35
-403.521
-403.445
-401.122
-396.749
-390.223
-381.185
-369.125
-353.826
-335.175
-314.455
-292.938
-270.625
-247.666
-224.656
-202.1
-180.32
-159.551
-140.003
-121.883
-105.41
-90.809
-78.2998
-68.0849
-60.3383
-55.2008
-52.7789
-53.1454
-56.2848
-62.1152
-70.5212
-81.3532
-94.429
-109.54
-126.465
-144.978
-164.865
-185.919
-207.927
-230.64
-253.695
-276.533
-298.628
-319.965
-340.331
-358.156
-372.583
-383.815
-392.162
-398.089
-401.937
-403.695
-403.165
-400.445
-395.699
-388.695
-379.049
-366.249
-350.166
-330.885
-309.925
-288.273
-265.822
-242.738
-219.564
-196.758
-174.613
-153.341
-133.127
-114.154
-96.6157
-80.7174
-66.6674
-54.6648
-44.888
-37.4887
-32.5887
-30.2806
1.49419
-1.61611
-7.38468
-15.6936
-26.3953
-39.3163
-54.2624
-71.0273
-89.403
-109.189
-130.196
-152.247
-175.159
-198.726
-222.677
-246.641
-270.162
-292.817
-314.205
-333.887
-351.296
-364.949
-374.802
-381.704
-386.597
-389.359
-389.306
-386.449
-381.5
-374.565
-364.692
-350.935
-333.349
-313.441
-291.821
-268.993
-245.377
-221.445
-197.671
-174.445
-152.049
-130.708
-110.63
-92.0226
-75.1021
-60.0924
-47.2155
-36.6805
-28.6736
-23.3512
-20.8365
-21.2176
-24.4753
-30.5118
-39.1952
-50.3607
-63.8152
-79.3453
-96.7275
-115.74
-136.167
-157.803
-180.44
-203.84
-227.7
-251.599
-275.048
-297.605
-318.82
-338.225
-354.939
-367.605
-376.63
-382.96
-387.433
-389.616
-388.89
-385.499
-380.139
-372.55
-361.79
-347.072
-328.933
-308.783
-287.018
-264.102
-240.42
-216.419
-192.534
-169.113
-146.406
-124.61
-103.903
-84.4663
-66.4907
-50.1799
-35.7424
-23.3821
-13.2886
-5.62915
-0.543707
1.8575
34.6398
31.3699
25.3198
16.6284
5.46523
-7.9759
-23.4848
-40.8445
-59.8412
-80.2722
-101.95
-124.701
-148.353
-172.724
-197.592
-222.716
-247.711
-272.14
-295.468
-316.95
-335.711
-350.509
-360.705
-367.414
-371.943
-374.729
-374.717
-371.944
-367.487
-360.858
-350.588
-335.509
-316.403
-294.601
-271.009
-246.387
-221.286
-196.179
-171.42
-147.311
-124.093
-101.978
-81.1667
-61.8669
-44.2983
-28.6902
-15.274
-4.27342
4.1069
9.69019
12.3338
11.9327
8.5098
2.18104
-6.90166
-18.5535
-32.5638
-48.706
-66.7481
-86.4628
-107.634
-130.056
-153.527
-177.831
-202.715
-227.861
-252.882
-277.296
-300.5
-321.701
-339.893
-353.723
-362.87
-368.824
-372.859
-375.037
-374.225
-370.925
-365.917
-358.453
-347.099
-331.152
-311.573
-289.537
-265.859
-241.241
-216.175
-191.094
-166.32
-142.112
-118.675
-96.1865
-74.816
-54.74
-36.15
-19.252
-4.26154
8.6053
19.1417
27.1595
32.4966
35.0225
66.6237
63.1345
56.694
47.47
35.6647
21.5054
5.23282
-12.9109
-32.6938
-53.9035
-76.3517
-99.8737
-124.321
-149.547
-175.384
-201.694
-228.101
-254.157
-279.293
-302.741
-323.521
-340.149
-350.966
-356.851
-360.257
-362.207
-362.27
-360.482
-357.263
-351.398
-340.291
-323.248
-302.078
-278.277
-252.84
-226.55
-199.997
-173.663
-147.849
-122.783
-98.6591
-75.66
-53.975
-33.8114
-15.3984
1.01659
15.1765
26.8272
35.731
41.679
44.5013
44.0726
40.4202
33.6824
24.04
11.7105
-3.06273
-20.0236
-38.9164
-59.4978
-81.5442
-104.854
-129.239
-154.518
-180.489
-206.923
-233.457
-259.589
-284.684
-307.907
-328.176
-343.805
-353.337
-358.278
-361.084
-362.475
-361.848
-359.526
-355.646
-348.715
-336.328
-318.434
-296.843
-272.873
-247.434
-221.244
-194.83
-168.625
-142.913
-117.868
-93.6457
-70.3877
-48.2451
-27.388
-8.01102
9.6677
25.4127
38.981
50.1342
58.6505
64.336
67.0327
96.7067
92.9256
85.9629
76.0243
63.358
48.2399
30.9583
11.7964
-8.98206
-31.1444
-54.4963
-78.8822
-104.18
-130.288
-157.107
-184.549
-212.268
-239.82
-266.617
-291.866
-314.544
-333.264
-346.085
-352.35
-354.765
-355.786
-355.935
-355.205
-352.957
-346.524
-333.283
-314.122
-291.026
-265.389
-238.245
-210.401
-182.465
-154.908
-128.011
-101.926
-76.7963
-52.7733
-30.0334
-8.78905
10.7106
28.1849
43.3342
55.8556
65.4617
71.8982
74.9581
74.493
70.5346
63.2486
52.8553
39.6193
23.8339
5.80285
-14.1776
-35.8342
-58.9269
-83.2528
-108.643
-134.947
-162.018
-189.724
-217.692
-245.423
-272.262
-297.348
-319.573
-337.4
-348.81
-353.807
-355.491
-355.988
-355.607
-354.333
-351.234
-343.413
-328.868
-308.95
-285.488
-259.749
-232.69
-205.047
-177.366
-150.059
-123.412
-97.5027
-72.4307
-48.3007
-25.242
-3.42003
16.9607
35.6588
52.4039
66.9102
78.8909
88.0758
94.2267
97.1504
124.749
120.59
112.946
102.073
88.28
71.9106
53.3187
32.8475
10.8087
-12.5321
-36.966
-62.3426
-88.566
-115.582
-143.362
-171.842
-200.721
-229.582
-257.847
-284.721
-309.168
-329.872
-345.148
-353.673
-356.869
-357.804
-357.997
-357.368
-354.215
-345.396
-329.68
-308.523
-283.632
-256.33
-227.66
-198.426
-169.223
-140.49
-112.494
-85.3202
-59.0586
-33.8308
-9.80577
12.7902
33.6738
52.514
68.9481
82.6043
93.1261
100.198
103.566
103.053
98.6981
90.6984
79.3259
64.9092
47.8114
28.4042
7.04404
-15.9492
-40.3064
-65.8164
-92.3233
-119.714
-147.897
-176.8
-206.065
-235.221
-263.623
-290.409
-314.468
-334.387
-348.384
-355.459
-357.672
-358.006
-357.661
-356.368
-352.088
-341.791
-324.923
-303.098
-277.903
-250.579
-222.092
-193.178
-164.367
-136.037
-108.461
-81.6491
-55.6396
-30.4971
-6.33122
16.6927
38.3503
58.363
76.4092
92.1407
105.204
115.263
122.02
125.238
151.061
146.423
137.917
125.857
110.631
92.6696
72.4139
50.2867
26.6661
1.86495
-23.8815
-50.4209
-77.6789
-105.647
-134.36
-163.772
-193.636
-223.582
-253.063
-281.309
-307.314
-329.829
-347.405
-358.779
-364.308
-366.268
-366.432
-364.681
-359.078
-347.37
-329.354
-306.373
-279.894
-251.169
-221.207
-190.781
-160.447
-130.595
-101.479
-73.1187
-45.559
-18.8972
6.69682
30.9703
53.5895
74.1529
92.2132
107.307
118.987
126.861
130.616
130.045
125.19
116.289
103.676
87.7639
69.006
47.8648
24.7782
0.131947
-25.7605
-52.6684
-80.4422
-109.002
-138.312
-168.321
-198.725
-229.094
-258.819
-287.068
-312.766
-334.601
-351.071
-361.064
-365.407
-366.538
-365.974
-363.319
-356.438
-343.383
-324.373
-300.816
-274.116
-245.462
-215.796
-185.825
-156.046
-126.792
-98.2814
-70.5016
-43.4277
-17.0848
8.43327
32.9525
56.2167
77.8943
97.5937
114.884
129.325
140.493
148.018
151.606
176.182
170.959
161.394
147.874
130.883
110.957
88.6481
64.4782
38.9105
12.3216
-15.0141
-42.9312
-71.3695
-100.357
-129.987
-160.224
-190.893
-221.681
-252.086
-281.385
-308.617
-332.612
-352.082
-365.901
-373.903
-377.304
-377.393
-374.058
-365.891
-351.714
-331.795
-307.309
-279.559
-249.714
-218.73
-187.326
-156.007
-125.1
-94.8147
-65.1379
-36.0752
-7.70759
19.7829
46.1021
70.8474
93.526
113.583
130.441
143.543
152.397
156.623
155.981
150.517
140.511
126.378
108.63
87.8334
64.5644
39.3649
12.7064
-15.0356
-43.5966
-72.8226
-102.657
-133.111
-164.146
-195.525
-226.878
-257.646
-287.047
-314.067
-337.49
-356.007
-368.581
-375.33
-377.669
-376.774
-372.329
-362.88
-347.513
-326.739
-301.778
-273.902
-244.232
-213.667
-182.87
-152.288
-122.194
-92.7408
-63.902
-35.5987
-7.8231
19.3382
45.6915
70.9347
94.6668
116.406
135.62
151.756
164.288
172.754
176.795
200.716
194.802
183.98
168.724
149.629
127.361
102.597
75.9826
48.0818
19.3513
-9.88068
-39.4231
-69.2177
-99.3188
-129.859
-160.83
-192.129
-223.512
-254.532
-284.519
-312.572
-337.599
-358.42
-373.989
-383.852
-388.447
-388.447
-383.769
-373.653
-357.688
-336.386
-310.826
-282.193
-251.571
-219.848
-187.681
-155.514
-123.602
-92.0841
-60.9378
-30.1395
0.233338
29.9723
58.7252
86.0017
111.197
133.629
152.583
167.369
177.384
182.166
181.44
175.256
163.944
148.007
128.077
104.856
79.0542
51.3392
22.2881
-7.64308
-38.14
-69.0305
-100.267
-131.895
-163.888
-196.086
-228.19
-259.7
-289.899
-317.843
-342.408
-362.409
-376.861
-385.485
-388.882
-387.715
-381.821
-370.478
-353.46
-331.43
-305.501
-276.845
-246.512
-215.341
-183.946
-152.716
-121.853
-91.435
-61.4214
-31.6929
-2.22063
26.9046
55.4556
83.0697
109.26
133.437
154.943
173.099
187.252
196.834
201.41
225.24
218.533
206.267
189.014
167.497
142.526
114.927
85.4803
54.8685
23.6417
-7.80349
-39.2345
-70.5818
-101.91
-133.372
-165.001
-196.775
-228.525
-259.853
-290.148
-318.582
-344.141
-365.733
-382.35
-393.357
-398.715
-398.627
-393.039
-381.686
-364.615
-342.485
-316.326
-287.226
-256.181
-223.998
-191.264
-158.364
-125.475
-92.6539
-59.8716
-27.0933
5.59051
37.9292
69.4959
99.693
127.788
152.95
174.311
191.03
202.376
207.795
206.972
199.964
187.153
169.145
146.709
120.698
91.9791
61.3602
29.5421
-2.91914
-35.6432
-68.4236
-101.206
-134.048
-166.949
-199.83
-232.469
-264.422
-295.047
-323.483
-348.697
-369.601
-385.217
-395.049
-399.177
-397.853
-391.041
-378.546
-360.543
-337.813
-311.4
-282.389
-251.754
-220.265
-188.481
-156.735
-125.154
-93.7342
-62.4112
-31.0436
0.403678
31.8213
62.932
93.2985
122.334
149.325
173.475
193.956
209.974
220.837
226.026
250.244
242.654
228.781
209.305
185.092
157.112
126.349
93.7331
60.0742
26.0244
-7.93646
-41.5153
-74.6178
-107.305
-139.71
-171.945
-204.067
-236.002
-267.355
-297.584
-325.955
-351.545
-373.344
-390.394
-401.974
-407.732
-407.564
-401.433
-389.401
-371.812
-349.397
-323.116
-293.965
-262.842
-230.452
-197.297
-163.754
-129.896
-95.6956
-61.1085
-26.1126
9.1698
44.43
79.1509
112.608
143.929
172.127
196.163
215.032
227.857
233.983
233.054
225.13
210.652
190.342
165.121
136.009
104.04
70.1766
35.2533
-0.0520662
-35.2796
-70.1719
-104.648
-138.757
-172.535
-205.988
-239.002
-271.113
-301.799
-330.294
-355.665
-376.909
-393.103
-403.614
-408.189
-406.803
-399.51
-386.455
-368.08
-345.195
-318.784
-289.846
-259.262
-227.706
-195.703
-163.548
-131.276
-98.802
-66.0244
-32.8007
0.892615
34.9143
68.9143
102.371
134.587
164.716
191.81
214.878
232.971
245.262
251.132
276.125
267.579
251.969
230.098
202.987
171.774
137.609
101.574
64.6126
27.4744
-9.26554
-45.2208
-80.2661
-114.437
-147.834
-180.651
-213.007
-244.866
-275.963
-305.831
-333.805
-359.053
-380.648
-397.684
-409.398
-415.275
-415.03
-408.641
-396.355
-378.678
-356.362
-330.305
-301.408
-270.472
-238.119
-204.774
-170.672
-135.838
-100.178
-63.6281
-26.2051
11.9159
50.3563
88.501
125.467
160.253
191.707
218.616
239.799
254.224
261.118
260.073
251.155
234.878
212.092
183.88
151.44
115.98
78.6203
40.3199
1.91707
-36.0477
-73.2509
-109.564
-144.999
-179.638
-213.552
-246.674
-278.707
-309.18
-337.419
-362.59
-383.779
-400.114
-410.898
-415.699
-414.328
-406.893
-393.73
-375.422
-352.783
-326.736
-298.193
-267.949
-236.615
-204.611
-172.137
-139.179
-105.587
-71.2084
-35.9273
0.248982
37.1464
74.2963
111.096
146.741
180.244
210.5
236.351
256.681
270.515
277.125
303.192
293.629
276.196
251.833
221.723
187.169
149.488
109.913
69.5223
29.1924
-10.4195
-48.8834
-85.9995
-121.747
-156.212
-189.645
-222.214
-253.942
-284.652
-313.964
-341.302
-365.927
-387.005
-403.69
-415.223
-421.018
-420.699
-414.248
-402.014
-384.564
-362.638
-337.058
-308.628
-278.042
-245.828
-212.32
-177.655
-141.799
-104.604
-65.9789
-26.0006
15.0843
56.806
98.4435
139.025
177.385
212.204
242.089
265.684
281.792
289.505
288.334
278.361
260.196
234.834
203.527
167.652
128.592
87.6324
45.8905
4.27826
-36.5521
-76.1929
-114.449
-151.277
-186.811
-221.178
-254.372
-286.202
-316.285
-344.045
-368.752
-389.589
-405.744
-416.515
-421.39
-420.089
-412.752
-399.809
-381.899
-359.813
-334.402
-306.484
-276.759
-245.754
-213.799
-181.012
-147.327
-112.546
-76.4512
-38.977
-0.186825
39.6646
80.0819
120.352
159.544
196.533
230.057
258.792
281.454
296.912
304.311
331.707
321.114
301.863
275.037
241.98
204.154
163.027
119.966
76.1717
32.6266
-9.92395
-50.9769
-90.2563
-127.669
-163.297
-197.422
-230.253
-261.863
-292.148
-320.813
-347.377
-371.204
-391.557
-407.666
-418.81
-424.391
-423.996
-417.611
-405.623
-388.605
-367.252
-342.3
-314.445
-284.273
-252.212
-218.506
-183.22
-146.264
-107.455
-66.6722
-24.0673
20.028
65.0491
110.172
154.317
196.181
234.294
267.102
293.081
310.869
319.412
318.112
307.075
287.031
259.128
224.785
185.546
142.953
98.4386
53.2513
8.40621
-35.3426
-77.4961
-117.778
-156.079
-192.584
-227.456
-260.747
-292.348
-321.964
-349.125
-373.209
-393.502
-409.271
-419.846
-424.697
-423.504
-416.423
-403.919
-386.629
-365.296
-340.686
-313.518
-284.391
-253.74
-221.809
-188.655
-154.163
-118.103
-80.1956
-40.4358
1.04391
43.9127
87.6044
131.311
173.991
214.395
251.12
282.691
307.663
324.748
332.951
361.896
350.329
329.373
300.256
264.469
223.615
179.286
132.965
85.9504
39.3183
-6.10223
-49.7268
-91.196
-130.333
-167.217
-202.14
-235.332
-266.904
-296.813
-324.84
-350.6
-373.562
-393.09
-408.504
-419.142
-424.433
-423.957
-417.703
-406.063
-389.578
-368.875
-344.593
-317.319
-287.531
-255.557
-221.564
-185.557
-147.413
-106.931
-63.9666
-18.7572
28.272
76.4603
124.886
172.368
217.489
258.654
294.173
322.37
341.732
351.06
349.638
337.596
315.795
285.53
248.374
206.016
160.135
112.283
63.8201
15.861
-30.7427
-75.397
-117.733
-157.582
-195.152
-230.629
-264.104
-295.531
-324.703
-351.249
-374.657
-394.322
-409.601
-419.883
-424.66
-423.602
-416.867
-404.922
-388.369
-367.88
-344.13
-317.733
-289.184
-258.828
-226.836
-193.21
-157.803
-120.369
-80.6071
-38.5489
5.58873
51.3918
98.2135
145.16
191.095
234.666
274.355
308.556
335.68
354.293
363.259
393.921
381.505
359.079
328.003
289.891
246.456
199.385
150.243
100.402
51.0077
2.96278
-43.0702
-86.6459
-127.497
-165.694
-201.518
-235.196
-266.859
-296.508
-323.992
-349.015
-371.143
-389.845
-404.536
-414.63
-419.599
-419.034
-412.929
-401.66
-385.717
-365.643
-341.979
-315.202
-285.688
-253.679
-219.275
-182.443
-143.047
-100.895
-55.8268
-8.17607
41.5371
92.562
143.893
194.265
242.18
285.95
323.78
353.877
374.597
384.61
383.08
370.165
346.851
314.567
275.012
229.991
181.282
130.529
79.1727
28.4109
-20.8187
-67.8294
-112.155
-153.577
-192.293
-228.486
-262.27
-293.645
-322.475
-348.482
-371.259
-390.309
-405.084
-415.05
-419.74
-418.829
-412.477
-401.13
-385.334
-365.683
-342.751
-317.05
-288.978
-258.796
-226.614
-192.394
-155.978
-117.122
-75.5381
-31.2875
15.322
63.792
113.399
163.177
211.92
258.199
300.412
336.854
365.823
385.756
395.389
427.891
414.825
391.295
358.765
318.94
273.606
224.502
173.236
121.217
69.6355
19.4441
-28.6287
-74.0579
-116.486
-155.965
-192.736
-227.001
-258.89
-288.427
-315.517
-339.933
-361.337
-379.292
-393.307
-402.876
-407.524
-406.864
-400.89
-389.956
-374.49
-354.951
-331.783
-305.362
-275.976
-243.793
-208.869
-171.153
-130.522
-86.8203
-39.8923
9.83273
61.7471
115.025
168.6
221.156
271.149
316.842
356.378
387.888
409.631
420.17
418.555
404.973
380.524
346.742
305.418
258.429
207.61
154.653
101.046
48.0409
-3.36037
-52.3911
-98.4934
-141.399
-181.266
-218.251
-252.462
-283.928
-312.563
-338.167
-360.429
-378.949
-393.277
-402.957
-407.574
-406.817
-400.843
-390.067
-374.974
-356.073
-333.845
-308.702
-280.958
-250.803
-218.302
-183.399
-145.944
-105.72
-62.4828
-16.3243
32.3583
82.9901
134.786
186.731
237.577
285.859
329.928
368.023
398.365
419.295
429.44
463.867
450.43
426.296
393.003
352.302
306.003
255.853
203.452
150.209
97.3175
45.7532
-3.71411
-50.4973
-94.1597
-134.72
-172.351
-207.206
-239.391
-268.934
-295.769
-319.73
-340.549
-357.876
-371.305
-380.404
-384.757
-383.993
-378.114
-367.446
-352.358
-333.23
-310.416
-284.212
-254.83
-222.392
-186.928
-148.396
-106.71
-61.7765
-13.4784
37.6742
91.006
145.643
200.491
254.225
305.299
351.977
392.394
424.651
446.957
457.798
456.133
442.173
417.106
382.538
340.303
292.304
240.378
186.218
131.315
76.9325
24.1082
-26.3373
-73.7718
-117.879
-158.748
-196.48
-231.157
-262.807
-291.376
-316.721
-338.604
-356.714
-370.686
-380.139
-384.713
-384.109
-378.48
-368.209
-353.722
-335.446
-313.777
-289.045
-261.491
-231.256
-198.381
-162.814
-124.433
-83.0763
-38.5695
8.95767
59.0324
111.023
164.106
217.252
269.209
318.516
363.527
402.472
433.541
455.023
465.465
501.871
488.417
464.317
431.137
390.625
344.56
294.642
242.417
189.243
136.275
84.4718
34.6091
-12.6938
-56.946
-98.1156
-136.282
-171.529
-203.913
-233.448
-260.077
-283.665
-304
-320.799
-333.727
-342.419
-346.506
-345.637
-339.821
-329.359
-314.569
-295.763
-273.224
-247.184
-217.807
-185.19
-149.364
-110.318
-68.0232
-22.4709
26.3636
77.9349
131.532
186.27
241.072
294.65
345.509
391.97
432.215
464.375
486.658
497.516
495.844
481.872
456.846
422.396
380.348
332.569
280.847
226.819
171.925
117.398
64.2652
13.364
-34.6308
-79.3615
-120.819
-159.03
-194.023
-225.802
-254.321
-279.467
-301.057
-318.845
-332.536
-341.816
-346.37
-345.913
-340.59
-330.757
-316.785
-299.032
-277.823
-253.425
-226.028
-195.747
-162.619
-126.616
-87.6704
-45.6964
-0.615126
47.4013
97.8312
150.017
203.136
256.18
307.941
357.009
401.795
440.568
471.547
493.012
503.476
541.885
528.845
505.545
473.53
434.487
390.111
341.997
291.586
240.133
188.71
138.212
89.3759
42.8102
-0.981757
-41.9006
-79.9155
-115.022
-147.216
-176.473
-202.726
-225.851
-245.668
-261.94
-274.386
-282.692
-286.532
-285.568
-279.818
-269.566
-255.087
-236.642
-214.464
-188.743
-159.621
-127.193
-91.5123
-52.6182
-10.5559
34.5932
82.6959
133.243
185.53
238.712
291.778
343.53
392.583
437.367
476.173
507.219
528.772
539.301
537.677
524.138
499.945
466.7
426.162
380.103
330.203
277.985
224.786
171.752
119.852
69.8882
22.5307
-21.8346
-63.0834
-101.147
-135.985
-167.559
-195.805
-220.618
-241.842
-259.276
-272.679
-281.783
-286.312
-285.989
-280.952
-271.535
-258.062
-240.839
-220.138
-196.182
-169.136
-139.107
-106.151
-70.284
-31.5057
10.1765
54.7263
101.929
151.257
202.07
253.59
304.88
354.82
402.104
445.249
482.625
512.529
533.295
543.445
583.858
571.724
550.102
520.454
484.351
443.342
398.867
352.209
304.478
256.61
209.389
163.465
119.381
77.5944
38.2846
1.59797
-32.3699
-63.5471
-91.8605
-117.216
-139.485
-158.498
-174.046
-185.884
-193.739
-197.313
-196.284
-190.679
-180.768
-166.795
-148.987
-127.547
-102.645
-74.4205
-42.9834
-8.42798
29.149
69.6216
112.805
158.431
206.04
255.001
304.568
353.851
401.797
447.181
488.602
524.513
553.283
573.298
583.101
581.586
568.989
546.536
515.741
478.234
435.635
389.454
341.048
291.597
242.111
193.438
146.292
101.274
58.7755
19.0423
-17.7579
-51.5093
-82.1182
-109.488
-133.501
-154.012
-170.839
-183.775
-192.588
-197.026
-196.821
-192.1
-183.179
-170.347
-153.872
-133.991
-110.903
-84.7645
-55.6955
-23.7825
10.9045
48.291
88.273
130.691
175.296
221.61
269.063
316.974
364.521
410.723
454.424
494.298
528.871
556.578
575.861
585.314
627.707
617.019
598.031
572.062
540.504
504.709
465.908
425.185
383.458
341.491
299.911
259.229
219.866
182.17
146.395
112.793
81.537
52.7606
26.5819
3.12535
-17.4668
-35.0268
-49.3601
-60.2459
-67.4399
-70.6718
-69.634
-64.3644
-55.1178
-42.118
-25.5689
-5.6557
17.4563
43.6202
72.7018
104.568
139.068
176.005
215.107
255.983
298.271
341.482
385.024
428.182
470.095
509.743
545.943
577.368
602.593
620.186
628.828
627.489
616.393
596.671
569.685
536.877
499.652
459.304
416.973
373.636
330.115
287.089
245.122
204.68
166.119
129.799
95.9713
64.8189
36.4863
11.1055
-11.1867
-30.2388
-45.8803
-57.9213
-66.153
-70.3453
-70.2368
-65.9435
-57.7615
-45.9536
-30.7582
-12.3894
8.96523
33.145
60.0134
89.4493
121.333
155.525
191.836
229.992
269.732
310.689
352.422
394.39
435.935
476.251
514.378
549.194
579.428
603.712
620.66
628.994
673.322
664.642
649.282
628.354
603.013
574.354
543.364
510.883
477.608
444.1
410.795
378.027
346.043
315.017
285.258
257.088
230.728
206.344
184.081
164.08
146.49
131.474
119.212
109.903
103.763
101.03
101.988
106.591
114.605
125.83
140.081
157.188
176.991
199.338
224.083
251.071
280.12
310.997
343.377
376.779
410.999
445.744
480.627
515.144
548.661
580.403
609.445
634.728
655.09
669.341
676.369
675.277
666.263
650.301
628.537
602.162
572.316
540.025
506.175
471.503
436.607
401.959
367.919
334.757
302.746
272.327
243.8
217.384
193.251
171.553
152.439
136.062
122.583
112.178
105.033
101.356
101.391
105.038
112.027
122.126
135.125
150.829
169.063
189.669
212.499
237.414
264.265
292.875
323.004
354.294
386.502
419.437
452.832
486.326
519.453
551.618
582.088
609.982
634.283
653.872
667.596
674.371
720.588
714.473
703.72
689.173
671.685
652.051
630.964
608.999
586.607
564.126
541.789
519.734
498.006
476.559
455.713
435.801
417.037
399.575
383.549
369.084
356.31
345.368
336.406
329.586
325.083
323.094
323.851
327.313
333.282
341.591
352.09
364.634
379.088
395.318
413.195
432.576
453.298
475.145
497.799
520.752
544.003
567.495
591.064
614.437
637.23
658.935
678.921
696.436
710.638
720.644
725.607
724.833
718.476
707.288
692.134
673.894
653.39
631.342
608.35
584.888
561.311
537.861
514.673
491.778
469.317
447.748
427.363
408.362
390.903
375.124
361.156
349.132
339.191
331.477
326.145
323.368
323.352
326.018
331.143
338.538
348.031
359.466
372.694
387.579
403.992
421.807
440.888
461.067
482.107
503.625
525.443
547.584
569.977
592.463
614.782
636.567
657.335
676.482
693.284
706.926
716.55
721.331
769.328
766.297
761.064
754.135
746.005
737.115
727.831
718.429
709.104
699.967
691.054
682.32
673.626
664.706
655.814
647.207
639.017
631.326
624.201
617.706
611.91
606.891
602.735
599.54
597.414
596.482
596.902
598.639
601.564
605.567
610.556
616.445
623.156
630.616
638.757
647.506
656.779
666.45
676.301
685.895
695.452
705.133
714.987
724.964
734.932
744.67
753.866
762.121
768.965
773.883
776.365
775.973
772.809
767.336
760.074
751.529
742.155
732.329
722.337
712.379
702.563
692.913
683.353
673.682
663.871
654.298
645.156
636.561
628.592
621.321
614.817
609.155
604.415
600.684
598.058
596.65
596.6
597.856
600.272
603.728
608.118
613.348
619.333
625.999
633.278
641.106
649.414
658.11
667.037
675.879
684.573
693.35
702.323
711.518
720.878
730.271
739.484
748.214
756.077
762.613
767.321
769.702
819.577
820.076
821.142
822.879
825.36
828.622
832.656
837.418
842.826
848.77
855.11
861.671
868.218
874.372
880.198
885.74
890.957
895.792
900.185
904.085
907.448
910.245
912.456
914.073
915.103
915.568
915.516
914.933
913.783
912.052
909.74
906.86
903.438
899.512
895.132
890.354
885.242
879.847
874.175
868.045
861.819
855.777
850.113
844.976
840.482
836.71
833.701
831.456
829.93
829.042
828.681
828.73
829.216
830.261
831.968
834.41
837.619
841.585
846.255
851.54
857.316
863.423
869.646
875.664
881.272
886.601
891.634
896.315
900.582
904.381
907.665
910.399
912.56
914.139
915.138
915.578
915.501
914.892
913.71
911.938
909.573
906.626
903.119
899.086
894.572
889.632
884.324
878.705
872.801
866.514
859.943
853.424
847.174
841.358
836.109
831.531
827.695
824.638
822.356
820.803
819.896
819.527
)
;

boundaryField
{
    top
    {
        type            fixedFluxPressure;
        gradient        nonuniform List<scalar> 
102
(
1547.9
1664.29
1871.34
2155.15
2501.18
2895.47
3325.42
3780.2
4250.91
4730.61
5214.48
5700.37
6190.38
6695.95
7201.72
7694
8164.93
8608.55
9019.59
9393.05
9724.07
10007.9
10240
10416
10531.7
10583
10565.9
10481
10332.1
10123
9857.56
9540.19
9175.42
8768.13
8323.46
7846.93
7344.7
6824.38
6297.33
5787.23
5284.52
4785.38
4291.79
3808.99
3344.65
2908.58
2512.57
2170.16
1896.05
1705.24
1611.6
1626.11
1746.36
1960.36
2253.78
2611.61
3019.36
3463.93
3934.03
4420.4
4916.02
5416.42
5920.94
6436.27
6962.19
7478.36
7974.41
8443.14
8878.55
9275.22
9628.08
9932.32
10183.4
10377.2
10509.7
10577.4
10576.2
10507.7
10375.9
10184.9
9938.83
9642.21
9299.65
8915.91
8495.88
8044.61
7567.49
7070.85
6563.56
6062.8
5573.93
5088.33
4605.1
4127.14
3659.81
3210.55
2788.76
2405.77
2074.57
1809.35
1624.63
1533.9
)
;
        value           nonuniform List<scalar> 
102
(
845.375
847.813
852.33
858.797
867.045
876.878
888.078
900.419
913.673
927.612
942.016
956.675
971.388
985.969
1000.22
1013.97
1027.04
1039.26
1050.51
1060.63
1069.51
1077.04
1083.12
1087.67
1090.63
1091.95
1091.61
1089.61
1085.98
1080.77
1074.03
1065.86
1056.36
1045.64
1033.85
1021.13
1007.65
993.584
979.128
964.496
949.892
935.531
921.64
908.457
896.224
885.185
875.576
867.624
861.53
857.462
855.541
855.831
858.322
862.933
869.531
877.936
887.941
899.315
911.82
925.211
939.247
953.694
968.326
982.932
997.306
1011.24
1024.54
1037.03
1048.55
1058.96
1068.13
1075.93
1082.28
1087.09
1090.3
1091.86
1091.77
1090.02
1086.64
1081.68
1075.22
1067.33
1058.11
1047.68
1036.17
1023.71
1010.45
996.55
982.191
967.558
952.84
938.227
923.924
910.142
897.104
885.038
874.173
864.733
856.931
850.958
846.973
845.092
)
;
    }
    bottom
    {
        type            fixedFluxPressure;
        gradient        nonuniform List<scalar> 
102
(
0
0
0
0
0
0
0
0
0
0
0
0
0
0
0
0
0
0
0
0
0
0
0
0
0
0
0
0
0
0
0
0
0
0
0
0
0
0
0
0
0
0
0
0
0
0
0
0
0
0
0
0
0
0
0
0
0
0
0
0
0
0
0
0
0
0
0
0
0
0
0
0
0
0
0
0
0
0
0
0
0
0
0
0
0
0
0
0
0
0
0
0
0
0
0
0
0
0
0
0
0
-1.63469e-14
)
;
        value           nonuniform List<scalar> 
102
(
-38.887
-42.0334
-47.9257
-56.5071
-67.7131
-81.4849
-97.7729
-116.525
-137.662
-161.05
-186.475
-213.636
-242.115
-271.346
-300.581
-328.877
-355.223
-378.717
-398.602
-414.403
-426.215
-434.442
-439.771
-442.978
-444.72
-445.425
-445.29
-444.303
-442.249
-438.676
-432.911
-424.171
-411.776
-395.339
-374.814
-350.719
-323.851
-295.2
-265.874
-236.849
-208.883
-182.547
-158.258
-136.314
-116.912
-100.173
-86.1665
-74.9457
-66.56
-61.0607
-58.4917
-58.8783
-62.2162
-68.4741
-77.6053
-89.5582
-104.283
-121.727
-141.807
-164.386
-189.242
-216.05
-244.356
-273.542
-302.793
-331.086
-357.318
-380.55
-400.039
-415.395
-426.786
-434.676
-439.794
-442.913
-444.655
-445.407
-445.331
-444.383
-442.309
-438.619
-432.608
-423.503
-410.679
-393.798
-372.908
-348.59
-321.643
-293.006
-263.689
-234.591
-206.408
-179.664
-154.744
-131.926
-111.401
-93.2848
-77.6484
-64.5406
-54.013
-46.1268
-40.9458
-38.5228
)
;
    }
    frontAndBack
    {
        type            empty;
    }
    left_cyc
    {