/*--------------------------------*- C++ -*----------------------------------*\
| =========                 |                                                 |
| \\      /  F ield         | OpenFOAM: The Open Source CFD Toolbox           |
|  \\    /   O peration     | Version:  2.3.0                                 |
|   \\  /    A nd           | Web:      www.OpenFOAM.org                      |
|    \\/     M anipulation  |                                                 |
\*---------------------------------------------------------------------------*/
FoamFile
{
    version     2.0;
    format      ascii;
    class       surfaceScalarField;
    location    "4000";
    object      phi;
}
// * * * * * * * * * * * * * * * * * * * * * * * * * * * * * * * * * * * * * //

dimensions      [0 3 -1 0 0 0 0];

internalField   nonuniform List<scalar> 
1464
(
0.307678
0.00725081
0.305164
0.00251398
0.30952
-0.00435549
0.322645
-0.0131252
0.344967
-0.0223227
0.37354
-0.0285727
0.399724
-0.0261839
0.407653
-0.00792939
0.376256
0.0313972
0.283619
0.0926374
0.119482
0.164137
-0.0893099
0.208792
-0.261957
0.172647
-0.36361
0.101653
-0.401738
0.038128
-0.398059
-0.00367919
-0.374421
-0.0236377
-0.347427
-0.0269946
-0.326383
-0.0210437
-0.314645
-0.0117381
-0.311972
-0.00267254
-0.316523
0.00455022
-0.326165
0.0096424
-0.339425
0.0132595
-0.355577
0.016152
-0.374564
0.0189878
-0.396956
0.0223915
-0.423878
0.0269216
-0.456346
0.0324684
-0.492869
0.0365233
-0.522923
0.0300533
-0.51829
-0.00463205
-0.451471
-0.0668199
-0.339966
-0.111505
-0.196634
-0.143332
-0.0424494
-0.154185
0.10911
-0.15156
0.253703
-0.144592
0.377418
-0.123716
0.471096
-0.093678
0.523641
-0.0525442
0.521572
0.00206845
0.488923
0.0326493
0.451178
0.0377454
0.418423
0.0327544
0.392044
0.0263788
0.370771
0.0212738
0.353119
0.0176513
0.338114
0.0150053
0.325339
0.0127752
0.0104097
0.537268
0.00437384
0.545094
-0.00531186
0.559445
-0.0187075
0.580961
-0.0346404
0.608189
-0.0495508
0.635892
-0.0562754
0.653084
-0.0433761
0.641479
0.00367571
0.574872
0.0980041
0.424912
0.242597
0.177085
0.411964
-0.130181
0.516058
-0.389456
0.431922
-0.551545
0.263742
-0.627137
0.11372
-0.644519
0.0137026
-0.630816
-0.0373412
-0.605268
-0.0525423
-0.579562
-0.0467497
-0.55935
-0.0319501
-0.546283
-0.0157398
-0.539759
-0.00197359
-0.538044
0.00792739
-0.538834
0.0140495
-0.539733
0.0170515
-0.538277
0.0175318
-0.531751
0.0158652
-0.517011
0.0121812
-0.490378
0.00583545
-0.44788
-0.00597452
-0.385889
-0.0319378
-0.303685
-0.0868362
-0.213133
-0.157372
-0.133641
-0.190996
-0.070676
-0.206297
-0.0112866
-0.213574
0.0494913
-0.212338
0.109111
-0.204212
0.175288
-0.189893
0.252183
-0.170573
0.333004
-0.133365
0.403855
-0.0687828
0.456545
-0.0200401
0.492541
0.00174843
0.515357
0.0099388
0.528406
0.0133301
0.534625
0.0150543
0.536417
0.0158591
0.535791
0.0156318
0.53453
0.0140358
0.0105493
0.564133
-0.00724115
0.578438
-0.0196167
0.595826
-0.0360949
0.615673
-0.0544882
0.635652
-0.069529
0.65072
-0.0713442
0.651879
-0.0445347
0.624874
0.0306804
0.549016
0.173862
0.400518
0.391095
0.165909
0.646573
-0.120156
0.802123
-0.364723
0.676489
-0.523732
0.422751
-0.607294
0.197282
-0.639279
0.0456872
-0.641062
-0.035558
-0.627754
-0.0658503
-0.608881
-0.065623
-0.589796
-0.0510347
-0.572974
-0.0325618
-0.55902
-0.015928
-0.547355
-0.00373718
-0.53637
0.00306478
-0.523659
0.00433974
-0.506139
1.21293e-05
-0.480148
-0.010126
-0.441758
-0.0262087
-0.387974
-0.0479482
-0.319246
-0.0747023
-0.244392
-0.106792
-0.182457
-0.148771
-0.13967
-0.200158
-0.096499
-0.234168
-0.0509953
-0.251801
-0.004838
-0.259731
0.041949
-0.259125
0.0884493
-0.250712
0.133731
-0.235175
0.174309
-0.211151
0.213289
-0.172345
0.267283
-0.122777
0.332285
-0.0850423
0.393211
-0.0591772
0.442117
-0.0389678
0.477967
-0.0225197
0.502893
-0.00987134
0.520024
-0.00127236
0.532364
0.00329158
0.542485
0.00391468
0.000516287
0.506297
-0.0199036
0.519385
-0.0327049
0.532382
-0.049092
0.543946
-0.0660527
0.551644
-0.0772261
0.55148
-0.071181
0.537252
-0.0303059
0.49978
0.0681516
0.42674
0.246903
0.303866
0.513968
0.123819
0.82662
-0.0886825
1.01462
-0.27491
0.862716
-0.404584
0.552425
-0.482788
0.275487
-0.52374
0.0866391
-0.540127
-0.0191715
-0.541552
-0.0644253
-0.534557
-0.072618
-0.523354
-0.0622372
-0.510483
-0.0454333
-0.497259
-0.0291515
-0.484024
-0.0169728
-0.470225
-0.010734
-0.454323
-0.0115621
-0.433809
-0.0205016
-0.405352
-0.0385833
-0.365331
-0.0662299
-0.311406
-0.101873
-0.245529
-0.140579
-0.178385
-0.173936
-0.127876
-0.19928
-0.0966572
-0.231377
-0.06733
-0.263495
-0.0353409
-0.28379
-0.000989187
-0.294083
0.034248
-0.294362
0.0684344
-0.284898
0.0998164
-0.266557
0.127953
-0.239287
0.157023
-0.201416
0.201884
-0.167637
0.261023
-0.144181
0.3199
-0.118055
0.369023
-0.088091
0.406269
-0.0597649
0.433286
-0.0368884
0.452988
-0.0209745
0.468211
-0.0119317
0.481228
-0.00910203
-0.0118899
0.406687
-0.0282507
0.413541
-0.0395587
0.417905
-0.0534566
0.418317
-0.0664642
0.412823
-0.0717319
0.398857
-0.057215
0.373027
-0.00447602
0.331185
0.109993
0.268755
0.309334
0.181617
0.601106
0.070575
0.937663
-0.050993
1.13619
-0.163628
0.975351
-0.253121
0.641919
-0.317675
0.340041
-0.361096
0.13006
-0.387927
0.0076599
-0.402369
-0.0499837
-0.407953
-0.0670332
-0.40737
-0.0628206
-0.402639
-0.050164
-0.395213
-0.0365782
-0.385969
-0.0262161
-0.375135
-0.0215683
-0.362105
-0.0245922
-0.345301
-0.0373055
-0.32219
-0.0616944
-0.289746
-0.0986744
-0.24579
-0.145829
-0.191595
-0.194774
-0.134741
-0.23079
-0.0909495
-0.243072
-0.0645037
-0.257823
-0.0431382
-0.28486
-0.0214466
-0.305482
0.00171782
-0.317247
0.0254815
-0.318126
0.0484228
-0.30784
0.0696616
-0.287796
0.0904501
-0.260075
0.116139
-0.227104
0.158058
-0.209556
0.210277
-0.1964
0.259323
-0.167101
0.299162
-0.127931
0.328906
-0.0895088
0.350394
-0.0583762
0.36619
-0.0367709
0.378541
-0.0242821
0.388993
-0.0195542
-0.0212367
0.274138
-0.0300246
0.272986
-0.0384062
0.267902
-0.0483726
0.257806
-0.0563687
0.241621
-0.0555467
0.218328
-0.0339217
0.187142
0.02671
0.148184
0.148951
0.103108
0.354409
0.0565694
0.647645
0.016705
0.977527
-0.0143925
1.16729
-0.0516977
1.01266
-0.0964066
0.686627
-0.140642
0.384276
-0.179169
0.168587
-0.209935
0.0384265
-0.232645
-0.0272742
-0.248039
-0.0516386
-0.257182
-0.0536781
-0.261211
-0.0461345
-0.261236
-0.0365538
-0.258231
-0.0292208
-0.252892
-0.0269071
-0.245397
-0.0320877
-0.235151
-0.0475516
-0.220658
-0.0761868
-0.199757
-0.119576
-0.170546
-0.17504
-0.133294
-0.232027
-0.0922374
-0.271846
-0.0576822
-0.277627
-0.0365895
-0.278916
-0.0230704
-0.298379
-0.0104677
-0.318084
0.00298984
-0.330705
0.0168158
-0.331952
0.0300321
-0.321056
0.0423646
-0.300129
0.0559908
-0.273702
0.0781923
-0.249306
0.114498
-0.245862
0.154025
-0.235928
0.188285
-0.20136
0.214584
-0.154229
0.233343
-0.108267
0.24645
-0.0714839
0.255868
-0.046189
0.262991
-0.0314047
0.268486
-0.0250492
-0.025115
0.115892
-0.0252166
0.107485
-0.029999
0.0947924
-0.0356805
0.0773483
-0.0389246
0.0549781
-0.0331765
0.0280053
-0.00694893
-0.00208972
0.056805
-0.0318832
0.178744
-0.0545874
0.377113
-0.0586519
0.651709
-0.0316451
0.95052
0.0178819
1.11776
0.0503377
0.9802
0.0513416
0.685624
0.0319198
0.403698
0.00424268
0.196264
-0.024233
0.0669022
-0.049708
-0.00179927
-0.0704891
-0.0308575
-0.0862246
-0.0379427
-0.0971566
-0.0352024
-0.10384
-0.0298706
-0.107035
-0.0260252
-0.107583
-0.0263594
-0.106157
-0.0335134
-0.102958
-0.0507506
-0.0975057
-0.0816395
-0.0887318
-0.12835
-0.0755403
-0.188231
-0.0579233
-0.249644
-0.0377418
-0.292027
-0.0199787
-0.29539
-0.0103078
-0.288587
-0.00587625
-0.302811
-0.00169739
-0.322263
0.00322311
-0.335625
0.00842483
-0.337153
0.0131586
-0.32579
0.017276
-0.304246
0.0223259
-0.278752
0.0344902
-0.26147
0.0563331
-0.267705
0.0777023
-0.257297
0.0946638
-0.218322
0.106535
-0.166101
0.114093
-0.115825
0.118682
-0.0760732
0.121404
-0.0489107
0.12278
-0.0327816
0.12273
-0.0249986
-0.0230848
-0.0534681
-0.0157187
-0.0665779
-0.0168892
-0.0836518
-0.0186066
-0.104673
-0.0179032
-0.129103
-0.00874701
-0.155378
0.0193261
-0.179968
0.0813954
-0.196377
0.195153
-0.193494
0.374231
-0.155722
0.613937
-0.0706822
0.865481
0.0444607
1.00262
0.136265
0.888396
0.18098
0.640909
0.188831
0.395846
0.175761
0.209335
0.153576
0.0890864
0.129338
0.0224392
0.106919
-0.00843879
0.0880212
-0.0190448
0.073163
-0.0203442
0.0622484
-0.018956
0.0547517
-0.0185285
0.049819
-0.0214267
0.0464803
-0.0301747
0.0439483
-0.0482185
0.0417607
-0.0794519
0.0396557
-0.126245
0.0372928
-0.185868
0.0340103
-0.246361
0.0294215
-0.287439
0.0232858
-0.289254
0.015766
-0.281067
0.0101089
-0.297154
0.0060573
-0.318212
0.00298359
-0.332552
0.0002076
-0.334377
-0.00294304
-0.322639
-0.0069533
-0.300236
-0.0120068
-0.273698
-0.0161796
-0.257298
-0.0172216
-0.266663
-0.0184858
-0.256033
-0.0201709
-0.216637
-0.0221067
-0.164165
-0.0243353
-0.113596
-0.0268025
-0.0736061
-0.0295547
-0.0461585
-0.0328873
-0.0294489
-0.0374066
-0.0204794
-0.0165213
-0.215197
-0.00450703
-0.229881
-0.00220587
-0.248248
-0.000239157
-0.269965
0.00381337
-0.293785
0.0150733
-0.316772
0.0423127
-0.333309
0.0979325
-0.333961
0.195805
-0.304774
0.345044
-0.229325
0.538488
-0.0985108
0.734666
0.0649293
0.83918
0.202496
0.750829
0.285407
0.557998
0.320377
0.360877
0.323779
0.205933
0.310104
0.102762
0.289378
0.0431648
0.267633
0.0133058
0.248064
0.000524433
0.232013
-0.00429306
0.21973
-0.00667311
0.210758
-0.00955652
0.204081
-0.0147494
0.198345
-0.0244391
0.19218
-0.0420536
0.184206
-0.0714771
0.172766
-0.114805
0.155894
-0.168997
0.131832
-0.222299
0.101175
-0.256781
0.0686912
-0.25677
0.0422521
-0.254628
0.0265171
-0.281419
0.0141639
-0.305858
0.00285501
-0.321243
-0.00816504
-0.323357
-0.0193656
-0.311439
-0.0315704
-0.288031
-0.0469466
-0.258322
-0.0700071
-0.234237
-0.0977881
-0.238882
-0.123554
-0.230267
-0.143985
-0.196205
-0.158655
-0.149496
-0.169048
-0.103203
-0.176735
-0.0659197
-0.18302
-0.0398732
-0.188965
-0.0235038
-0.195584
-0.0138607
-0.00811918
-0.349897
0.00581896
-0.363641
0.0115375
-0.380953
0.0170732
-0.401196
0.0240567
-0.422408
0.0362848
-0.440395
0.0602999
-0.44768
0.105218
-0.432706
0.18083
-0.380378
0.292717
-0.275748
0.433858
-0.114164
0.573082
0.0790433
0.645972
0.246538
0.583335
0.358147
0.446388
0.416264
0.302759
0.43546
0.186737
0.431131
0.107091
0.415332
0.0589637
0.395982
0.032656
0.377605
0.0189017
0.362361
0.0109507
0.350869
0.00481877
0.342695
-0.001383
0.336498
-0.00855202
0.330306
-0.0182475
0.322015
-0.0337628
0.309326
-0.0587878
0.289401
-0.0948798
0.259136
-0.138732
0.215846
-0.179009
0.161053
-0.201989
0.107804
-0.203521
0.0701286
-0.216953
0.0453976
-0.256688
0.0241798
-0.284641
0.0034405
-0.300504
-0.0171156
-0.302801
-0.037401
-0.291153
-0.0579386
-0.267493
-0.0819068
-0.234354
-0.12028
-0.195864
-0.170579
-0.188583
-0.218166
-0.182679
-0.255293
-0.159079
-0.281326
-0.123462
-0.298864
-0.0856654
-0.310605
-0.0541781
-0.318888
-0.0315909
-0.325493
-0.0168986
-0.331885
-0.00746841
-0.000433095
-0.437588
0.0140292
-0.448788
0.0227372
-0.463041
0.0313268
-0.479545
0.0405602
-0.495973
0.0527132
-0.507484
0.0718107
-0.505708
0.103442
-0.478391
0.153513
-0.410825
0.225151
-0.290474
0.313507
-0.116469
0.399076
0.0859836
0.44352
0.264718
0.4046
0.390984
0.320122
0.463701
0.230042
0.494829
0.155609
0.499181
0.102739
0.489391
0.0687535
0.474239
0.0478086
0.458917
0.0342236
0.445991
0.0238762
0.436332
0.014478
0.429619
0.0053298
0.424306
-0.00323888
0.417868
-0.0118094
0.40759
-0.0234845
0.390458
-0.0416557
0.362926
-0.0673486
0.321736
-0.0975416
0.264156
-0.12143
0.193275
-0.131107
0.135763
-0.146009
0.100341
-0.181531
0.0685345
-0.224881
0.0371445
-0.253251
0.00506872
-0.268428
-0.0270518
-0.270681
-0.0583047
-0.2599
-0.0882182
-0.23758
-0.119034
-0.203538
-0.158027
-0.156871
-0.215171
-0.131439
-0.277283
-0.120567
-0.326666
-0.109696
-0.361945
-0.0881838
-0.38587
-0.0617395
-0.40132
-0.0387284
-0.411217
-0.0216944
-0.417942
-0.0101737
-0.423364
-0.00204607
0.00558075
-0.458519
0.0201328
-0.46597
0.0301887
-0.474796
0.0401524
-0.484401
0.0501658
-0.492862
0.0611737
-0.495931
0.0748803
-0.486121
0.0936313
-0.452502
0.119894
-0.382314
0.154963
-0.265493
0.196686
-0.102882
0.236466
0.0834839
0.257154
0.249594
0.23849
0.370921
0.198795
0.445047
0.155916
0.481438
0.119218
0.492861
0.0913162
0.490513
0.0711006
0.48221
0.0561124
0.47248
0.0439535
0.463467
0.0328895
0.455891
0.022054
0.449616
0.0116045
0.443505
0.00287221
0.435406
-0.00371119
0.422713
-0.0107912
0.402027
-0.0209692
0.369701
-0.0350226
0.324399
-0.0522399
0.269064
-0.0660945
0.213648
-0.0756915
0.1707
-0.103061
0.135963
-0.146794
0.0961872
-0.185106
0.0528508
-0.209914
0.007725
-0.223302
-0.0376435
-0.225312
-0.0816205
-0.215923
-0.122855
-0.196345
-0.159928
-0.166466
-0.191444
-0.125354
-0.234435
-0.0884485
-0.286603
-0.0683987
-0.335437
-0.0608611
-0.375039
-0.048582
-0.403558
-0.0332201
-0.422182
-0.0201049
-0.433886
-0.00999041
-0.441526
-0.00253322
-0.447157
0.0035851
0.0108384
-0.40811
0.0235619
-0.409753
0.0318314
-0.409561
0.0399607
-0.407478
0.048082
-0.402735
0.0564311
-0.393104
0.0652492
-0.374213
0.0747399
-0.339311
0.0849927
-0.280192
0.095844
-0.190128
0.106622
-0.0694452
0.115783
0.0675337
0.120175
0.190278
0.115746
0.282856
0.106217
0.343904
0.0948682
0.379754
0.0833682
0.398617
0.0724537
0.407402
0.0623155
0.410647
0.0528671
0.410704
0.0438961
0.408444
0.0351501
0.404088
0.0264094
0.39795
0.0177427
0.390748
0.0100744
0.38301
0.00402705
0.373733
-0.00151401
0.360172
-0.00740831
0.339042
-0.0138929
0.308421
-0.0216185
0.274556
-0.03223
0.246398
-0.047533
0.215662
-0.0723252
0.174765
-0.105896
0.124473
-0.134814
0.0689946
-0.154436
0.0109309
-0.165238
-0.047445
-0.166936
-0.103856
-0.159513
-0.156264
-0.143936
-0.202074
-0.120656
-0.237217
-0.0902115
-0.264667
-0.060998
-0.291509
-0.0415572
-0.322595
-0.029775
-0.350048
-0.0211289
-0.369059
-0.0142089
-0.381131
-0.00803326
-0.388887
-0.002234
-0.394675
0.00325434
-0.399947
0.00885757
0.0155722
-0.367757
0.0151819
-0.355039
0.019113
-0.338152
0.0230742
-0.317153
0.0270826
-0.291935
0.0312135
-0.262202
0.0355167
-0.227441
0.0399781
-0.186926
0.0444777
-0.139826
0.0487441
-0.0855423
0.0523385
-0.024499
0.0547399
0.0401246
0.0555513
0.101233
0.0546375
0.155337
0.0521125
0.201852
0.0483536
0.241338
0.043882
0.274642
0.0391502
0.302513
0.0344446
0.325484
0.0298961
0.343857
0.0255228
0.357733
0.021274
0.367056
0.0170863
0.371759
0.01304
0.372292
0.00954124
0.369622
0.00669735
0.364141
0.00396618
0.355603
0.00113038
0.343627
-0.00191678
0.327782
-0.00577417
0.30762
-0.0120672
0.282867
-0.0227806
0.249833
-0.0392907
0.203562
-0.0596257
0.146186
-0.0774375
0.0817755
-0.0900258
0.013672
-0.0971346
-0.0548849
-0.0983795
-0.120676
-0.0937212
-0.180778
-0.0838345
-0.232135
-0.0692993
-0.271409
-0.0509367
-0.29942
-0.0329875
-0.321273
-0.0197046
-0.339615
-0.0114322
-0.354316
-0.00642789
-0.365476
-0.00304894
-0.373381
-0.000128653
-0.378354
0.00273862
-0.380675
0.00557601
-0.380208
0.00839049
0.011501
-0.356587
-0.342623
-0.32454
-0.302238
-0.275547
-0.244237
-0.208084
-0.166974
-0.121073
-0.0710302
-0.0181259
0.0357468
0.0884073
0.137929
0.182988
0.222898
0.257478
0.286845
0.311239
0.330908
0.34605
0.356806
0.363405
0.366447
0.366644
0.364265
0.35944
0.352303
0.342559
0.328689
0.307466
0.274193
0.225611
0.163609
0.0923745
0.0161202
-0.0608118
-0.1341
-0.199889
-0.254609
-0.295316
-0.32258
-0.340408
-0.352803
-0.362043
-0.36902
-0.373773
-0.376083
-0.375779
-0.372722
)
;

boundaryField
{
    top
    {
        type            calculated;
        value           nonuniform List<scalar> 
51
(
0.00524798
0.00514875
0.00499059
0.00478092
0.00452208
0.00420729
0.00382524
0.00336773
0.00284227
0.00229612
0.00183565
0.00167861
0.00197697
0.00259068
0.00329475
0.00397219
0.00457002
0.0050778
0.00550226
0.00585282
0.00613202
0.00633089
0.00644134
0.00649882
0.00650019
0.00634572
0.00595516
0.00522044
0.00396906
0.00180358
-0.00155787
-0.00601831
-0.0110432
-0.0154354
-0.0187914
-0.0208804
-0.0214475
-0.0204326
-0.0180463
-0.0145788
-0.0102301
-0.00572278
-0.0018765
0.000962075
0.0028129
0.00392763
0.00462456
0.0050488
0.00527181
0.0053331
0.00530047
)
;
    }
    bottom
    {
        type            calculated;
        value           uniform 0;
    }
    frontAndBack
    {
        type            empty;
        value           nonuniform 0();
    }
    left_cyc
    {
        type            cyclic;
        value           nonuniform List<scalar> 
15
(
-0.314929
-0.534391
-0.552518
-0.493634
-0.39834
-0.272364
-0.1207
0.0439702
0.203986
0.339571
0.429378
0.452415
0.404681
0.376137
0.366521
)
;
    }
    right_cyc
    {
        type            cyclic;
        value           nonuniform List<scalar> 
15
(
0.314929
0.534391
0.552518
0.493634
0.39834
0.272364
0.1207
-0.0439702
-0.203986
-0.339571
-0.429378
-0.452415
-0.404681
-0.376137
-0.366521
)
;
    }
}


// ************************************************************************* //
