/*--------------------------------*- C++ -*----------------------------------*\
| =========                 |                                                 |
| \\      /  F ield         | OpenFOAM: The Open Source CFD Toolbox           |
|  \\    /   O peration     | Version:  2.3.0                                 |
|   \\  /    A nd           | Web:      www.OpenFOAM.org                      |
|    \\/     M anipulation  |                                                 |
\*---------------------------------------------------------------------------*/
FoamFile
{
    version     2.0;
    format      ascii;
    class       surfaceScalarField;
    location    "4000";
    object      phi;
}
// * * * * * * * * * * * * * * * * * * * * * * * * * * * * * * * * * * * * * //

dimensions      [0 3 -1 0 0 0 0];

internalField   nonuniform List<scalar> 
5988
(
3.50923e-08
-3.10416e-08
6.56113e-08
-3.05189e-08
9.51666e-08
-2.95554e-08
1.2335e-07
-2.81832e-08
1.49794e-07
-2.64444e-08
1.74184e-07
-2.43894e-08
1.96256e-07
-2.20727e-08
2.15801e-07
-1.95446e-08
2.32638e-07
-1.68368e-08
2.46581e-07
-1.39439e-08
2.5739e-07
-1.0809e-08
2.64713e-07
-7.32284e-09
2.68054e-07
-3.3412e-09
2.66784e-07
1.2705e-09
2.60232e-07
6.55219e-09
2.47916e-07
1.2316e-08
2.2981e-07
1.81053e-08
2.06488e-07
2.33225e-08
1.79217e-07
2.72712e-08
1.498e-07
2.94168e-08
1.20081e-07
2.97194e-08
9.16713e-08
2.84093e-08
6.55491e-08
2.61223e-08
4.18771e-08
2.3672e-08
2.01464e-08
2.17307e-08
-5.36521e-10
2.06829e-08
-2.12124e-08
2.06759e-08
-4.29167e-08
2.17043e-08
-6.65253e-08
2.36086e-08
-9.25147e-08
2.59893e-08
-1.20673e-07
2.81583e-08
-1.49966e-07
2.92926e-08
-1.78725e-07
2.87597e-08
-2.05062e-07
2.63367e-08
-2.27159e-07
2.20973e-08
-2.43749e-07
1.65895e-08
-2.54245e-07
1.04963e-08
-2.58705e-07
4.4603e-09
-2.57675e-07
-1.02997e-09
-2.51863e-07
-5.81222e-09
-2.41916e-07
-9.94713e-09
-2.28343e-07
-1.35735e-08
-2.1152e-07
-1.68221e-08
-1.91741e-07
-1.97795e-08
-1.69262e-07
-2.24787e-08
-1.44355e-07
-2.4907e-08
-1.1733e-07
-2.70253e-08
-8.85452e-08
-2.87846e-08
-5.84074e-08
-3.01378e-08
-2.73626e-08
-3.10448e-08
4.11239e-09
-3.1475e-08
3.55223e-08
-3.141e-08
6.63754e-08
-3.08531e-08
9.62018e-08
-2.98264e-08
1.24565e-07
-2.83632e-08
1.51071e-07
-2.65056e-08
1.75372e-07
-2.43019e-08
1.97172e-07
-2.18e-08
2.16206e-07
-1.90339e-08
2.32212e-07
-1.6006e-08
2.44882e-07
-1.26697e-08
2.53807e-07
-8.92486e-09
2.58441e-07
-4.63383e-09
2.58108e-07
3.33152e-10
2.52111e-07
5.99652e-09
2.40005e-07
1.21061e-08
2.21896e-07
1.81087e-08
1.98545e-07
2.33518e-08
1.71389e-07
2.71556e-08
1.42313e-07
2.90757e-08
1.13175e-07
2.9138e-08
8.55141e-08
2.76611e-08
6.01564e-08
2.53577e-08
3.7111e-08
2.30455e-08
1.57689e-08
2.13421e-08
-4.80625e-09
2.05751e-08
-2.5665e-08
2.08587e-08
-4.78263e-08
2.21613e-08
-7.21103e-08
2.4284e-08
-9.88768e-08
2.67665e-08
-1.27752e-07
2.88754e-08
-1.57565e-07
2.98131e-08
-1.86608e-07
2.90425e-08
-2.13012e-07
2.64041e-08
-2.3507e-07
2.20586e-08
-2.51698e-07
1.66275e-08
-2.62487e-07
1.07893e-08
-2.67605e-07
5.11778e-09
-2.6761e-07
4.59537e-12
-2.63176e-07
-4.43395e-09
-2.54904e-07
-8.27212e-09
-2.4325e-07
-1.16538e-08
-2.28533e-07
-1.4717e-08
-2.10974e-07
-1.75584e-08
-1.90754e-07
-2.02206e-08
-1.68056e-07
-2.26978e-08
-1.43104e-07
-2.49516e-08
-1.16175e-07
-2.69295e-08
-8.75975e-08
-2.85774e-08
-5.77505e-08
-2.9847e-08
-2.70519e-08
-3.06986e-08
-3.11026e-08
5.34605e-08
-7.83428e-08
1.00409e-07
-7.74673e-08
1.46703e-07
-7.585e-08
1.92064e-07
-7.35436e-08
2.36226e-07
-7.06066e-08
2.78921e-07
-6.7084e-08
3.19835e-07
-6.2987e-08
3.58569e-07
-5.82781e-08
3.94597e-07
-5.2865e-08
4.27253e-07
-4.66e-08
4.55722e-07
-3.92776e-08
4.79028e-07
-3.06295e-08
4.96015e-07
-2.03281e-08
5.05307e-07
-8.02141e-09
5.05343e-07
6.51621e-09
4.9461e-07
2.30492e-08
4.72013e-07
4.07022e-08
4.37261e-07
5.80744e-08
3.91454e-07
7.30781e-08
3.37356e-07
8.35144e-08
2.78505e-07
8.85709e-08
2.18459e-07
8.84549e-08
1.59923e-07
8.46587e-08
1.04147e-07
7.94483e-08
5.0979e-08
7.48983e-08
-6.47425e-10
7.23093e-08
-5.21985e-08
7.22269e-08
-1.05127e-07
7.46333e-08
-1.60462e-07
7.89435e-08
-2.18286e-07
8.38132e-08
-2.77255e-07
8.71274e-08
-3.3457e-07
8.6607e-08
-3.86592e-07
8.07825e-08
-4.29749e-07
6.94931e-08
-4.61354e-07
5.37027e-08
-4.80453e-07
3.56884e-08
-4.8746e-07
1.75027e-08
-4.83579e-07
5.80144e-10
-4.70423e-07
-1.41859e-08
-4.49607e-07
-2.66286e-08
-4.22541e-07
-3.70128e-08
-3.90429e-07
-4.56855e-08
-3.54289e-07
-5.29623e-08
-3.14968e-07
-5.91004e-08
-2.7315e-07
-6.42967e-08
-2.29368e-07
-6.86894e-08
-1.84035e-07
-7.23584e-08
-1.37491e-07
-7.53286e-08
-9.00457e-08
-7.75829e-08
-4.20079e-08
-7.90827e-08
6.30708e-09
-7.979e-08
5.45806e-08
-7.96834e-08
1.02494e-07
-7.87665e-08
1.49734e-07
-7.70659e-08
1.95992e-07
-7.46217e-08
2.40955e-07
-7.14691e-08
2.8427e-07
-6.76159e-08
3.25493e-07
-6.30239e-08
3.64058e-07
-5.7598e-08
3.99236e-07
-5.11847e-08
4.30138e-07
-4.35716e-08
4.55699e-07
-3.44853e-08
4.74662e-07
-2.35975e-08
4.8556e-07
-1.05647e-08
4.86749e-07
4.80756e-09
4.76684e-07
2.21709e-08
4.54323e-07
4.04695e-08
4.19546e-07
5.81295e-08
3.73761e-07
7.29404e-08
3.20002e-07
8.28351e-08
2.61925e-07
8.72145e-08
2.03035e-07
8.65511e-08
1.45792e-07
8.26003e-08
9.11401e-08
7.76979e-08
3.86944e-08
7.37878e-08
-1.27288e-08
7.19983e-08
-6.46244e-08
7.27544e-08
-1.18397e-07
7.59336e-08
-1.74928e-07
8.08155e-08
-2.34042e-07
8.58801e-08
-2.94085e-07
8.89183e-08
-3.52056e-07
8.77845e-08
-4.04325e-07
8.13111e-08
-4.47461e-07
6.954e-08
-4.79087e-07
5.36849e-08
-4.98526e-07
3.60671e-08
-5.06327e-07
1.85901e-08
-5.03725e-07
2.51597e-09
-4.92284e-07
-1.14364e-08
-4.7353e-07
-2.31882e-08
-4.48777e-07
-3.30252e-08
-4.19132e-07
-4.12989e-08
-3.85526e-07
-4.8323e-08
-3.48735e-07
-5.43489e-08
-3.09389e-07
-5.95667e-08
-2.67977e-07
-6.41097e-08
-2.24873e-07
-6.80557e-08
-1.80374e-07
-7.14286e-08
-1.34745e-07
-7.42068e-08
-8.82522e-08
-7.63396e-08
-4.11825e-08
-7.77683e-08
-7.84444e-08
5.9902e-08
-1.31342e-07
1.12428e-07
-1.29994e-07
1.64066e-07
-1.27488e-07
2.14398e-07
-1.23875e-07
2.63001e-07
-1.1921e-07
3.09441e-07
-1.13524e-07
3.53263e-07
-1.06809e-07
3.93993e-07
-9.90074e-08
4.31136e-07
-9.00085e-08
4.64197e-07
-7.96607e-08
4.92696e-07
-6.77764e-08
5.16203e-07
-5.41373e-08
5.34376e-07
-3.85008e-08
5.46959e-07
-2.06044e-08
5.53598e-07
-1.22231e-10
5.53238e-07
2.34086e-08
5.43583e-07
5.03571e-08
5.21606e-07
8.00518e-08
4.84822e-07
1.09862e-07
4.32713e-07
1.35623e-07
3.67931e-07
1.53353e-07
2.95589e-07
1.60798e-07
2.20502e-07
1.59745e-07
1.45704e-07
1.54247e-07
7.22632e-08
1.48339e-07
-1.13415e-10
1.44686e-07
-7.23256e-08
1.44439e-07
-1.45259e-07
1.47566e-07
-2.19159e-07
1.52844e-07
-2.92878e-07
1.57533e-07
-3.63291e-07
1.5754e-07
-4.25517e-07
1.48833e-07
-4.74525e-07
1.2979e-07
-5.07896e-07
1.02864e-07
-5.26372e-07
7.21786e-08
-5.32611e-07
4.19281e-08
-5.29706e-07
1.45969e-08
-5.19834e-07
-9.29106e-09
-5.03886e-07
-3.01341e-08
-4.82169e-07
-4.83462e-08
-4.5498e-07
-6.4201e-08
-4.22735e-07
-7.79306e-08
-3.85938e-07
-8.976e-08
-3.45139e-07
-9.9899e-08
-3.00905e-07
-1.08531e-07
-2.5379e-07
-1.15804e-07
-2.0433e-07
-1.21819e-07
-1.53033e-07
-1.26625e-07
-1.00391e-07
-1.30225e-07
-4.68771e-08
-1.32596e-07
7.04051e-09
-1.33708e-07
6.08976e-08
-1.33541e-07
1.14229e-07
-1.32098e-07
1.66567e-07
-1.29404e-07
2.17433e-07
-1.25487e-07
2.66331e-07
-1.20368e-07
3.12748e-07
-1.14032e-07
3.56141e-07
-1.06417e-07
3.95951e-07
-9.74082e-08
4.31614e-07
-8.68479e-08
4.62587e-07
-7.45445e-08
4.88385e-07
-6.02833e-08
5.08624e-07
-4.38372e-08
5.2303e-07
-2.49704e-08
5.31218e-07
-3.38019e-09
5.32006e-07
2.13833e-08
5.22882e-07
4.9593e-08
5.00727e-07
8.02841e-08
4.63241e-07
1.10427e-07
4.10412e-07
1.35664e-07
3.45529e-07
1.52098e-07
2.73837e-07
1.58243e-07
1.99852e-07
1.56586e-07
1.26163e-07
1.51387e-07
5.34791e-08
1.46471e-07
-1.86797e-08
1.44157e-07
-9.12605e-08
1.45335e-07
-1.65069e-07
1.49742e-07
-2.40119e-07
1.55866e-07
-3.14867e-07
1.60628e-07
-3.85753e-07
1.59804e-07
-4.47676e-07
1.49707e-07
-4.95908e-07
1.29543e-07
-5.28681e-07
1.02312e-07
-5.47162e-07
7.2166e-08
-5.54113e-07
4.3018e-08
-5.52482e-07
1.69596e-08
-5.44242e-07
-5.72454e-09
-5.30184e-07
-2.54942e-08
-5.10597e-07
-4.27754e-08
-4.85754e-07
-5.78681e-08
-4.56024e-07
-7.10284e-08
-4.21854e-07
-8.24931e-08
-3.8373e-07
-9.24732e-08
-3.42149e-07
-1.01148e-07
-2.976e-07
-1.08658e-07
-2.50555e-07
-1.15101e-07
-2.0146e-07
-1.20523e-07
-1.50749e-07
-1.24919e-07
-9.88396e-08
-1.28249e-07
-4.615e-08
-1.30458e-07
-1.31498e-07
6.2594e-08
-1.8672e-07
1.17363e-07
-1.84763e-07
1.70987e-07
-1.81112e-07
2.22935e-07
-1.75824e-07
2.72682e-07
-1.68957e-07
3.1971e-07
-1.60552e-07
3.63517e-07
-1.50616e-07
4.03623e-07
-1.39113e-07
4.39578e-07
-1.25964e-07
4.70974e-07
-1.11057e-07
4.97449e-07
-9.42514e-08
5.18698e-07
-7.53859e-08
5.34469e-07
-5.42721e-08
5.4454e-07
-3.0675e-08
5.48667e-07
-4.24951e-09
5.46576e-07
2.5499e-08
5.37983e-07
5.89502e-08
5.2224e-07
9.57955e-08
4.97176e-07
1.34926e-07
4.58671e-07
1.74128e-07
4.03704e-07
2.0832e-07
3.33619e-07
2.30882e-07
2.53991e-07
2.39373e-07
1.70276e-07
2.37961e-07
8.54964e-08
2.33119e-07
7.31477e-10
2.29451e-07
-8.37887e-08
2.28959e-07
-1.67824e-07
2.31601e-07
-2.50259e-07
2.35279e-07
-3.28023e-07
2.35297e-07
-3.95655e-07
2.25172e-07
-4.47772e-07
2.00951e-07
-4.83364e-07
1.65382e-07
-5.05671e-07
1.2517e-07
-5.18718e-07
8.52266e-08
-5.24481e-07
4.76909e-08
-5.23534e-07
1.36499e-08
-5.16165e-07
-1.66601e-08
-5.02655e-07
-4.36445e-08
-4.83258e-07
-6.77431e-08
-4.58228e-07
-8.92304e-08
-4.27868e-07
-1.08291e-07
-3.92546e-07
-1.25081e-07
-3.52702e-07
-1.39743e-07
-3.08828e-07
-1.52405e-07
-2.61463e-07
-1.6317e-07
-2.11174e-07
-1.72107e-07
-1.58552e-07
-1.79247e-07
-1.04193e-07
-1.84584e-07
-4.8702e-08
-1.88088e-07
7.31715e-09
-1.89727e-07
6.32571e-08
-1.8948e-07
1.18511e-07
-1.87352e-07
1.72475e-07
-1.83367e-07
2.24546e-07
-1.77559e-07
2.74129e-07
-1.69951e-07
3.20638e-07
-1.60541e-07
3.63512e-07
-1.4929e-07
4.02223e-07
-1.36119e-07
4.36291e-07
-1.20916e-07
4.65295e-07
-1.03549e-07
4.88884e-07
-8.38719e-08
5.06771e-07
-6.17245e-08
5.18708e-07
-3.69069e-08
5.24432e-07
-9.10403e-09
5.2366e-07
2.21553e-08
5.16084e-07
5.71681e-08
5.00903e-07
9.54654e-08
4.75569e-07
1.3576e-07
4.35853e-07
1.7538e-07
3.79379e-07
2.08572e-07
3.08497e-07
2.29125e-07
2.29073e-07
2.36009e-07
1.46022e-07
2.34438e-07
6.18059e-08
2.30688e-07
-2.27873e-08
2.2875e-07
-1.07597e-07
2.30145e-07
-1.92263e-07
2.34408e-07
-2.75308e-07
2.38911e-07
-3.53055e-07
2.38375e-07
-4.19626e-07
2.26375e-07
-4.70225e-07
2.00306e-07
-5.04818e-07
1.64136e-07
-5.27113e-07
1.24607e-07
-5.40872e-07
8.59256e-08
-5.4774e-07
4.98856e-08
-5.48187e-07
1.74068e-08
-5.42489e-07
-1.1423e-08
-5.30914e-07
-3.7069e-08
-5.13696e-07
-5.99929e-08
-4.91062e-07
-8.05022e-08
-4.63275e-07
-9.88152e-08
-4.30656e-07
-1.15112e-07
-3.9358e-07
-1.2955e-07
-3.52467e-07
-1.42261e-07
-3.07775e-07
-1.5335e-07
-2.5999e-07
-1.62886e-07
-2.0962e-07
-1.70893e-07
-1.57185e-07
-1.77354e-07
-1.03211e-07
-1.82222e-07
-4.82323e-08
-1.85437e-07
-1.86946e-07
6.30854e-08
-2.4253e-07
1.18188e-07
-2.39865e-07
1.71964e-07
-2.34888e-07
2.23808e-07
-2.27668e-07
2.73134e-07
-2.18282e-07
3.1938e-07
-2.06799e-07
3.62024e-07
-1.93261e-07
4.00587e-07
-1.77675e-07
4.34637e-07
-1.60015e-07
4.63798e-07
-1.40218e-07
4.87742e-07
-1.18195e-07
5.06185e-07
-9.38294e-08
5.18885e-07
-6.69723e-08
5.25637e-07
-3.74264e-08
5.26309e-07
-4.92168e-09
5.20943e-07
3.08648e-08
5.09768e-07
7.01257e-08
4.92904e-07
1.12659e-07
4.69947e-07
1.57882e-07
4.3942e-07
2.04655e-07
3.97536e-07
2.50204e-07
3.39475e-07
2.88943e-07
2.654e-07
3.13449e-07
1.81098e-07
3.22263e-07
9.21216e-08
3.22096e-07
1.58914e-09
3.19983e-07
-8.86462e-08
3.19195e-07
-1.76731e-07
3.19686e-07
-2.59546e-07
3.18094e-07
-3.31584e-07
3.07335e-07
-3.87301e-07
2.80888e-07
-4.26878e-07
2.40528e-07
-4.55201e-07
1.93705e-07
-4.75885e-07
1.45854e-07
-4.90294e-07
9.96353e-08
-4.98758e-07
5.61547e-08
-5.01115e-07
1.60072e-08
-4.97155e-07
-2.06204e-08
-4.86881e-07
-5.39181e-08
-4.70466e-07
-8.41583e-08
-4.48153e-07
-1.11543e-07
-4.20233e-07
-1.36211e-07
-3.87051e-07
-1.58264e-07
-3.4901e-07
-1.77784e-07
-3.0658e-07
-1.94835e-07
-2.60289e-07
-2.0946e-07
-2.10722e-07
-2.21675e-07
-1.58506e-07
-2.31463e-07
-1.04301e-07
-2.38788e-07
-4.87898e-08
-2.43599e-07
7.3324e-09
-2.45849e-07
6.33628e-08
-2.45511e-07
1.186e-07
-2.4259e-07
1.72351e-07
-2.37118e-07
2.23939e-07
-2.29146e-07
2.72711e-07
-2.18723e-07
3.1805e-07
-2.0588e-07
3.59385e-07
-1.90625e-07
3.96202e-07
-1.72936e-07
4.28049e-07
-1.52764e-07
4.54539e-07
-1.30039e-07
4.75341e-07
-1.04674e-07
4.90178e-07
-7.65612e-08
4.98818e-07
-4.55475e-08
5.01124e-07
-1.14091e-08
4.9715e-07
2.61293e-08
4.87134e-07
6.71835e-08
4.71151e-07
1.11449e-07
4.48673e-07
1.58239e-07
4.17885e-07
2.06168e-07
3.74481e-07
2.51977e-07
3.14244e-07
2.89361e-07
2.38755e-07
3.11498e-07
1.54137e-07
3.19055e-07
6.52676e-08
3.19558e-07
-2.5205e-08
3.19223e-07
-1.15537e-07
3.20477e-07
-2.03683e-07
3.22554e-07
-2.85956e-07
3.21184e-07
-3.56274e-07
3.08693e-07
-4.09859e-07
2.79961e-07
-4.48263e-07
2.3871e-07
-4.76571e-07
1.92444e-07
-4.97859e-07
1.45895e-07
-5.13231e-07
1.01298e-07
-5.2292e-07
5.95741e-08
-5.26732e-07
2.1219e-08
-5.24473e-07
-1.36818e-08
-5.16157e-07
-4.53852e-08
-5.01941e-07
-7.4209e-08
-4.82042e-07
-1.00401e-07
-4.56712e-07
-1.24145e-07
-4.26245e-07
-1.45579e-07
-3.90982e-07
-1.64813e-07
-3.51314e-07
-1.81929e-07
-3.07685e-07
-1.9698e-07
-2.60585e-07
-2.09986e-07
-2.10549e-07
-2.20929e-07
-1.58145e-07
-2.29758e-07
-1.03965e-07
-2.36402e-07
-4.86178e-08
-2.40784e-07
-2.42838e-07
6.18517e-08
-2.97248e-07
1.15795e-07
-2.93809e-07
1.6829e-07
-2.87384e-07
2.18686e-07
-2.78063e-07
2.66361e-07
-2.65956e-07
3.10733e-07
-2.51171e-07
3.51273e-07
-2.338e-07
3.87506e-07
-2.13909e-07
4.19021e-07
-1.9153e-07
4.45466e-07
-1.66663e-07
4.66545e-07
-1.39273e-07
4.8201e-07
-1.09295e-07
4.91662e-07
-7.66245e-08
4.95358e-07
-4.11223e-08
4.93049e-07
-2.61295e-09
4.84843e-07
3.90709e-08
4.71009e-07
8.39599e-08
4.51866e-07
1.31803e-07
4.27679e-07
1.8207e-07
3.98393e-07
2.3394e-07
3.62639e-07
2.85959e-07
3.16556e-07
3.35025e-07
2.55085e-07
3.7492e-07
1.78402e-07
3.98946e-07
9.22623e-08
4.08236e-07
2.26396e-09
4.09982e-07
-8.7418e-08
4.08877e-07
-1.72625e-07
4.04893e-07
-2.47826e-07
3.93296e-07
-3.07498e-07
3.67007e-07
-3.51772e-07
3.25163e-07
-3.85755e-07
2.74511e-07
-4.1316e-07
2.2111e-07
-4.35236e-07
1.67931e-07
-4.5199e-07
1.16389e-07
-4.63143e-07
6.73071e-08
-4.68369e-07
2.12332e-08
-4.67418e-07
-2.15715e-08
-4.6022e-07
-6.11159e-08
-4.46865e-07
-9.75135e-08
-4.27537e-07
-1.30871e-07
-4.02489e-07
-1.6126e-07
-3.72029e-07
-1.88724e-07
-3.36534e-07
-2.13279e-07
-2.96451e-07
-2.34918e-07
-2.52299e-07
-2.53613e-07
-2.04664e-07
-2.6931e-07
-1.54192e-07
-2.81936e-07
-1.01576e-07
-2.91404e-07
-4.7546e-08
-2.97629e-07
7.14729e-09
-3.00542e-07
6.1741e-08
-3.00105e-07
1.15474e-07
-2.96323e-07
1.676e-07
-2.89244e-07
2.17397e-07
-2.78944e-07
2.64184e-07
-2.6551e-07
3.0733e-07
-2.49025e-07
3.46263e-07
-2.29559e-07
3.80486e-07
-2.07159e-07
4.09569e-07
-1.81847e-07
4.33154e-07
-1.53624e-07
4.50947e-07
-1.22467e-07
4.62712e-07
-8.83267e-08
4.68286e-07
-5.1121e-08
4.67613e-07
-1.07362e-08
4.60813e-07
3.29291e-08
4.48171e-07
7.98259e-08
4.30007e-07
1.29612e-07
4.0657e-07
1.81676e-07
3.77653e-07
2.35084e-07
3.41461e-07
2.88169e-07
2.93586e-07
3.37236e-07
2.29577e-07
3.75507e-07
1.51145e-07
3.97487e-07
6.43114e-08
4.06391e-07
-2.58301e-08
4.09364e-07
-1.15261e-07
4.09908e-07
-1.99554e-07
4.06847e-07
-2.72703e-07
3.94332e-07
-3.29879e-07
3.65869e-07
-3.72746e-07
3.22828e-07
-4.06558e-07
2.72522e-07
-4.34461e-07
2.20347e-07
-4.57354e-07
1.68788e-07
-4.75145e-07
1.19089e-07
-4.87546e-07
7.19755e-08
-4.94239e-07
2.79116e-08
-4.94988e-07
-1.29324e-08
-4.89732e-07
-5.06409e-08
-4.78551e-07
-8.53905e-08
-4.61604e-07
-1.17349e-07
-4.39103e-07
-1.46646e-07
-4.11308e-07
-1.73374e-07
-3.78529e-07
-1.97592e-07
-3.41133e-07
-2.19325e-07
-2.99548e-07
-2.38565e-07
-2.54263e-07
-2.55271e-07
-2.05823e-07
-2.69369e-07
-1.54819e-07
-2.80761e-07
-1.01883e-07
-2.89338e-07
-4.7673e-08
-2.94994e-07
-2.97645e-07
5.92044e-08
-3.49622e-07
1.10767e-07
-3.45371e-07
1.60814e-07
-3.37431e-07
2.08671e-07
-3.2592e-07
2.53703e-07
-3.10988e-07
2.95325e-07
-2.92793e-07
3.33012e-07
-2.71488e-07
3.66307e-07
-2.47203e-07
3.94819e-07
-2.20042e-07
4.18224e-07
-1.90068e-07
4.36262e-07
-1.57311e-07
4.48727e-07
-1.2176e-07
4.55474e-07
-8.33709e-08
4.56424e-07
-4.20723e-08
4.51596e-07
2.2144e-09
4.4114e-07
4.9527e-08
4.25331e-07
9.97689e-08
4.04509e-07
1.52625e-07
3.79029e-07
2.0755e-07
3.49199e-07
2.6377e-07
3.1498e-07
3.20179e-07
2.74972e-07
3.75033e-07
2.25212e-07
4.2468e-07
1.61486e-07
4.62672e-07
8.52575e-08
4.84465e-07
2.67301e-09
4.92566e-07
-7.96073e-08
4.91157e-07
-1.54969e-07
4.80254e-07
-2.17444e-07
4.55771e-07
-2.65839e-07
4.15402e-07
-3.0446e-07
3.63783e-07
-3.37163e-07
3.07214e-07
-3.65244e-07
2.49191e-07
-3.88702e-07
1.9139e-07
-4.07216e-07
1.34903e-07
-4.20426e-07
8.05171e-08
-4.27992e-07
2.87993e-08
-4.29656e-07
-1.99084e-08
-4.25298e-07
-6.54732e-08
-4.1494e-07
-1.07872e-07
-3.98702e-07
-1.47108e-07
-3.76785e-07
-1.83177e-07
-3.4946e-07
-2.16049e-07
-3.1707e-07
-2.45668e-07
-2.80038e-07
-2.71951e-07
-2.38862e-07
-2.94788e-07
-1.9412e-07
-3.14052e-07
-1.46458e-07
-3.29598e-07
-9.65797e-08
-3.41282e-07
-4.52337e-08
-3.48975e-07
6.80132e-09
-3.52577e-07
5.87328e-08
-3.52036e-07
1.0977e-07
-3.4736e-07
1.59141e-07
-3.38615e-07
2.06108e-07
-3.2591e-07
2.49979e-07
-3.09381e-07
2.90127e-07
-2.89173e-07
3.25995e-07
-2.65427e-07
3.57102e-07
-2.38266e-07
3.83048e-07
-2.07793e-07
4.03508e-07
-1.74084e-07
4.18229e-07
-1.37189e-07
4.27032e-07
-9.71292e-08
4.29817e-07
-5.39064e-08
4.26599e-07
-7.51765e-09
4.17532e-07
4.19952e-08
4.02907e-07
9.44518e-08
3.8307e-07
1.49449e-07
3.58381e-07
2.06365e-07
3.2912e-07
2.64345e-07
2.95094e-07
3.22196e-07
2.544e-07
3.77929e-07
2.02611e-07
4.27297e-07
1.3639e-07
4.63709e-07
5.85734e-08
4.84207e-07
-2.4417e-08
4.92355e-07
-1.06003e-07
4.91495e-07
-1.79469e-07
4.80312e-07
-2.39416e-07
4.54279e-07
-2.86133e-07
4.12586e-07
-3.24357e-07
3.61053e-07
-3.57386e-07
3.05551e-07
-3.86102e-07
2.49063e-07
-4.10404e-07
1.9309e-07
-4.29956e-07
1.38641e-07
-4.44404e-07
8.64233e-08
-4.53417e-07
3.69254e-08
-4.5675e-07
-9.59997e-09
-4.54288e-07
-5.31024e-08
-4.46043e-07
-9.36362e-08
-4.32111e-07
-1.31281e-07
-4.12654e-07
-1.66102e-07
-3.87892e-07
-1.98136e-07
-3.58102e-07
-2.27382e-07
-3.23624e-07
-2.53803e-07
-2.84866e-07
-2.77323e-07
-2.42303e-07
-2.97833e-07
-1.96478e-07
-3.15194e-07
-1.47988e-07
-3.29251e-07
-9.748e-08
-3.39846e-07
-4.5638e-08
-3.46836e-07
-3.50114e-07
5.54115e-08
-3.9864e-07
1.03604e-07
-3.93563e-07
1.5026e-07
-3.84087e-07
1.94701e-07
-3.70362e-07
2.36295e-07
-3.52582e-07
2.74468e-07
-3.30966e-07
3.08713e-07
-3.05732e-07
3.38596e-07
-2.77086e-07
3.63756e-07
-2.45201e-07
3.83904e-07
-2.10217e-07
3.98822e-07
-1.72228e-07
4.08351e-07
-1.3129e-07
4.12403e-07
-8.74223e-08
4.10958e-07
-4.06275e-08
4.04088e-07
9.08428e-09
3.91969e-07
6.16457e-08
3.74879e-07
1.1686e-07
3.53159e-07
1.74345e-07
3.27187e-07
2.33521e-07
2.97348e-07
2.93609e-07
2.63929e-07
3.53597e-07
2.26817e-07
4.12145e-07
1.84477e-07
4.67019e-07
1.33388e-07
5.13761e-07
7.16121e-08
5.4624e-07
2.82027e-09
5.61358e-07
-6.57128e-08
5.5969e-07
-1.26793e-07
5.41335e-07
-1.76957e-07
5.05935e-07
-2.18278e-07
4.56723e-07
-2.54236e-07
3.9974e-07
-2.8628e-07
3.39258e-07
-3.14486e-07
2.77397e-07
-3.3855e-07
2.15454e-07
-3.58083e-07
1.54437e-07
-3.72705e-07
9.51389e-08
-3.82077e-07
3.81707e-08
-3.85936e-07
-1.60495e-08
-3.84132e-07
-6.72765e-08
-3.76631e-07
-1.15373e-07
-3.63492e-07
-1.60247e-07
-3.44861e-07
-2.01808e-07
-3.20962e-07
-2.39948e-07
-2.921e-07
-2.7453e-07
-2.58662e-07
-3.05389e-07
-2.21119e-07
-3.32331e-07
-1.80027e-07
-3.55143e-07
-1.36017e-07
-3.73608e-07
-8.97837e-08
-3.87515e-07
-4.20749e-08
-3.96684e-07
6.32785e-09
-4.0098e-07
5.46262e-08
-4.00334e-07
1.02025e-07
-3.94758e-07
1.47748e-07
-3.84339e-07
1.91063e-07
-3.69225e-07
2.31287e-07
-3.49606e-07
2.6781e-07
-3.25696e-07
3.00097e-07
-2.97714e-07
3.27699e-07
-2.65868e-07
3.5025e-07
-2.30344e-07
3.67468e-07
-1.91302e-07
3.79149e-07
-1.48869e-07
3.85167e-07
-1.03148e-07
3.85487e-07
-5.42262e-08
3.80173e-07
-2.20323e-09
3.69404e-07
5.27636e-08
3.53468e-07
1.10388e-07
3.32716e-07
1.70201e-07
3.07536e-07
2.31545e-07
2.78307e-07
2.93574e-07
2.45282e-07
3.55221e-07
2.08155e-07
4.15056e-07
1.64912e-07
4.7054e-07
1.11904e-07
5.16717e-07
4.83248e-08
5.47786e-07
-2.10319e-08
5.61712e-07
-8.8626e-08
5.59089e-07
-1.4774e-07
5.39426e-07
-1.9619e-07
5.02729e-07
-2.36891e-07
4.53287e-07
-2.72977e-07
3.97139e-07
-3.05481e-07
3.38055e-07
-3.34348e-07
2.7793e-07
-3.5925e-07
2.17993e-07
-3.79801e-07
1.59191e-07
-3.95629e-07
1.02251e-07
-4.06405e-07
4.77011e-08
-4.11875e-07
-4.12981e-09
-4.11892e-07
-5.30855e-08
-4.0641e-07
-9.91185e-08
-3.95466e-07
-1.42224e-07
-3.7917e-07
-1.82398e-07
-3.57693e-07
-2.19613e-07
-3.31274e-07
-2.53801e-07
-3.00218e-07
-2.84858e-07
-2.64906e-07
-3.12635e-07
-2.25792e-07
-3.36948e-07
-1.83399e-07
-3.57587e-07
-1.38319e-07
-3.74332e-07
-9.11959e-08
-3.86969e-07
-4.27192e-08
-3.95313e-07
-3.99227e-07
5.06909e-08
-4.4348e-07
9.47152e-08
-4.37588e-07
1.37222e-07
-4.26593e-07
1.77545e-07
-4.10685e-07
2.15071e-07
-3.90108e-07
2.4925e-07
-3.65145e-07
2.79602e-07
-3.36085e-07
3.05726e-07
-3.0321e-07
3.27299e-07
-2.66774e-07
3.44074e-07
-2.26991e-07
3.55875e-07
-1.8403e-07
3.62599e-07
-1.38013e-07
3.6421e-07
-8.90327e-08
3.60744e-07
-3.71614e-08
3.52319e-07
1.75095e-08
3.39139e-07
7.48256e-08
3.2149e-07
1.34509e-07
2.99717e-07
1.96117e-07
2.7421e-07
2.59028e-07
2.45386e-07
3.22433e-07
2.13662e-07
3.85321e-07
1.79372e-07
4.46435e-07
1.42395e-07
5.03996e-07
1.01382e-07
5.54774e-07
5.44601e-08
5.93162e-07
2.75101e-09
6.13067e-07
-4.87746e-08
6.11216e-07
-9.52209e-08
5.87781e-07
-1.3559e-07
5.46304e-07
-1.71775e-07
4.92908e-07
-2.05069e-07
4.33035e-07
-2.35556e-07
3.69745e-07
-2.62885e-07
3.04726e-07
-2.86634e-07
2.39203e-07
-3.06382e-07
1.74184e-07
-3.21739e-07
1.10496e-07
-3.32364e-07
4.87953e-08
-3.37983e-07
-1.043e-08
-3.38416e-07
-6.68437e-08
-3.33576e-07
-1.20213e-07
-3.23468e-07
-1.70355e-07
-3.08182e-07
-2.17094e-07
-2.8789e-07
-2.6024e-07
-2.62851e-07
-2.9957e-07
-2.33409e-07
-3.34831e-07
-1.99999e-07
-3.65741e-07
-1.63142e-07
-3.92e-07
-1.23441e-07
-4.13309e-07
-8.15666e-08
-4.2939e-07
-3.82468e-08
-4.40004e-07
5.75355e-09
-4.4498e-07
4.96516e-08
-4.44232e-07
9.26669e-08
-4.37774e-07
1.34043e-07
-4.25715e-07
1.73064e-07
-4.08246e-07
2.09077e-07
-3.85619e-07
2.41499e-07
-3.58118e-07
2.69832e-07
-3.26046e-07
2.93664e-07
-2.89699e-07
3.12672e-07
-2.49353e-07
3.26622e-07
-2.05252e-07
3.35362e-07
-1.57609e-07
3.38824e-07
-1.0661e-07
3.37027e-07
-5.24295e-08
3.30082e-07
4.74195e-09
3.18195e-07
6.46509e-08
3.01658e-07
1.26924e-07
2.80829e-07
1.91031e-07
2.56105e-07
2.56269e-07
2.27913e-07
3.21766e-07
1.96668e-07
3.86465e-07
1.62663e-07
4.49061e-07
1.25573e-07
5.07629e-07
8.37541e-08
5.58536e-07
3.56994e-08
5.95841e-07
-1.64441e-08
6.13855e-07
-6.72738e-08
6.09918e-07
-1.12584e-07
5.84736e-07
-1.52338e-07
5.42483e-07
-1.88547e-07
4.89496e-07
-2.22189e-07
4.30781e-07
-2.53197e-07
3.69063e-07
-2.81199e-07
3.05932e-07
-3.05774e-07
2.42568e-07
-3.26509e-07
1.79927e-07
-3.43027e-07
1.18769e-07
-3.54993e-07
5.96678e-08
-3.62143e-07
3.02018e-09
-3.64296e-07
-5.09332e-08
-3.61354e-07
-1.0206e-07
-3.53303e-07
-1.50276e-07
-3.40194e-07
-1.95507e-07
-3.22151e-07
-2.37655e-07
-2.99367e-07
-2.76586e-07
-2.72108e-07
-3.12117e-07
-2.40718e-07
-3.44025e-07
-2.0562e-07
-3.72046e-07
-1.6731e-07
-3.95897e-07
-1.26357e-07
-4.15285e-07
-8.33899e-08
-4.29936e-07
-3.90846e-08
-4.39618e-07
-4.44162e-07
4.52223e-08
-4.83482e-07
8.4436e-08
-4.76802e-07
1.22186e-07
-4.64343e-07
1.57836e-07
-4.46335e-07
1.90803e-07
-4.23075e-07
2.20571e-07
-3.94913e-07
2.467e-07
-3.62214e-07
2.68828e-07
-3.25338e-07
2.86676e-07
-2.84622e-07
3.00041e-07
-2.40357e-07
3.088e-07
-1.92788e-07
3.12899e-07
-1.42113e-07
3.12356e-07
-8.84898e-08
3.0726e-07
-3.20651e-08
2.97772e-07
2.69974e-08
2.84129e-07
8.84681e-08
2.66638e-07
1.52e-07
2.45659e-07
2.17096e-07
2.21603e-07
2.83084e-07
1.94927e-07
3.49109e-07
1.66136e-07
4.14113e-07
1.35779e-07
4.76793e-07
1.04365e-07
5.3541e-07
7.19792e-08
5.87159e-07
3.80332e-08
6.27108e-07
2.50814e-09
6.48592e-07
-3.29137e-08
6.46637e-07
-6.65793e-08
6.21447e-07
-9.85309e-08
5.78255e-07
-1.29326e-07
5.23703e-07
-1.58841e-07
4.6255e-07
-1.8655e-07
3.97454e-07
-2.11898e-07
3.30074e-07
-2.34378e-07
2.61684e-07
-2.53532e-07
1.93338e-07
-2.6895e-07
1.25914e-07
-2.80273e-07
6.01182e-08
-2.87206e-07
-3.49691e-09
-2.89532e-07
-6.45174e-08
-2.87118e-07
-1.22627e-07
-2.79914e-07
-1.77559e-07
-2.67953e-07
-2.29055e-07
-2.51356e-07
-2.76838e-07
-2.30327e-07
-3.20599e-07
-2.05164e-07
-3.59994e-07
-1.76255e-07
-3.94649e-07
-1.44078e-07
-4.24177e-07
-1.09193e-07
-4.48194e-07
-7.22345e-08
-4.66348e-07
-3.38931e-08
-4.78345e-07
5.09998e-09
-4.83973e-07
4.3995e-08
-4.83127e-07
8.20451e-08
-4.75824e-07
1.18528e-07
-4.62197e-07
1.52765e-07
-4.42484e-07
1.84141e-07
-4.16994e-07
2.12115e-07
-3.86093e-07
2.36234e-07
-3.50165e-07
2.56133e-07
-3.09598e-07
2.71538e-07
-2.64758e-07
2.82266e-07
-2.1598e-07
2.88222e-07
-1.63564e-07
2.89392e-07
-1.0778e-07
2.85849e-07
-4.88859e-08
2.77747e-07
1.28437e-08
2.65325e-07
7.70724e-08
2.48897e-07
1.43353e-07
2.28834e-07
2.11093e-07
2.0556e-07
2.79543e-07
1.79546e-07
3.47781e-07
1.51311e-07
4.147e-07
1.21419e-07
4.78954e-07
9.03381e-08
5.3871e-07
5.8008e-08
5.90866e-07
2.38195e-08
6.3003e-07
-1.18416e-08
6.49516e-07
-4.70591e-08
6.45136e-07
-8.05382e-08
6.18216e-07
-1.12637e-07
5.74581e-07
-1.43811e-07
5.2067e-07
-1.73815e-07
4.60785e-07
-2.02108e-07
3.97356e-07
-2.28149e-07
3.31973e-07
-2.51446e-07
2.65865e-07
-2.71555e-07
2.00036e-07
-2.88078e-07
1.35291e-07
-3.00666e-07
7.22553e-08
-3.0903e-07
1.13842e-08
-3.12953e-07
-4.70099e-08
-3.12293e-07
-1.02719e-07
-3.0698e-07
-1.55589e-07
-2.97014e-07
-2.05473e-07
-2.82467e-07
-2.52203e-07
-2.63483e-07
-2.95569e-07
-2.40284e-07
-3.35316e-07
-2.1317e-07
-3.71138e-07
-1.82524e-07
-4.02693e-07
-1.48806e-07
-4.29614e-07
-1.12552e-07
-4.51539e-07
-7.43576e-08
-4.6813e-07
-3.48726e-08
-4.79103e-07
-4.84255e-07
3.91511e-08
-5.18112e-07
7.3039e-08
-5.1069e-07
1.0555e-07
-4.96855e-07
1.3609e-07
-4.76875e-07
1.64121e-07
-4.51106e-07
1.8917e-07
-4.19962e-07
2.10844e-07
-3.83888e-07
2.28829e-07
-3.43324e-07
2.42893e-07
-2.98686e-07
2.52884e-07
-2.50348e-07
2.58728e-07
-1.98632e-07
2.60422e-07
-1.43807e-07
2.58036e-07
-8.61039e-08
2.51708e-07
-2.57367e-08
2.41642e-07
3.70628e-08
2.28113e-07
1.01998e-07
2.11452e-07
1.68661e-07
1.92049e-07
2.36499e-07
1.70346e-07
3.04788e-07
1.46843e-07
3.72612e-07
1.22115e-07
4.38841e-07
9.68368e-08
5.02071e-07
7.1778e-08
5.60469e-07
4.76252e-08
6.11312e-07
2.45537e-08
6.5018e-07
2.1216e-09
6.71024e-07
-2.0268e-08
6.69027e-07
-4.32003e-08
6.44379e-07
-6.70765e-08
6.02131e-07
-9.167e-08
5.48297e-07
-1.16265e-07
4.87145e-07
-1.40084e-07
4.21272e-07
-1.62451e-07
3.52441e-07
-1.82792e-07
2.82024e-07
-2.00603e-07
2.1115e-07
-2.15443e-07
1.40754e-07
-2.26926e-07
7.16018e-08
-2.34728e-07
4.30471e-09
-2.38592e-07
-6.06535e-08
-2.38337e-07
-1.22882e-07
-2.33863e-07
-1.82034e-07
-2.25148e-07
-2.3777e-07
-2.12256e-07
-2.8973e-07
-1.95339e-07
-3.37515e-07
-1.7464e-07
-3.80693e-07
-1.50494e-07
-4.18795e-07
-1.23326e-07
-4.51346e-07
-9.36439e-08
-4.77876e-07
-6.20308e-08
-4.97961e-07
-2.91277e-08
-5.11248e-07
4.38427e-09
-5.17485e-07
3.78046e-08
-5.16548e-07
7.04357e-08
-5.08455e-07
1.01605e-07
-4.93367e-07
1.30685e-07
-4.71563e-07
1.57111e-07
-4.43421e-07
1.80395e-07
-4.09377e-07
2.00137e-07
-3.69907e-07
2.16024e-07
-3.25485e-07
2.27838e-07
-2.76572e-07
2.35451e-07
-2.23593e-07
2.3882e-07
-1.66934e-07
2.37987e-07
-1.06948e-07
2.33076e-07
-4.39749e-08
2.24287e-07
2.1633e-08
2.11894e-07
8.94651e-08
1.9624e-07
1.59007e-07
1.77725e-07
2.29609e-07
1.56805e-07
3.00463e-07
1.34e-07
3.70586e-07
1.09909e-07
4.38791e-07
8.52357e-08
5.03627e-07
6.07704e-08
5.63175e-07
3.71466e-08
6.1449e-07
1.44091e-08
6.52767e-07
-7.93648e-09
6.71862e-07
-3.04786e-08
6.67678e-07
-5.38095e-08
6.41546e-07
-7.8245e-08
5.99017e-07
-1.03437e-07
5.45862e-07
-1.28644e-07
4.85992e-07
-1.53114e-07
4.21826e-07
-1.76201e-07
3.5506e-07
-1.97352e-07
2.87016e-07
-2.16082e-07
2.18765e-07
-2.31962e-07
1.51172e-07
-2.4462e-07
8.49128e-08
-2.53736e-07
2.05e-08
-2.59055e-07
-4.1691e-08
-2.60389e-07
-1.01385e-07
-2.57618e-07
-1.5836e-07
-2.50692e-07
-2.12399e-07
-2.39631e-07
-2.63264e-07
-2.24529e-07
-3.10672e-07
-2.05558e-07
-3.54287e-07
-1.82972e-07
-3.93724e-07
-1.57106e-07
-4.28559e-07
-1.28375e-07
-4.58346e-07
-9.72673e-08
-4.82646e-07
-6.43388e-08
-5.01059e-07
-3.01954e-08
-5.13247e-07
-5.18971e-07
3.25949e-08
-5.46942e-07
6.07446e-08
-5.38839e-07
8.76349e-08
-5.23745e-07
1.12726e-07
-5.01966e-07
1.35535e-07
-4.73914e-07
1.55645e-07
-4.40072e-07
1.72715e-07
-4.00958e-07
1.86484e-07
-3.57092e-07
1.96771e-07
-3.08973e-07
2.03476e-07
-2.57053e-07
2.06573e-07
-2.01729e-07
2.06109e-07
-1.43344e-07
2.02203e-07
-8.21974e-08
1.95036e-07
-1.85698e-08
1.84855e-07
4.72436e-08
1.71968e-07
1.14885e-07
1.56739e-07
1.83891e-07
1.39582e-07
2.53655e-07
1.20971e-07
3.23399e-07
1.01438e-07
3.92145e-07
8.15975e-08
4.58681e-07
6.21657e-08
5.21503e-07
4.39602e-08
5.78674e-07
2.77658e-08
6.27506e-07
1.38885e-08
6.64057e-07
1.62221e-09
6.8329e-07
-1.06389e-08
6.81288e-07
-2.44696e-08
6.5821e-07
-4.05075e-08
6.18169e-07
-5.83886e-08
5.66178e-07
-7.73009e-08
5.06057e-07
-9.64194e-08
4.40391e-07
-1.15028e-07
3.71049e-07
-1.32511e-07
2.99507e-07
-1.48334e-07
2.26973e-07
-1.62026e-07
1.54446e-07
-1.73172e-07
8.27477e-08
-1.81415e-07
1.25472e-08
-1.8646e-07
-5.56088e-08
-1.88082e-07
-1.21259e-07
-1.86131e-07
-1.83985e-07
-1.80534e-07
-2.43367e-07
-1.71301e-07
-2.98963e-07
-1.58527e-07
-3.50289e-07
-1.424e-07
-3.9682e-07
-1.23193e-07
-4.38002e-07
-1.01272e-07
-4.73266e-07
-7.70839e-08
-5.02064e-07
-5.11474e-08
-5.23898e-07
-2.40403e-08
-5.38355e-07
3.61991e-09
-5.45146e-07
3.11969e-08
-5.44125e-07
5.80569e-08
-5.35315e-07
8.35912e-08
-5.18901e-07
1.07236e-07
-4.95208e-07
1.28489e-07
-4.64673e-07
1.46924e-07
-4.27813e-07
1.622e-07
-3.85183e-07