/*--------------------------------*- C++ -*----------------------------------*\
| =========                 |                                                 |
| \\      /  F ield         | OpenFOAM: The Open Source CFD Toolbox           |
|  \\    /   O peration     | Version:  2.3.0                                 |
|   \\  /    A nd           | Web:      www.OpenFOAM.org                      |
|    \\/     M anipulation  |                                                 |
\*---------------------------------------------------------------------------*/
FoamFile
{
    version     2.0;
    format      ascii;
    class       volScalarField;
    location    "4000";
    object      T;
}
// * * * * * * * * * * * * * * * * * * * * * * * * * * * * * * * * * * * * * //

dimensions      [0 0 0 1 0 0 0];

internalField   nonuniform List<scalar> 
3060
(
33.6146
33.6398
33.6854
33.7495
33.83
33.9241
34.0282
34.1386
34.2513
34.3632
34.47
34.576
34.6838
34.794
34.9056
35.0193
35.1354
35.2538
35.3731
35.4913
35.6055
35.7127
35.8094
35.8915
35.9549
35.9952
36.0087
35.9934
35.9512
35.8859
35.8017
35.7028
35.5929
35.4756
35.354
35.2309
35.1082
34.987
34.8676
34.75
34.6366
34.526
34.4169
34.3105
34.208
34.1117
34.0247
33.9506
33.8924
33.8526
33.8335
33.8367
33.8617
33.9068
33.9698
34.0478
34.1377
34.2361
34.3399
34.4471
34.557
34.6678
34.7823
34.9006
35.0206
35.1423
35.2652
35.3882
35.5088
35.6244
35.7316
35.8269
35.9062
35.9655
36.0005
36.0078
35.9865
35.9393
35.8703
35.7837
35.6837
35.5742
35.4585
35.3398
35.2206
35.1028
34.9874
34.8744
34.7632
34.6536
34.5463
34.4404
34.3321
34.2198
34.1074
33.9983
33.8966
33.8061
33.7299
33.6707
33.6306
33.6114
28.2609
28.3236
28.4371
28.5967
28.7968
29.0307
29.2907
29.5689
29.8584
30.1556
30.4628
30.7774
31.1002
31.4311
31.7639
32.1028
32.4494
32.8024
33.158
33.5096
33.849
34.1675
34.4551
34.7006
34.8913
35.0136
35.0549
35.0081
34.8805
34.6843
34.4327
34.138
33.8115
33.4627
33.1007
32.7335
32.3673
32.0053
31.6477
31.2921
30.9524
30.6328
30.3332
30.0505
29.7851
29.5405
29.3222
29.1373
28.9924
28.8937
28.8463
28.8541
28.9163
29.0285
29.1852
29.3801
29.6064
29.8573
30.1277
30.415
30.7195
31.0452
31.3897
31.7468
32.1055
32.4689
32.8359
33.2025
33.5617
33.9052
34.2239
34.5077
34.7452
34.9236
35.0297
35.0521
34.9871
34.8444
34.637
34.3785
34.0812
33.756
33.4124
33.0589
32.7035
32.3521
32.0078
31.6709
31.3387
31.0093
30.6889
30.3764
30.0721
29.7768
29.4898
29.2159
28.9624
28.7372
28.5478
28.4005
28.3008
28.2529
23.5595
23.6467
23.8045
24.0269
24.3063
24.6345
25.0024
25.401
25.8229
26.2639
26.7234
27.2018
27.7012
28.2244
28.7701
29.3274
29.8981
30.4786
31.0617
31.6364
32.1898
32.7089
33.1785
33.5813
33.8962
34.1
34.1697
34.0916
33.8795
33.5558
33.1431
32.6617
32.1289
31.5598
30.9678
30.3662
29.7658
29.1737
28.5915
28.0382
27.5163
27.0273
26.5707
26.1459
25.7539
25.3983
25.0855
24.8228
24.6184
24.4797
24.4131
24.4242
24.5115
24.6692
24.8907
25.1681
25.4936
25.8598
26.2613
26.6949
27.1604
27.6587
28.1899
28.7528
29.3374
29.9324
30.5341
31.1344
31.7214
32.2819
32.8019
33.266
33.656
33.9509
34.1277
34.165
34.0557
33.8185
33.4767
33.0534
32.5682
32.0382
31.4776
30.8993
30.316
29.7378
29.171
28.618
28.0758
27.5596
27.0663
26.5934
26.1391
25.7031
25.2871
24.8962
24.5385
24.223
23.9586
23.7536
23.6149
23.5484
19.6292
19.7308
19.9149
20.1748
20.5026
20.8897
21.3272
21.8067
22.3214
22.867
23.4422
24.0477
24.6855
25.358
26.067
26.8018
27.5612
28.3399
29.1272
29.9072
30.6605
31.3671
32.0061
32.555
32.9865
33.2677
33.3652
33.2574
32.9656
32.5225
31.9601
31.3051
30.58
29.8061
29.0047
28.1958
27.3961
26.6166
25.8633
25.1525
24.4857
23.8637
23.2866
22.7544
22.2689
21.834
21.4553
21.1402
20.8965
20.7318
20.6529
20.666
20.7695
20.957
21.2214
21.555
21.95
22.3996
22.8984
23.4432
24.0329
24.6674
25.3465
26.0689
26.8308
27.6172
28.421
29.2298
30.0258
30.7882
31.4959
32.1275
32.6595
33.0637
33.3073
33.3584
33.2064
32.8797
32.4123
31.8357
31.1757
30.454
29.6913
28.9074
28.121
27.3469
26.5941
25.8667
25.1669
24.5041
23.8755
23.2787
22.7117
22.1744
21.669
21.2004
20.7761
20.4047
20.095
19.8555
19.6937
19.6163
16.4849
16.5947
16.7938
17.0753
17.4314
17.8537
18.334
18.8649
19.4401
20.0561
20.7113
21.4063
22.143
22.9239
23.7513
24.6199
25.5258
26.4613
27.4137
28.3647
29.2904
30.1631
30.9536
31.6328
32.1677
32.518
32.6405
32.5067
32.1442
31.5955
30.9
30.0904
29.1963
28.2479
27.274
26.2995
25.3439
24.4213
23.5415
22.7143
21.9411
21.2226
20.5587
19.9501
19.3989
18.9087
18.4849
18.1345
17.8647
17.6829
17.5961
17.6104
17.7244
17.9315
18.2246
18.5962
19.0391
19.5469
20.1144
20.7386
21.4177
22.1515
22.9398
23.7815
24.6744
25.6076
26.5703
27.5469
28.5164
29.4527
30.3262
31.1069
31.765
32.2659
32.5687
32.6318
32.4415
32.0352
31.4561
30.7428
29.9265
29.036
28.1005
27.147
26.1977
25.2692
24.3728
23.5147
22.7011
21.9329
21.2081
20.5244
19.8801
19.2753
18.7119
18.1945
17.7295
17.3248
16.9888
16.7295
16.5547
16.4711
14.0634
14.1784
14.3874
14.6829
15.0572
15.502
16.0095
16.5727
17.1861
17.8464
18.5523
19.3045
20.1054
20.9579
21.8649
22.8267
23.8377
24.8886
25.9651
27.0469
28.1075
29.1144
30.0313
30.82
31.4407
31.8475
31.9903
31.8356
31.4156
30.7796
29.9729
29.0355
28.0062
26.9224
25.8174
24.7192
23.6496
22.6248
21.6567
20.7495
19.9037
19.1194
18.3963
17.7352
17.138
16.6087
16.1527
15.7765
15.4875
15.2932
15.2005
15.2159
15.3376
15.559
15.8731
16.2723
16.7494
17.2982
17.9135
18.5921
19.3323
20.1338
20.9968
21.9212
22.9059
23.9445
25.0239
26.1265
27.2286
28.3008
29.3082
30.213
30.9761
31.5567
31.9075
31.98
31.7585
31.2869
30.6149
29.7865
28.8407
27.8153
26.7457
25.6629
24.5917
23.5507
22.5526
21.6056
20.7143
19.8767
19.0897
18.3505
17.6573
17.0099
16.4101
15.8619
15.3711
14.9452
14.5921
14.3199
14.1365
14.0489
12.2552
12.3753
12.5934
12.9019
13.2922
13.7556
14.284
14.8703
15.5091
16.1972
16.9336
17.7194
18.5574
19.4518
20.4069
21.4269
22.5059
23.6338
24.7956
25.9695
27.1267
28.2319
29.2434
30.116
30.8019
31.25
31.4071
31.2378
30.7758
30.0738
29.1826
28.1502
27.0228
25.8423
24.6456
23.4625
22.3165
21.2247
20.1996
19.2413
18.3491
17.5218
16.7587
16.0603
15.429
14.869
14.3861
13.9877
13.6816
13.4758
13.3777
13.3939
13.5228
13.7573
14.09
14.5128
15.0179
15.5984
16.2488
16.9654
17.7465
18.5919
19.5026
20.4798
21.5241
22.6322
23.7904
24.9798
26.1753
27.3448
28.4501
29.4478
30.291
30.9312
31.3166
31.3956
31.152
30.6321
29.8891
28.9729
27.9308
26.8072
25.6419
24.4689
23.3147
22.1992
21.136
20.1339
19.1961
18.3179
17.4948
16.723
16.0002
15.3256
14.701
14.1303
13.6193
13.1754
12.8071
12.523
12.3315
12.2401
10.9338
11.0604
11.2903
11.6149
12.0244
12.5089
13.0592
13.6673
14.3273
15.0355
15.791
16.5953
17.4522
18.367
19.3462
20.3965
21.5124
22.6842
23.8965
25.127
26.3454
27.5138
28.5872
29.5151
30.2436
30.717
30.882
30.7045
30.2165
29.4715
28.525
27.4311
26.2407
24.9995
23.7462
22.5122
21.3215
20.191
19.133
18.1448
17.2241
16.3682
15.5759
14.8478
14.1868
13.5978
13.088
12.6661
12.3412
12.1225
12.0183
12.0355
12.1724
12.4216
12.7746
13.222
13.7546
14.3644
15.0446
15.7908
16.6009
17.4748
18.4144
19.4222
20.501
21.6494
22.854
24.0959
25.3492
26.5803
27.7486
28.8066
29.7023
30.381
30.7873
30.8699
30.6138
30.0635
29.2738
28.2999
27.1951
26.0084
24.7831
23.555
22.3521
21.1947
20.0966
19.066
18.1053
17.2072
16.3655
15.5751
14.8329
14.138
13.492
12.8994
12.3665
11.902
11.5152
11.2161
11.0142
10.9178
9.97711
10.1126
10.3586
10.7049
11.14
11.6522
12.2302
12.8643
13.5473
14.2748
15.0455
15.8611
16.7263
17.6479
18.6345
19.6939
20.8221
22.0103
23.2438
24.5
25.7479
26.9477
28.0521
29.0072
29.7554
30.2389
30.4056
30.2256
29.727
28.9619
27.9882
26.8637
25.6421
24.3716
23.0921
21.8356
20.6256
19.4783
18.4044
17.4003
16.4615
15.5842
14.7669
14.0102
13.3181
12.6971
12.1563
11.7064
11.3587
11.1242
11.0125
11.0309
11.1778
11.4449
11.8222
12.2987
12.8629
13.5046
14.2153
14.9892
15.8233
16.7176
17.6745
18.698
19.7928
20.9586
22.1834
23.4488
24.7292
25.9904
27.1899
28.2779
29.1992
29.8955
30.3099
30.3936
30.1338
29.5707
28.7588
27.7563
26.6201
25.4023
24.1485
22.8959
21.6731
20.5005
19.3908
18.3514
17.3842
16.4792
15.6285
14.8258
14.0673
13.3519
12.682
12.0626
11.502
11.0101
10.5986
10.2793
10.0632
9.96007
9.27985
9.42695
9.69372
10.0683
10.537
11.0853
11.6993
12.3669
13.079
13.8297
14.6169
15.4425
16.3116
17.2325
18.2156
19.2692
20.3912
21.5744
22.805
24.0609
25.3108
26.5143
27.6223
28.5794
29.3267
29.8064
29.97
29.792
29.2963
28.5315
27.5556
26.4274
25.2022
23.9291
22.6486
21.3923
20.1826
19.0343
17.9561
16.944
15.9918
15.0949
14.2514
13.463
12.7348
12.0757
11.4973
11.0133
10.6377
10.3837
10.2627
10.2827
10.4418
10.7309
11.1382
11.65
12.2522
12.9317
13.6774
14.4817
15.3401
16.2522
17.2207
18.2509
19.3491
20.5155
21.7399
23.0055
24.2873
25.5515
26.7547
27.8461
28.769
29.4642
29.8754
29.9583
29.7025
29.1426
28.3307
27.3256
26.1856
24.9645
23.7092
22.4576
21.2384
20.0712
18.9676
17.9333
16.9692
16.0639
15.2077
14.3933
13.6163
12.876
12.1756
11.5218
10.9249
10.3974
9.95354
9.60773
9.37331
9.26137
8.75788
8.91914
9.21144
9.62094
10.1311
10.7243
11.3834
12.0934
12.8425
13.6229
14.4314
15.2693
16.1423
17.0596
18.0332
19.0713
20.1739
21.3358
22.5446
23.7791
25.0084
26.192
27.2805
28.2185
28.9476
29.4125
29.569
29.3965
28.9142
28.1666
27.2091
26.0997
24.8938
23.64
22.3786
21.14
19.9451
18.8067
17.7312
16.7146
15.7496
14.8311
13.9574
13.1314
12.3602
11.6555
11.0322
10.5074
10.0984
9.82134
9.68925
9.711
9.88464
10.2
10.643
11.1971
11.8448
12.5694
13.357
14.1969
15.0832
16.0145
16.9933
18.0256
19.1191
20.2741
21.4828
22.7302
23.9929
25.2376
26.4218
27.4945
28.3991
29.0779
29.4773
29.5581
29.3121
28.7684
27.9751
26.9892
25.8687
24.6678
23.4333
22.2033
21.0058
19.8595
18.7745
17.7544
16.7981
15.8944
15.032
14.2027
13.402
12.6298
11.8907
11.1935
10.5512
9.9794
9.4956
9.11727
8.86033
8.73766
8.34801
8.52562
8.84756
9.2977
9.85645
10.5026
11.2155
11.9766
12.7709
13.5886
14.4246
15.2796
16.1592
17.0732
18.0345
19.0513
20.1258
21.2548
22.4276
23.6242
24.8147
25.9595
27.0102
27.9122
28.6099
29.0516
29.1983
29.0334
28.5725
27.8547
26.9318
25.8591
24.6904
23.4732
22.2463
21.0383
19.8682
18.7466
17.6775
16.657
15.6772
14.733
13.8234
12.9529
12.1314
11.3736
10.6983
10.1264
9.67908
9.37547
9.23076
9.25455
9.44484
9.7903
10.2744
10.8774
11.5777
12.3551
13.1916
14.0738
14.9933
15.9473
16.9378
17.9709
19.055
20.1908
21.3729
22.5885
23.816
25.0239
26.1708
27.2072
28.0783
28.7291
29.1105
29.1884
28.9566
28.4388
27.6785
26.7293
25.6471
24.485
23.2891
22.0966
20.9344
19.8199
18.7614
17.7604
16.8138
15.9106
15.0387
14.1893
13.3582
12.5463
11.76
11.0107
10.3145
9.69056
9.16005
8.74388
8.46084
8.32577
8.00485
8.20052
8.55526
9.05057
9.66357
10.3693
11.1431
11.9627
12.8099
13.6721
14.5424
15.4201
16.3105
17.2234
18.1721
19.1648
20.2061
21.2946
22.4211
23.5676
24.7056
25.7972
26.7958
27.6495
28.3061
28.7189
28.8539
28.698
28.2635
27.5847
26.7082
25.6854
24.5676
23.3998
22.2184
21.0498
19.9109
18.81
17.7485
16.7228
15.7248
14.7498
13.7984
12.8769
11.9983
11.1808
10.4475
9.8234
9.33367
9.00082
8.84223
8.86827
9.07687
9.45552
9.98519
10.6424
11.4017
12.2383
13.1306
14.0615
15.0199
16.0012
17.0063
18.041
19.1136
20.2257
21.3741
22.5483
23.729
24.8869
25.983
26.9701
27.7964
28.4114
28.7705
28.8454
28.6304
28.1454
27.4287
26.5293
25.4996
24.3907
23.2469
22.1036
20.9862
19.9103
18.8828
17.9031
16.9656
16.0601
15.174
14.2986
13.4302
12.5713
11.7302
10.9213
10.1642
9.48181
8.89923
8.44104
8.12914
7.98039
7.69691
7.91176
8.30142
8.8449
9.51591
10.2856
11.1254
12.0092
12.9155
13.8283
14.7389
15.6451
16.5511
17.4663
18.4037
19.372
20.3778
21.4214
22.4953
23.583
24.6584
25.6862
26.6233
27.4192
28.0282
28.409
28.5316
28.3846
27.9794
27.3456
26.5242
25.5602
24.5026
23.3931
22.2647
21.1411
20.0365
18.9575
17.9034
16.8699
15.8497
14.8392
13.8405
12.8626
11.9215
11.0396
10.2439
9.56397
9.02906
8.66509
8.49177
8.52019
8.74824
9.16223
9.74044
10.4557
11.2784
12.1794
13.1328
14.1178
15.1205
16.1337
17.1571
18.1955
19.2564
20.3429
21.4537
22.5804
23.7064
24.8051
25.8412
26.77
27.5435
28.1172
28.4526
28.5245
28.3276
27.8795
27.2138
26.3736
25.4064
24.3612
23.2792
22.1931
21.1265
20.093
19.0981
18.1394
17.2093
16.2977
15.3923
14.485
13.5733
12.661
11.7592
10.8852
10.0622
9.31715
8.67892
8.17597
7.83335
7.67009
7.40282
7.63742
8.06296
8.65591
9.38659
10.2224
11.1307
12.082
13.0511
14.0192
14.9751
15.9148
16.8412
17.7626
18.6912
19.6364
20.6072
21.6049
22.6222
23.6455
24.6513
25.6075
26.4746
27.2089
27.7684
28.1165
28.2268
28.0886
27.7127
27.1251
26.3619
25.464
24.4738
23.4284
22.3575
21.2816
20.2113
19.1535
18.1052
17.0611
16.0149
14.9646
13.9146
12.8766
11.87
10.9209
10.0606
9.3232
8.74176
8.34573
8.15722
8.18809
8.43621
8.8866
9.51477
10.2899
11.1783
12.1465
13.1643
14.2073
15.2582
16.3076
17.353
18.3979
19.4481
20.5094
21.582
22.658
23.7243
24.7576
25.7261
26.5905
27.3086
27.8404
28.152
28.2209
28.0423
27.632
27.0197
26.244
25.3477
24.3739
23.3603
22.3368
21.3241
20.3331
19.3703
18.4309
17.5053
16.5835
15.6539
14.7097
13.7496
12.7798
11.8134
10.8713
9.98007
9.17033
8.47491
7.92597
7.55177
7.37359
7.10824
7.36263
7.82389
8.46584
9.25549
10.1566
11.1332
12.1524
13.1858
14.2115
15.2159
16.1932
17.1444
18.0763
18.9991
19.9236
20.859
21.8087
22.7682
23.7255
24.6598
25.5425
26.3388
27.0104
27.5201
27.8356
27.9336
27.804
27.4567
26.9149
26.2102
25.3785
24.4563
23.4759
22.4632
21.4354
20.4017
19.3646
18.32
17.2622
16.1867
15.0939
13.9904
12.891
11.8182
10.8018
9.87748
9.08297
8.45526
8.02716
7.82334
7.8567
8.125
8.61172
9.28954
10.1241
11.0779
12.1134
13.1964
14.2989
15.4006
16.489
17.5595
18.6135
19.6551
20.691
21.7235
22.7483
23.7542
24.7212
25.6216
26.4215
27.0842
27.5745
27.8628
27.9291
27.7686
27.396
26.8375
26.1273
25.3031
24.4027
23.4595
22.4999
21.5423
20.5963
19.6646
18.7418
17.8174
16.881
15.923
14.9379
13.9266
12.8971
11.865
10.8546
9.8956
9.02192
8.26998
7.67543
7.26975
7.07656
6.80344
7.07733
7.57306
8.26167
9.10708
10.0699
11.1109
12.1941
13.2887
14.3707
15.4241
16.4408
17.4198
18.3659
19.2865
20.1941
21.0984
22.0039
22.9081
23.801
24.6652
25.4759
26.2028
26.813
27.2741
27.5579
27.6436
27.522
27.2022
26.7045
26.0562
25.2883
24.4317
23.5139
22.5565
21.5737
20.5722
19.5521
18.5084
17.4344
16.3282
15.1925
14.0366
12.8781
11.7427
10.6633
9.67867
8.82998
8.15791
7.69858
7.47946
7.51537
7.80365
8.32557
9.05084
9.94166
10.9569
12.0556
13.2005
14.3605
15.5121
16.6403
17.7376
18.803
19.8393
20.8538
21.8504
22.8271
23.7752
24.6783
25.5131
26.2507
26.86
27.3105
27.5766
27.6405
27.4978
27.1621
26.6562
26.0101
25.2566
24.4281
23.5537
22.6562
21.751
20.8458
19.9413
19.031
18.1041
17.1498
16.1606
15.1333
14.0707
12.9832
11.889
10.8142
9.7912
8.85718
8.05169
7.41359
6.97737
6.76927
6.48055
6.77227
7.29893
8.02893
8.92354
9.94081
11.0392
12.1804
13.3316
14.4668
15.5679
16.6245
17.6331
18.5961
19.5193
20.4152
21.294
22.1608
23.0147
23.8481
24.6464
25.389
26.0503
26.6022
27.017
27.2705
27.3444
27.23
26.9356
26.4789
25.8832
25.1745
24.3786
23.5182
22.6108
21.6674
20.6924
19.6846
18.6382
17.546
16.4083
15.2307
14.0253
12.8123
11.6201
10.4842
9.44594
8.54924
7.83765
7.35019
7.11703
7.15531
7.46182
8.01533
8.78278
9.72346
10.7933
11.9489
13.1502
14.3635
15.5629
16.7302
17.8554
18.9346
19.9696
20.9679
21.9342
22.8683
23.764
24.6084
25.3824
26.0622
26.6216
27.0351
27.2806
27.3427
27.2172
26.9165
26.4607
25.8754
25.1887
24.4281
23.6181
22.7778
21.9199
21.0499
20.167
19.2645
18.3312
17.3561
16.3341
15.2645
14.1524
13.0105
11.8591
10.7263
9.64649
8.65923
7.80646
7.12962
6.66588
6.44405
6.13373
6.44023
6.99216
7.75569
8.69007
9.75164
10.8973
12.0874
13.2876
14.4704
15.6156
16.7106
17.7494
18.7316
19.6616
20.5518
21.4115
22.2466
23.0572
23.8378
24.577
25.2577
25.8589
26.3573
26.7294
26.9548
27.0173
26.9089
26.6372
26.2174
25.6688
25.0129
24.2707
23.4603
22.5955
21.6843
20.7294
19.7284
18.6757
17.5639
16.3957
15.1794
13.9298
12.6696
11.4295
10.2468
9.16469
8.22897
7.4852
6.97461
6.72976
6.77005
7.09166
7.67105
8.4728
9.45404
10.5688
11.7716
13.0208
14.2807
15.523
16.727
17.8799
18.9749
20.0127
21.0005
21.9432
22.842
23.6927
24.4856
25.2057
25.8338
26.3485
26.7287
26.9561
27.0169
26.9077
26.6395
26.2298
25.7004
25.0747
24.3757
23.6234
22.8335
22.0157
21.1741
20.3066
19.4064
18.463
17.4651
16.4103
15.3003
14.1429
12.9529
11.7524
10.5709
9.44455
8.41409
7.52311
6.81484
6.32853
6.09527
5.75897
6.076
6.64555
7.43216
8.39391
9.48636
10.6659
11.8922
13.1302
14.3515
15.5342
16.6636
17.7312
18.7336
19.6742
20.5639
21.4115
22.2226
22.9982
23.7346
24.4229
25.0497
25.5979
26.0486
26.3826
26.5823
26.6341
26.5304
26.2781
25.89
25.3818
24.771
24.0739
23.3049
22.474
21.5872
20.6455
19.6464
18.5844
17.4535
16.2579
15.0087
13.7235
12.427
11.1513
9.93513
8.82227
7.8595
7.09339
6.56654
6.31327
6.35502
6.68743
7.28494
8.11047
9.11987
10.2662
11.5032
12.7884
14.0846
15.3619
16.5975
17.7758
18.8872
19.9312
20.914
21.8403
22.7119
23.5262
24.2764
24.9509
25.5348
26.0112
26.3629
26.5747
26.6352
26.541
26.3021
25.9337
25.4538
24.8818
24.2362
23.5333
22.7853
21.9996
21.1787
20.3201
19.4172
18.4608
17.4397
16.3542
15.2087
14.0133
12.7848
11.5468
10.3297
9.1703
8.10988
7.19264
6.46267
5.96053
5.71907
5.35356
5.67576
6.25337
7.0501
8.0238
9.13028
10.3264
11.5723
12.8331
14.0797
15.2894
16.4456
17.5375
18.5589
19.5118
20.4054
21.247
22.0417
22.7909
23.4922
24.139
24.7208
25.2242
25.6342
25.935
26.1122
26.154
26.0535
25.8168
25.4546
24.9794
24.4049
23.7438
23.0068
22.2012
21.3311
20.3968
19.3959
18.3241
17.1768
15.9602
14.6879
13.3798
12.0619
10.7671
9.53445
8.40749
7.4327
6.65657
6.12209
5.86458
5.90711
6.24484
6.85072
7.68683
8.70882
9.86988
11.1241
12.429
13.7472
15.0476
16.306
17.5044
18.6304
19.6821
20.6641
21.5804
22.4327
23.2197
23.9365
24.5746
25.1227
25.5677
25.896
26.0956
26.1566
26.0759
25.8628
25.53
25.0924
24.5655
23.9644
23.3015
22.5863
21.8243
21.0168
20.1614
19.2522
18.2814
17.2397
16.1288
14.9562
13.7342
12.481
11.2211
9.98531
8.81003
7.73621
6.80755
6.068
5.55848
5.3129
4.91584
5.23681
5.81114
6.60259
7.56984
8.67007
9.86168
11.1063
12.3699
13.624
14.8453
16.016
17.1235
18.1589
19.1227
20.0217
20.8615
21.646
22.3765
23.0514
23.6658
24.2118
24.6789
25.0552
25.3283
25.4864
25.5191
25.4202
25.1953
24.853
24.4034
23.8567
23.2226
22.509
21.7212
20.8619
19.9314
18.9281
17.8493
16.6926
15.466
14.1853
12.8717
11.5521
10.2593
9.03135
7.9105
6.94175
6.17033
5.63854
5.38182
5.4243
5.76076
6.36336
7.19429
8.21008
9.36528
10.6155
11.9193
13.2403
14.5471
15.8147
17.0232
18.158
19.2155
20.1984
21.1089
21.9484
22.7159
23.408
24.0185
24.5391
24.9598
25.2702
25.4607
25.5231
25.4545
25.2632
24.96
24.557
24.0667
23.5007
22.8688
22.178
21.4323
20.6326
19.7768
18.8605
17.8775
16.8212
15.6949
14.5084
13.2759
12.0165
10.755
9.52156
8.35144
7.28408
6.36166
5.62688
5.12004
4.87522
4.445
4.75743
5.31555
6.08415
7.02385
8.09422
9.25631
10.4741
11.7158
12.9538
14.1656
15.3327
16.4411
17.4802
18.4486
19.3502
20.1884
20.9656
21.6825
22.3377
22.9273
23.4454
23.8838
24.2333
24.4839
24.626
24.6506
24.552
24.3354
24.0079
23.5773
23.0513
22.4373
21.7409
20.9663
20.1158
19.1898
18.1882
17.1106
15.9573
14.7376
13.469
12.1733
10.8772
9.61207
8.41408
7.32302
6.38121
5.63143
5.11417
4.86404
4.9055
5.23313
5.81907
6.62667
7.61446
8.73955
9.96016
11.2374
12.5364
13.827
15.084
16.2868
17.4191
18.4754
19.4559
20.3608
21.1903
21.9433
22.6172
23.2073
23.7074
24.11
24.4073
24.5916
24.656
24.5978
24.4244
24.1452
23.7699
23.3083
22.7695
22.1611
21.4883
20.7545
19.9605
19.1049
18.185
17.1974
16.138
15.0119
13.8306
12.6095
11.3679
10.1299
8.92423
7.78399
6.74611
5.85017
5.13654
4.64382
4.40537
3.94108
4.23691
4.76464
5.4911
6.37981
7.39385
8.49782
9.65915
10.8488
12.0415
13.2159
14.3542
15.4419
16.4672
17.4269
18.3217
19.1524
19.9197
20.6231
21.261
21.8301
22.3254
22.7406
23.0683
23.3006
23.4294
23.447
23.3481
23.1377
22.8216
22.406
21.8969
21.2998
20.6192
19.8587
19.0206
18.1065
17.118
16.057
14.9271
13.7387
12.5097
11.2615
10.0192
8.81222
7.67335
6.63887
5.74732
5.03794
4.5483
4.31117
4.35053
4.66097
5.21548
5.9796
6.915
7.98243
9.14387
10.3639
11.6106
12.8559
14.0756
15.2494
16.3604
17.4013
18.3692
19.2622
20.0789
20.8173
21.475
22.0481
22.5316
22.9201
23.2072
23.3871
23.4538
23.4043
23.2458
22.986
22.6331
22.1948
21.6783
21.0896
20.4331
19.7117
18.9267
18.0782
17.1653
16.1873
15.1436
14.0405
12.8905
11.709
10.5148
9.33033
8.18194
7.09968
6.11701
5.26991
4.59542
4.12939
3.90347
3.40496
3.67569
4.15806
4.82193
5.6347
6.56378
7.57821
8.6496
9.7526
10.865
11.9678
13.0445
14.0815
15.067
15.9959
16.8657
17.6746
18.4213
19.104
19.7205
20.2672
20.7399
21.1333
21.4413
21.6574
21.7749
21.7866
21.688
21.4839
21.1792
20.7789
20.288
19.7111
19.052
18.3143
17.5011
16.6151
15.66
14.6403
13.5625
12.4377
11.2831
10.1181
8.96545
7.85095
6.80346
5.85469
5.03844
4.38944
3.94133
3.72402
3.76014
4.04449
4.55187
5.25102
6.10774
7.08741
8.1567
9.28466
10.4432
11.6075
12.7558
13.8692
14.9313
15.9334
16.8696
17.7355
18.528
19.244
19.8805
20.4339
20.8999
21.274
21.5511
21.7262
21.7944
21.7524
21.6067
21.3642
21.0317
20.6156
20.1217
19.5551
18.9198
18.219
17.4548
16.6287
15.7421
14.797
13.7961
12.7468
11.6613
10.5541
9.44224
8.34571
7.28756
6.294
5.39422
4.61976
4.00341
3.57733
3.37047
2.83839
3.07544
3.49734
4.07789
4.78923
5.60381
6.49572
7.44136
8.4197
9.41232
10.4032
11.3787
12.3267
13.2371
14.1032
14.9194
15.6818
16.387
17.032
17.6137
18.1282
18.5715
18.9387
19.2246
19.4235
19.5297
19.537
19.441
19.2465
18.9579
18.5797
18.116
17.5711
16.9488
16.253
15.4876
14.657
13.7663
12.8224
11.8346
10.8138
9.77466
8.73384
7.71031
6.72554
5.80355
4.97077
4.25556
3.68731
3.29485
3.10432
3.13602
3.38524
3.82953
4.44175
5.19271
6.05319
6.99528
7.99321
9.02366
10.0659
11.1015
12.1146
13.091
14.0207
14.8952
15.708
16.4543
17.13
17.7311
18.2537
18.694
19.0476
19.3103
19.4777
19.5453
19.5097
19.377
19.1532
18.844
18.4551
17.9914
17.4577
16.858
16.1958
15.4743
14.6965
13.8658
12.9865
12.0648
11.108
10.127
9.13415
8.14383
7.17268
6.23984
5.36706
4.57865
3.90107
3.36209
2.98935
2.80814
2.24408
2.43919
2.78615
3.26347
3.84871
4.51992
5.25664
6.04043
6.85495
7.68601
8.52136
9.35055
10.1647
10.9562
11.7176
12.4411
13.1209
13.7524
14.3316
14.8545
15.3172
15.7154
16.0445
16.3
16.4768
16.57
16.574
16.4851
16.3079
16.0464
15.7045
15.2861
14.7953
14.2362
13.6129
12.9303
12.1934
11.4089
10.585
9.733
8.86262
7.98471
7.11185
6.25853
5.44132
4.67887
3.99188
3.40275
2.93495
2.6118
2.45474
2.4809
2.68625
3.05203
3.55607
4.17484
4.88509
5.66485
6.49395
7.35433
8.23002
9.10706
9.9734
10.8186
11.6324
12.4043
13.1265
13.7931
14.3988
14.9393
15.4103
15.8077
16.1275
16.3659
16.5188
16.5822
16.5527
16.4356
16.2363
15.9598
15.6109
15.1942
14.7143
14.1752
13.5809
12.9355
12.2429
11.5081
10.7372
9.93876
9.11964
8.28781
7.45256
6.62483
5.81739
5.04504
4.32469
3.67539
3.11807
2.67493
2.36835
2.21913
1.62566
1.77145
2.03047
2.38671
2.82364
3.32527
3.87686
4.46522
5.07885
5.7079
6.3441
6.98074
7.61262
8.23598
8.8434
9.42598
9.97735
10.4925
10.967
11.3969
11.778
12.1063
12.3777
12.5881
12.7333
12.8092
12.8112
12.7363
12.5884
12.3712
12.088
11.7424
11.3382
10.8794
10.3703
9.8157
9.22106
8.59301
7.94021
7.27463
6.60359
5.93317
5.27126
4.62751
4.01333
3.44186
2.92787
2.48754
2.13799
1.89644
1.77893
1.79852
1.95211
2.22548
2.60211
3.06469
3.59631
4.18113
4.80483
5.45474
6.11993
6.79125
7.46133
8.12457
8.77135
9.39076
9.9748
10.5172
11.0127
11.4566
11.8449
12.1734
12.4385
12.6367
12.7645
12.8184
12.7952
12.6995
12.5356
12.3078
12.02
11.6766
11.2815
10.8387
10.3524
9.82663
9.26593
8.67559
8.06249
7.43647
6.80284
6.16576
5.53083
4.90521
4.29759
3.71829
3.17928
2.6942
2.27818
1.94745
1.71853
1.607
0.987693
1.07813
1.23867
1.45935
1.72995
2.04071
2.38266
2.74791
3.12965
3.52221
3.92107
4.32305
4.72657
5.1321
5.53362
5.92277
6.29408
6.64332
6.96685
7.26123
7.52317
7.74941
7.93677
8.08212
8.18243
8.23464
8.23556
8.1832
8.08045
7.9299
7.73419
7.49613
7.21874
6.90532
6.55941
6.18496
5.78642
5.36919
4.94045
4.51107
4.08507
3.66354
3.24979
2.84887
2.46725
2.11266
1.79397
1.521
1.30425
1.15438
1.0814
1.09358
1.18893
1.35851
1.59202
1.87879
2.20846
2.57144
2.95918
3.36428
3.78064
4.20363
4.63052
5.06095
5.48726
5.89984
6.29211
6.659
6.9962
7.29991
7.56662
7.79315
7.97651
8.11396
8.20289
8.24066
8.22506
8.15909
8.04589
7.88848
7.68994
7.45339
7.18206
6.87919
6.54812
6.1923
5.8155
5.42216
5.01832
4.61351
4.21037
3.80902
3.41155
3.02152
2.64378
2.28432
1.95025
1.64978
1.39212
1.18723
1.04531
0.976101
0.335542
0.366522
0.421433
0.496791
0.589031
0.694751
0.81086
0.934652
1.06384
1.19657
1.3315
1.46801
1.60677
1.7515
1.89944
2.04499
2.18539
2.31871
2.44325
2.55739
2.65957
2.74827
2.82201
2.87938
2.91905
2.93972
2.94012
2.91949
2.87902
2.81981
2.74307
2.65009
2.54232
2.42134
2.28883
2.14663
1.99678
1.8417
1.68485
1.53314
1.38729
1.24438
1.10445
0.968812
0.839516
0.719149
0.610741
0.517696
0.443674
0.392404
0.367403
0.371578
0.404232
0.462218
0.541926
0.639619
0.751694
0.874842
1.00615
1.14316
1.284
1.42759
1.57441
1.7286
1.88538
2.03926
2.18719
2.32687
2.45633
2.57379
2.67758
2.76616
2.83813
2.89221
2.92725
2.94213
2.93592
2.90981
2.86507
2.80298
2.72492
2.63229
2.52661
2.40941
2.28225
2.14676
2.00469
1.85808
1.71006
1.56762
1.42965
1.29357
1.15915
1.02726
0.899377
0.777487
0.663995
0.561719
0.473848
0.403845
0.355282
0.331566
)
;

boundaryField
{
    top
    {
        type            fixedValue;
        value           uniform 0;
    }
    bottom
    {
        type            fixedValue;
        value           uniform 36.5;
    }
    frontAndBack
    {
        type            empty;
    }
    left_cyc
    {
        type            cyclic;
    }
    right_cyc
    {
        type            cyclic;
    }
}


// ************************************************************************* //
