/*--------------------------------*- C++ -*----------------------------------*\
| =========                 |                                                 |
| \\      /  F ield         | OpenFOAM: The Open Source CFD Toolbox           |
|  \\    /   O peration     | Version:  2.3.0                                 |
|   \\  /    A nd           | Web:      www.OpenFOAM.org                      |
|    \\/     M anipulation  |                                                 |
\*---------------------------------------------------------------------------*/
FoamFile
{
    version     2.0;
    format      ascii;
    class       volScalarField;
    location    "4000";
    object      T;
}
// * * * * * * * * * * * * * * * * * * * * * * * * * * * * * * * * * * * * * //

dimensions      [0 0 0 1 0 0 0];

internalField   nonuniform List<scalar> 
765
(
39.8922
40.047
40.1042
40.0549
39.9444
39.8438
39.8512
40.0608
40.3464
40.7063
41.1993
41.6295
41.2751
40.7663
40.3899
40.1037
39.8634
39.827
39.9037
39.9892
40.0047
39.8952
39.6918
39.4253
39.0953
38.6891
38.1859
37.5571
36.7699
35.7932
34.6038
33.1675
31.4197
30.0663
29.0855
28.5594
28.5012
28.8603
29.5928
30.613
31.9424
33.583
34.9026
36.011
36.9261
37.6653
38.2557
38.7282
39.1104
39.4237
39.6822
32.7923
33.1146
33.2913
33.3544
33.3433
33.337
33.455
33.8363
34.5294
35.739
37.4574
38.9031
37.714
35.9356
34.6294
33.8526
33.4397
33.2694
33.2256
33.1852
33.065
32.824
32.4084
31.8616
31.2087
30.4529
29.5835
28.573
27.3655
25.8655
23.9844
21.8221
20.0189
18.4889
17.2356
16.395
16.171
16.6484
17.5872
18.8142
20.2822
22.0472
24.1902
26.0352
27.4757
28.6318
29.5952
30.4231
31.1472
31.783
32.3346
27.7576
28.1495
28.4606
28.6974
28.8854
29.0717
29.3346
29.7916
30.8127
32.6078
35.1388
37.226
35.5288
32.9333
31.0172
29.8956
29.3666
29.0583
28.8293
28.5954
28.3085
27.944
27.4966
26.9217
26.2339
25.4511
24.5758
23.6173
22.5646
21.3971
20.0658
18.495
16.755
14.9942
13.4289
12.3286
11.9981
12.558
13.6966
15.1555
16.7391
18.3151
19.7942
21.1085
22.299
23.3577
24.3107
25.1768
25.9566
26.6532
27.2619
25.5088
25.9156
26.2889
26.6298
26.9412
27.2304
27.5344
28.0113
29.0533
30.9873
33.8322
36.1775
34.2862
31.38
29.3198
28.1868
27.6549
27.3355
27.0351
26.7096
26.3519
25.9619
25.5408
25.0898
24.6066
24.0964
23.564
22.9745
22.2716
21.3672
20.1447
18.504
16.4965
14.3449
12.3767
10.9902
10.5878
11.2919
12.7382
14.5639
16.4518
18.1893
19.6413
20.7764
21.6628
22.3812
22.9977
23.5573
24.0902
24.5971
25.0684
25.4753
25.8106
26.1553
26.4969
26.8131
27.0794
27.308
27.6803
28.5436
30.3572
33.2009
35.5329
33.6609
30.7627
28.8217
27.8823
27.4853
27.2635
27.0161
26.7188
26.3954
26.0701
25.7577
25.4633
25.1836
24.9052
24.5967
24.1989
23.6198
22.7339
21.3951
19.4892
17.0925
14.4837
12.0817
10.4036
9.94912
10.8305
12.6403
14.9053
17.2054
19.2669
20.9085
22.0973
22.9221
23.494
23.9107
24.2458
24.5488
24.8474
25.1543
26.4364
26.7068
27.0001
27.2905
27.5386
27.7077
27.8274
28.0214
28.6796
30.3199
33.0057
35.1489
33.4294
30.7032
28.9375
28.2046
27.998
27.8946
27.7588
27.5479
27.2957
27.0418
26.8126
26.6179
26.4513
26.2881
26.0802
25.7482
25.1772
24.2211
22.7218
20.5575
17.7927
14.7399
11.9232
9.9722
9.47424
10.5421
12.7196
15.4245
18.1415
20.5219
22.3635
23.6643
24.5252
25.0677
25.4064
25.6339
25.8166
25.9972
26.2
27.6457
27.8742
28.1114
28.323
28.4677
28.5194
28.5348
28.6369
29.2271
30.6932
33.0236
34.8666
33.3737
31.0135
29.4469
28.788
28.6615
28.6622
28.6418
28.5351
28.365
28.1718
27.989
27.8349
27.7083
27.5839
27.4057
27.08
26.4754
25.4347
23.7961
21.4254
18.3535
14.9137
11.7319
9.53744
8.99751
10.2491
12.7661
15.8616
18.937
21.5756
23.5838
24.9949
25.9192
26.4818
26.8064
26.9997
27.141
27.2808
27.446
28.7817
28.9698
29.1375
29.2591
29.3197
29.3398
29.348
29.4935
30.0366
31.2442
33.1049
34.6216
33.3683
31.4817
30.2026
29.6105
29.4451
29.4447
29.439
29.4018
29.3109
29.1785
29.0289
28.8822
28.7448
28.5986
28.3897
28.0192
27.3495
26.2254
24.4876
21.9822
18.6901
14.9461
11.4674
9.06097
8.47366
9.90365
12.7104
16.1171
19.4625
22.2774
24.4069
25.9094
26.9077
27.5257
27.8878
28.1077
28.2703
28.4261
28.5961
29.6746
29.8292
29.9561
30.0516
30.1169
30.1604
30.2252
30.418
30.8956
31.8286
33.2177
34.4048
33.3975
31.9872
31.0083
30.5002
30.2949
30.2305
30.1944
30.1405
30.0636
29.9569
29.8238
29.6695
29.4935
29.2783
28.9758
28.498
27.7221
26.5118
24.7153
22.1436
18.7034
14.7471
11.0704
8.50004
7.88347
9.47244
12.4803
16.0869
19.6242
22.5511
24.7333
26.2921
27.3736
28.0931
28.5592
28.8728
29.1095
29.3128
29.5005
30.2299
30.4122
30.5682
30.6984
30.8089
30.9143
31.0467
31.2671
31.6685
32.3541
33.3316
34.2067
33.4415
32.45
31.738
31.3201
31.0938
30.9623
30.8613
30.7563
30.6295
30.4781
30.3
30.09
29.8369
29.5166
29.0806
28.4505
27.5257
26.2004
24.3376
21.7105
18.196
14.193
10.4677
7.82072
7.18689
8.87534
11.9648
15.6252
19.234
22.2159
24.4335
26.054
27.246
28.1085
28.7215
29.1655
29.5054
29.7833
30.0215
30.1737
30.4543
30.7107
30.9463
31.1659
31.3777
31.5986
31.8607
32.2149
32.7188
33.381
33.9845
33.4415
32.7732
32.257
31.8956
31.6314
31.4109
31.1998
30.9792
30.7397
30.4761
30.1839
29.853
29.4634
28.9904
28.3855
27.5796
26.4937
25.0556
23.1411
20.4763
17.007
13.1839
9.59992
6.99328
6.35857
8.06241
11.0826
14.6078
18.0913
21.0457
23.2821
24.9484
26.2473
27.2618
28.0405
28.6426
29.1227
29.5222
29.8655
28.9136
29.3746
29.807
30.2168
30.6096
30.9903
31.3641
31.7412
32.1397
32.5817
33.0662
33.4726
33.1011
32.6184
32.1734
31.7722
31.392
31.013
30.6234
30.2163
29.7859
29.326
28.8314
28.3031
27.7266
27.0723
26.299
25.3503
24.1604
22.6712
20.7695
18.2211
15.0515
11.6313
8.39188
5.97583
5.36926
6.97412
9.74002
12.9083
16.0221
18.7602
20.9155
22.5663
23.9108
25.0215
25.9319
26.6879
27.3315
27.8959
28.4201
25.3934
26.0618
26.696
27.3042
27.8955
28.4765
29.0496
29.613
30.1614
30.6844
31.154
31.467
31.1849
30.725
30.203
29.6496
29.0751
28.4841
27.8776
27.2523
26.6008
25.9139
25.1865
24.4272
23.6639
22.8808
22.0214
21.0598
19.9423
18.5847
16.8871
14.7495
12.1825
9.40496
6.74119
4.71203
4.18315
5.53975
7.82678
10.4095
12.9312
15.1625
16.9896
18.4636
19.6845
20.7256
21.6423
22.4697
23.228
23.9632
24.6903
18.4679
19.1812
19.8686
20.5361
21.1899
21.834
22.4678
23.0859
23.6759
24.2149
24.6582
24.8987
24.6863
24.2554
23.7157
23.1152
22.4783
21.8181
21.1405
20.4457
19.7298
18.9868
18.215
17.4263
16.6413
15.8772
15.1484
14.3948
13.564
12.5943
11.4066
9.94132
8.21627
6.35381
4.54994
3.14771
2.76759
3.70551
5.25595
6.98289
8.66298
10.1629
11.4195
12.4531
13.3274
14.1048
14.8292
15.5217
16.2423
16.9849
17.7311
7.30687
7.69196
8.07288
8.45088
8.82785
9.20377
9.57541
9.93535
10.2709
10.5631
10.7845
10.8895
10.7993
10.5873
10.2976
9.95831
9.58936
9.20428
8.81116
8.41365
8.01203
7.60516
7.19456
6.78909
6.39694
6.01738
5.65022
5.30591
4.97156
4.61453
4.20314
3.71145
3.12942
2.47529
1.80649
1.25901
1.10212
1.46995
2.05402
2.67241
3.24658
3.74685
4.16999
4.5307
4.85175
5.15703
5.46991
5.81582
6.17501
6.54342
6.92133
)
;

boundaryField
{
    top
    {
        type            fixedValue;
        value           uniform 0;
    }
    bottom
    {
        type            fixedValue;
        value           uniform 43.8;
    }
    frontAndBack
    {
        type            empty;
    }
    left_cyc
    {
        type            cyclic;
    }
    right_cyc
    {
        type            cyclic;
    }
}


// ************************************************************************* //
