/*--------------------------------*- C++ -*----------------------------------*\
| =========                 |                                                 |
| \\      /  F ield         | OpenFOAM: The Open Source CFD Toolbox           |
|  \\    /   O peration     | Version:  2.3.0                                 |
|   \\  /    A nd           | Web:      www.OpenFOAM.org                      |
|    \\/     M anipulation  |                                                 |
\*---------------------------------------------------------------------------*/
FoamFile
{
    version     2.0;
    format      ascii;
    class       volVectorField;
    location    "4000";
    object      U;
}
// * * * * * * * * * * * * * * * * * * * * * * * * * * * * * * * * * * * * * //

dimensions      [0 1 -1 0 0 0 0];

internalField   nonuniform List<vector> 
3060
(
(0.589334 0 -0.389114)
(1.51613 0 -0.375547)
(2.42045 0 -0.350509)
(3.28949 0 -0.314764)
(4.11151 0 -0.269534)
(4.87621 0 -0.216787)
(5.57485 0 -0.159435)
(6.2004 0 -0.101218)
(6.74719 0 -0.046103)
(7.21012 0 0.00260855)
(7.58321 0 0.0430061)
(7.85789 0 0.0746978)
(8.02163 0 0.0984)
(8.05726 0 0.115404)
(7.94432 0 0.128139)
(7.66368 0 0.142196)
(7.20558 0 0.163422)
(6.5781 0 0.189299)
(5.80847 0 0.20867)
(4.945 0 0.212398)
(4.04528 0 0.200934)
(3.16354 0 0.178342)
(2.34123 0 0.151201)
(1.59556 0 0.126231)
(0.919615 0 0.108101)
(0.290357 0 0.0988754)
(-0.322603 0 0.0990651)
(-0.951441 0 0.108645)
(-1.62621 0 0.127035)
(-2.36924 0 0.152066)
(-3.18617 0 0.178923)
(-4.05814 0 0.200772)
(-4.94196 0 0.21103)
(-5.78176 0 0.205792)
(-6.51896 0 0.185415)
(-7.10538 0 0.159463)
(-7.51337 0 0.138061)
(-7.7349 0 0.122291)
(-7.78176 0 0.105662)
(-7.67436 0 0.0831995)
(-7.43415 0 0.0530356)
(-7.07853 0 0.0142016)
(-6.62056 0 -0.0332204)
(-6.06985 0 -0.0876993)
(-5.43426 0 -0.146146)
(-4.72143 0 -0.204453)
(-3.93996 0 -0.258441)
(-3.09991 0 -0.304654)
(-2.21283 0 -0.340661)
(-1.2916 0 -0.364923)
(-0.350132 0 -0.376472)
(0.596868 0 -0.374721)
(1.53444 0 -0.359787)
(2.44807 0 -0.332354)
(3.32408 0 -0.293509)
(4.14991 0 -0.244995)
(4.91439 0 -0.18951)
(5.60786 0 -0.130752)
(6.22204 0 -0.0729705)
(6.74937 0 -0.0200931)
(7.18172 0 0.0251694)
(7.50869 0 0.0616929)
(7.71616 0 0.0896984)
(7.78556 0 0.110374)
(7.69498 0 0.126212)
(7.42521 0 0.143006)
(6.9691 0 0.166114)
(6.33989 0 0.191767)
(5.5706 0 0.208814)
(4.71358 0 0.209718)
(3.82785 0 0.195956)
(2.96688 0 0.172125)
(2.16844 0 0.145128)
(1.44458 0 0.121476)
(0.78437 0 0.105258)
(0.162733 0 0.0981011)
(-0.451376 0 0.10038)
(-1.09006 0 0.112014)
(-1.78244 0 0.132218)
(-2.54829 0 0.158312)
(-3.3888 0 0.184944)
(-4.27994 0 0.205211)
(-5.17583 0 0.213049)
(-6.02035 0 0.204923)
(-6.7569 0 0.182676)
(-7.34208 0 0.157136)
(-7.75402 0 0.137978)
(-7.98936 0 0.125036)
(-8.06172 0 0.111557)
(-7.9908 0 0.0929039)
(-7.79672 0 0.06724)
(-7.49539 0 0.0333235)
(-7.09822 0 -0.00932684)
(-6.61295 0 -0.0599484)
(-6.04516 0 -0.116229)
(-5.4 0 -0.174607)
(-4.68342 0 -0.231093)
(-3.9029 0 -0.282125)
(-3.06759 0 -0.325042)
(-2.18819 0 -0.358097)
(-1.27674 0 -0.380214)
(-0.346304 0 -0.390702)
(0.89579 0 -1.63006)
(2.31188 0 -1.61013)
(3.71275 0 -1.57347)
(5.08961 0 -1.52152)
(6.43441 0 -1.45588)
(7.73935 0 -1.3779)
(8.99605 0 -1.28809)
(10.1941 0 -1.18574)
(11.3199 0 -1.0687)
(12.3556 0 -0.933235)
(13.2789 0 -0.773812)
(14.0631 0 -0.582908)
(14.6765 0 -0.351163)
(15.0819 0 -0.0691654)
(15.2347 0 0.264885)
(15.0844 0 0.629209)
(14.5877 0 0.977827)
(13.7251 0 1.27006)
(12.5042 0 1.48277)
(10.9824 0 1.6066)
(9.26109 0 1.6393)
(7.45296 0 1.58427)
(5.65879 0 1.47243)
(3.94014 0 1.34749)
(2.31099 0 1.24653)
(0.748843 0 1.19138)
(-0.787738 0 1.19071)
(-2.34536 0 1.24421)
(-3.96471 0 1.34254)
(-5.66666 0 1.46302)
(-7.43472 0 1.56779)
(-9.20428 0 1.61273)
(-10.8718 0 1.56744)
(-12.3225 0 1.42874)
(-13.4556 0 1.19869)
(-14.2179 0 0.886544)
(-14.6052 0 0.517227)
(-14.6408 0 0.137423)
(-14.3717 0 -0.204301)
(-13.851 0 -0.489812)
(-13.1234 0 -0.723541)
(-12.2278 0 -0.915249)
(-11.1973 0 -1.07408)
(-10.0598 0 -1.20723)
(-8.83828 0 -1.31995)
(-7.55086 0 -1.41568)
(-6.21142 0 -1.49624)
(-4.83089 0 -1.56201)
(-3.41875 0 -1.61232)
(-1.98412 0 -1.64601)
(-0.536406 0 -1.66196)
(0.914839 0 -1.65955)
(2.36007 0 -1.63889)
(3.78972 0 -1.60075)
(5.19449 0 -1.5463)
(6.56525 0 -1.47665)
(7.89227 0 -1.39223)
(9.164 0 -1.29231)
(10.3655 0 -1.17467)
(11.4776 0 -1.03541)
(12.4759 0 -0.868796)
(13.3311 0 -0.667085)
(14.0087 0 -0.420732)
(14.4684 0 -0.120424)
(14.6633 0 0.234351)
(14.5398 0 0.616751)
(14.056 0 0.974735)
(13.1953 0 1.2671)
(11.9719 0 1.47382)
(10.4537 0 1.58834)
(8.74874 0 1.60891)
(6.97071 0 1.54458)
(5.21555 0 1.43141)
(3.53533 0 1.3136)
(1.93517 0 1.22539)
(0.387395 0 1.18551)
(-1.15137 0 1.20069)
(-2.7275 0 1.26905)
(-4.37898 0 1.379)
(-6.12053 0 1.50461)
(-7.92616 0 1.6057)
(-9.72231 0 1.63987)
(-11.4027 0 1.58313)
(-12.8547 0 1.43587)
(-13.9856 0 1.20107)
(-14.7523 0 0.891252)
(-15.1559 0 0.533777)
(-15.2224 0 0.173444)
(-14.999 0 -0.147851)
(-14.5356 0 -0.415974)
(-13.8744 0 -0.636126)
(-13.0511 0 -0.818)
(-12.0962 0 -0.970546)
(-11.0351 0 -1.10076)
(-9.88898 0 -1.21368)
(-8.67448 0 -1.31261)
(-7.40434 0 -1.39933)
(-6.08826 0 -1.47419)
(-4.73437 0 -1.53642)
(-3.35046 0 -1.58455)
(-1.94476 0 -1.61698)
(-0.526227 0 -1.63238)
(1.00404 0 -3.10737)
(2.59004 0 -3.07572)
(4.15561 0 -3.01705)
(5.68826 0 -2.93291)
(7.17545 0 -2.8249)
(8.60439 0 -2.694)
(9.9618 0 -2.53987)
(11.2337 0 -2.36047)
(12.4056 0 -2.15198)
(13.4624 0 -1.90903)
(14.3893 0 -1.62492)
(15.1723 0 -1.29184)
(15.7998 0 -0.901266)
(16.2625 0 -0.444874)
(16.5539 0 0.0855842)
(16.6593 0 0.699549)
(16.5313 0 1.40163)
(16.0809 0 2.16019)
(15.2154 0 2.86917)
(13.8719 0 3.38429)
(12.0868 0 3.65395)
(9.99059 0 3.70358)
(7.7484 0 3.59098)
(5.48483 0 3.40566)
(3.25929 0 3.23514)
(1.07735 0 3.13572)
(-1.08418 0 3.13144)
(-3.25627 0 3.22156)
(-5.46118 0 3.38034)
(-7.69147 0 3.54968)
(-9.88484 0 3.64051)
(-11.9138 0 3.56301)
(-13.6129 0 3.25929)
(-14.8566 0 2.70661)
(-15.6169 0 1.968)
(-15.9624 0 1.19224)
(-15.9905 0 0.479479)
(-15.7893 0 -0.143622)
(-15.3998 0 -0.682376)
(-14.8332 0 -1.14529)
(-14.0968 0 -1.53972)
(-13.2018 0 -1.87363)
(-12.1621 0 -2.15529)
(-10.9939 0 -2.39244)
(-9.71416 0 -2.59172)
(-8.33984 0 -2.7584)
(-6.88732 0 -2.89597)
(-5.37227 0 -3.00612)
(-3.80961 0 -3.08895)
(-2.21376 0 -3.1437)
(-0.598825 0 -3.16941)
(1.02125 0 -3.16554)
(2.63256 0 -3.13219)
(4.22112 0 -3.07002)
(5.77277 0 -2.98001)
(7.27298 0 -2.86278)
(8.70665 0 -2.71785)
(10.0579 0 -2.54309)
(11.3102 0 -2.33451)
(12.4466 0 -2.08647)
(13.4501 0 -1.79197)
(14.305 0 -1.44309)
(14.998 0 -1.03155)
(15.5191 0 -0.549611)
(15.8613 0 0.0102645)
(16.0088 0 0.656789)
(15.9077 0 1.39091)
(15.4629 0 2.17002)
(14.5807 0 2.87364)
(13.2107 0 3.36225)
(11.4107 0 3.60309)
(9.32337 0 3.63003)
(7.11052 0 3.50923)
(4.88343 0 3.335)
(2.68798 0 3.18993)
(0.521452 0 3.12301)
(-1.64245 0 3.15299)
(-3.83427 0 3.27441)
(-6.07204 0 3.45566)
(-8.33848 0 3.63129)
(-10.5571 0 3.70911)
(-12.5882 0 3.60672)
(-14.268 0 3.27401)
(-15.4856 0 2.69806)
(-16.2347 0 1.96175)
(-16.5917 0 1.21097)
(-16.6515 0 0.531081)
(-16.4951 0 -0.0601078)
(-16.1585 0 -0.570405)
(-15.6523 0 -1.0089)
(-14.9834 0 -1.3837)
(-14.1617 0 -1.70324)
(-13.1996 0 -1.97592)
(-12.1114 0 -2.20931)
(-10.9121 0 -2.40978)
(-9.61656 0 -2.5823)
(-8.23922 0 -2.73026)
(-6.79386 0 -2.85523)
(-5.29362 0 -2.95716)
(-3.7512 0 -3.03484)
(-2.17912 0 -3.08661)
(-0.589857 0 -3.11104)
(1.04969 0 -4.74847)
(2.7059 0 -4.6994)
(4.33578 0 -4.60798)
(5.92331 0 -4.47582)
(7.45263 0 -4.30456)
(8.90806 0 -4.09524)
(10.2743 0 -3.84781)
(11.5364 0 -3.56084)
(12.6806 0 -3.23157)
(13.6938 0 -2.85612)
(14.5644 0 -2.42972)
(15.2824 0 -1.94675)
(15.8394 0 -1.40073)
(16.2285 0 -0.783502)
(16.4432 0 -0.0829017)
(16.4758 0 0.7193)
(16.3182 0 1.63724)
(15.9599 0 2.65562)
(15.3714 0 3.7221)
(14.4565 0 4.74597)
(13.0648 0 5.54615)
(11.1557 0 5.94309)
(8.86294 0 5.99077)
(6.37995 0 5.84686)
(3.83858 0 5.6639)
(1.29196 0 5.54474)
(-1.24808 0 5.53418)
(-3.78002 0 5.63104)
(-6.29136 0 5.78792)
(-8.72755 0 5.89929)
(-10.955 0 5.81072)
(-12.7827 0 5.36544)
(-14.0846 0 4.52057)
(-14.9144 0 3.46473)
(-15.423 0 2.37462)
(-15.6993 0 1.33909)
(-15.7689 0 0.408713)
(-15.6421 0 -0.405194)
(-15.3272 0 -1.11839)
(-14.8319 0 -1.74739)
(-14.1635 0 -2.3022)
(-13.3301 0 -2.78951)
(-12.3417 0 -3.21498)
(-11.2107 0 -3.58374)
(-9.95106 0 -3.90033)
(-8.57831 0 -4.16844)
(-7.10917 0 -4.3906)
(-5.56107 0 -4.56802)
(-3.95188 0 -4.7007)
(-2.29962 0 -4.7879)
(-0.622446 0 -4.82872)
(1.06147 0 -4.82259)
(2.73389 0 -4.7696)
(4.37666 0 -4.67044)
(5.97166 0 -4.52605)
(7.50088 0 -4.33701)
(8.94655 0 -4.10305)
(10.2914 0 -3.8226)
(11.519 0 -3.49281)
(12.6141 0 -3.10975)
(13.5631 0 -2.6687)
(14.3544 0 -2.16437)
(14.9785 0 -1.59095)
(15.4275 0 -0.941218)
(15.6942 0 -0.203638)
(15.7707 0 0.639709)
(15.6483 0 1.60028)
(15.3156 0 2.65625)
(14.7352 0 3.74831)
(13.7972 0 4.77091)
(12.3548 0 5.52235)
(10.406 0 5.86257)
(8.10621 0 5.88295)
(5.64125 0 5.74613)
(3.12168 0 5.59721)
(0.587258 0 5.52577)
(-1.9547 0 5.56632)
(-4.50209 0 5.70856)
(-7.03602 0 5.89377)
(-9.48599 0 6.00353)
(-11.6974 0 5.87876)
(-13.4793 0 5.37303)
(-14.7348 0 4.49158)
(-15.5508 0 3.44383)
(-16.0734 0 2.38319)
(-16.3782 0 1.38721)
(-16.4855 0 0.4996)
(-16.4047 0 -0.274156)
(-16.1441 0 -0.951504)
(-15.7106 0 -1.54925)
(-15.111 0 -2.07819)
(-14.3525 0 -2.54586)
(-13.4438 0 -2.95851)
(-12.3953 0 -3.32152)
(-11.2192 0 -3.63945)
(-9.92854 0 -3.91592)
(-8.53766 0 -4.15335)
(-7.06151 0 -4.35281)
(-5.51552 0 -4.51404)
(-3.91544 0 -4.63576)
(-2.27716 0 -4.7163)
(-0.616734 0 -4.75415)
(1.05836 0 -6.44442)
(2.72672 0 -6.37579)
(4.36449 0 -6.24764)
(5.95325 0 -6.06178)
(7.47508 0 -5.82016)
(8.91272 0 -5.52425)
(10.2499 0 -5.17461)
(11.4714 0 -4.77064)
(12.5636 0 -4.31059)
(13.5144 0 -3.79172)
(14.3132 0 -3.21054)
(14.951 0 -2.56287)
(15.4198 0 -1.84374)
(15.7129 0 -1.04676)
(15.8247 0 -0.16284)
(15.7533 0 0.81991)
(15.5034 0 1.91038)
(15.0829 0 3.10525)
(14.4898 0 4.38827)
(13.7044 0 5.71333)
(12.6591 0 6.95793)
(11.1935 0 7.9146)
(9.17686 0 8.37674)
(6.74951 0 8.43307)
(4.11838 0 8.32359)
(1.40956 0 8.22211)
(-1.31421 0 8.20319)
(-4.0052 0 8.26543)
(-6.60061 0 8.33122)
(-8.97444 0 8.22378)
(-10.9225 0 7.70425)
(-12.3161 0 6.69638)
(-13.295 0 5.41347)
(-14.0145 0 4.05944)
(-14.5373 0 2.75144)
(-14.8807 0 1.53285)
(-15.0447 0 0.42006)
(-15.0215 0 -0.584144)
(-14.8072 0 -1.48861)
(-14.4053 0 -2.30368)
(-13.8224 0 -3.03639)
(-13.0665 0 -3.69152)
(-12.1472 0 -4.27289)
(-11.0756 0 -4.78388)
(-9.86477 0 -5.22749)
(-8.52977 0 -5.60607)
(-7.08735 0 -5.92108)
(-5.55577 0 -6.17294)
(-3.95443 0 -6.36116)
(-2.30354 0 -6.4847)
(-0.623803 0 -6.54246)
(1.06374 0 -6.53379)
(2.73797 0 -6.45878)
(4.37792 0 -6.31826)
(5.96299 0 -6.11336)
(7.47315 0 -5.84502)
(8.88927 0 -5.51354)
(10.1935 0 -5.1182)
(11.3694 0 -4.6573)
(12.4025 0 -4.12829)
(13.2802 0 -3.52805)
(13.9918 0 -2.85311)
(14.5283 0 -2.09948)
(14.8819 0 -1.26195)
(15.0465 0 -0.33256)
(15.0203 0 0.699438)
(14.8088 0 1.8407)
(14.4194 0 3.08471)
(13.8478 0 4.41108)
(13.0701 0 5.76139)
(12.0018 0 6.99594)
(10.4681 0 7.89018)
(8.38842 0 8.28225)
(5.93932 0 8.32183)
(3.31047 0 8.24422)
(0.606039 0 8.19903)
(-2.11852 0 8.24222)
(-4.81461 0 8.35658)
(-7.40874 0 8.44392)
(-9.75075 0 8.30451)
(-11.6274 0 7.70793)
(-12.9639 0 6.65167)
(-13.9298 0 5.36964)
(-14.6618 0 4.04729)
(-15.2089 0 2.78478)
(-15.5854 0 1.61605)
(-15.7896 0 0.553954)
(-15.8136 0 -0.401831)
(-15.6542 0 -1.26203)
(-15.3148 0 -2.03802)
(-14.8014 0 -2.73802)
(-14.1209 0 -3.36797)
(-13.2816 0 -3.93257)
(-12.2929 0 -4.43584)
(-11.1658 0 -4.88107)
(-9.91282 0 -5.27077)
(-8.54803 0 -5.60642)
(-7.08687 0 -5.88831)
(-5.54593 0 -6.11559)
(-3.94266 0 -6.28663)
(-2.29515 0 -6.39944)
(-0.621882 0 -6.45236)
(1.03803 0 -8.1092)
(2.67303 0 -8.018)
(4.27458 0 -7.84762)
(5.82272 0 -7.6004)
(7.29829 0 -7.27907)
(8.68316 0 -6.88619)
(9.9606 0 -6.42371)
(11.1155 0 -5.89265)
(12.1346 0 -5.29305)
(13.0064 0 -4.62392)
(13.7213 0 -3.88338)
(14.2711 0 -3.06862)
(14.6492 0 -2.17575)
(14.8502 0 -1.19955)
(14.8708 0 -0.133226)
(14.7116 0 1.03041)
(14.3786 0 2.29426)
(13.8816 0 3.6511)
(13.2301 0 5.08451)
(12.4303 0 6.5708)
(11.4712 0 8.06108)
(10.2867 0 9.42779)
(8.70856 0 10.4355)
(6.60037 0 10.9094)
(4.10579 0 11.0079)
(1.42972 0 10.9812)
(-1.29383 0 10.9528)
(-3.95092 0 10.9216)
(-6.40856 0 10.7612)
(-8.46481 0 10.2215)
(-9.98714 0 9.15448)
(-11.1189 0 7.74143)
(-12.0243 0 6.21331)
(-12.7648 0 4.69184)
(-13.349 0 3.2242)
(-13.7701 0 1.83441)
(-14.0181 0 0.539439)
(-14.0835 0 -0.653585)
(-13.9611 0 -1.74723)
(-13.6517 0 -2.74719)
(-13.1599 0 -3.65824)
(-12.4921 0 -4.4837)
(-11.6569 0 -5.22583)
(-10.6645 0 -5.88617)
(-9.52725 0 -6.46563)
(-8.25958 0 -6.96444)
(-6.87814 0 -7.38212)
(-5.40151 0 -7.71741)
(-3.84986 0 -7.96854)
(-2.24462 0 -8.13353)
(-0.608093 0 -8.2107)
(1.03692 0 -8.19911)
(2.66748 0 -8.0989)
(4.26086 0 -7.91127)
(5.79497 0 -7.63802)
(7.24867 0 -7.2811)
(8.60216 0 -6.84218)
(9.83736 0 -6.32234)
(10.9382 0 -5.72187)
(11.8907 0 -5.04035)
(12.6832 0 -4.2767)
(13.3058 0 -3.42921)
(13.7507 0 -2.49538)
(14.0117 0 -1.47154)
(14.085 0 -0.352523)
(13.9713 0 0.867149)
(13.6772 0 2.18802)
(13.2127 0 3.60003)
(12.5875 0 5.08444)
(11.8059 0 6.61392)
(10.8513 0 8.12877)
(9.63681 0 9.47671)
(7.98087 0 10.4132)
(5.79767 0 10.8284)
(3.27205 0 10.9346)
(0.586284 0 10.9586)
(-2.13602 0 10.991)
(-4.77965 0 11.0029)
(-7.1966 0 10.8335)
(-9.16893 0 10.2223)
(-10.6252 0 9.09591)
(-11.7385 0 7.67754)
(-12.6532 0 6.18069)
(-13.4144 0 4.70508)
(-14.0265 0 3.28972)
(-14.4818 0 1.95583)
(-14.7705 0 0.717903)
(-14.8833 0 -0.419765)
(-14.8156 0 -1.46189)
(-14.5681 0 -2.41582)
(-14.1447 0 -3.28794)
(-13.5513 0 -4.08307)
(-12.7947 0 -4.80481)
(-11.8835 0 -5.4557)
(-10.8279 0 -6.03742)
(-9.63979 0 -6.55068)
(-8.33287 0 -6.99519)
(-6.92272 0 -7.36967)
(-5.42648 0 -7.67198)
(-3.86256 0 -7.89946)
(-2.25036 0 -8.04944)
(-0.609987 0 -8.11974)
(0.993918 0 -9.72486)
(2.5583 0 -9.60969)
(4.08761 0 -9.39455)
(5.5611 0 -9.08252)
(6.95901 0 -8.6774)
(8.26298 0 -8.18313)
(9.45631 0 -7.60333)
(10.5242 0 -6.94089)
(11.454 0 -6.19778)
(12.2349 0 -5.37491)
(12.8583 0 -4.47216)
(13.3172 0 -3.48831)
(13.6062 0 -2.4211)
(13.7219 0 -1.26731)
(13.6632 0 -0.0231822)
(13.4322 0 1.31416)
(13.0358 0 2.74357)
(12.4837 0 4.25663)
(11.7864 0 5.8374)
(10.9547 0 7.46201)
(9.99601 0 9.09449)
(8.90242 0 10.6745)
(7.599 0 12.0637)
(5.91765 0 13.0328)
(3.77493 0 13.4939)
(1.34017 0 13.6259)
(-1.17968 0 13.5879)
(-3.5963 0 13.3797)
(-5.70529 0 12.8418)
(-7.34559 0 11.8023)
(-8.60797 0 10.3557)
(-9.65908 0 8.72738)
(-10.5693 0 7.05015)
(-11.3446 0 5.38218)
(-11.977 0 3.75887)
(-12.4556 0 2.20423)
(-12.7696 0 0.734835)
(-12.9095 0 -0.640328)
(-12.8694 0 -1.91919)
(-12.6481 0 -3.10292)
(-12.248 0 -4.19316)
(-11.6739 0 -5.19096)
(-10.933 0 -6.09659)
(-10.0344 0 -6.90949)
(-8.98959 0 -7.62839)
(-7.81243 0 -8.25126)
(-6.51908 0 -8.77543)
(-5.12795 0 -9.19771)
(-3.65939 0 -9.51472)
(-2.1353 0 -9.72327)
(-0.578684 0 -9.82088)
(0.986757 0 -9.80621)
(2.53716 0 -9.67949)
(4.04895 0 -9.44238)
(5.49938 0 -9.09761)
(6.8669 0 -8.64845)
(8.13165 0 -8.09827)
(9.27577 0 -7.45015)
(10.2837 0 -6.7066)
(11.1422 0 -5.86946)
(11.8404 0 -4.93982)
(12.3698 0 -3.91801)
(12.7237 0 -2.80357)
(12.8979 0 -1.59522)
(12.8908 0 -0.291305)
(12.7048 0 1.10887)
(12.3469 0 2.60169)
(11.8271 0 4.17612)
(11.1565 0 5.81378)
(10.3455 0 7.48812)
(9.4003 0 9.16008)
(8.30558 0 10.7586)
(6.96235 0 12.1215)
(5.19841 0 13.0266)
(2.98766 0 13.457)
(0.525732 0 13.6114)
(-1.99026 0 13.6118)
(-4.37056 0 13.415)
(-6.40132 0 12.8316)
(-7.96763 0 11.733)
(-9.20254 0 10.2738)
(-10.258 0 8.67122)
(-11.184 0 7.03659)
(-11.9816 0 5.4205)
(-12.6422 0 3.85547)
(-13.1548 0 2.36298)
(-13.509 0 0.95712)
(-13.6956 0 -0.355786)
(-13.709 0 -1.57604)
(-13.548 0 -2.70696)
(-13.2143 0 -3.75221)
(-12.7121 0 -4.71479)
(-12.0469 0 -5.59669)
(-11.2264 0 -6.39884)
(-10.2595 0 -7.12109)
(-9.15768 0 -7.76226)
(-7.93406 0 -8.32011)
(-6.60396 0 -8.79155)
(-5.18456 0 -9.17284)
(-3.6946 0 -9.46)
(-2.15413 0 -9.64939)
(-0.584115 0 -9.73818)
(0.930537 0 -11.2523)
(2.3941 0 -11.1124)
(3.82206 0 -10.8512)
(5.19344 0 -10.4726)
(6.48849 0 -9.9818)
(7.68905 0 -9.38437)
(8.77885 0 -8.68586)
(9.74374 0 -7.89126)
(10.5718 0 -7.00468)
(11.2533 0 -6.02913)
(11.7807 0 -4.96644)
(12.1483 0 -3.81723)
(12.3525 0 -2.5811)
(12.3914 0 -1.257)
(12.2658 0 0.156038)
(11.9792 0 1.65741)
(11.5387 0 3.24252)
(10.9537 0 4.9009)
(10.2354 0 6.61574)
(9.39528 0 8.36403)
(8.4443 0 10.1149)
(7.38987 0 11.8249)
(6.22189 0 13.4156)
(4.85329 0 14.7303)
(3.15416 0 15.5798)
(1.14375 0 15.9368)
(-0.974413 0 15.8901)
(-2.9695 0 15.4412)
(-4.64264 0 14.5068)
(-5.98156 0 13.12)
(-7.11763 0 11.4689)
(-8.13471 0 9.70438)
(-9.04075 0 7.90123)
(-9.82779 0 6.10136)
(-10.4848 0 4.3354)
(-10.9999 0 2.62678)
(-11.3621 0 0.993106)
(-11.5622 0 -0.554157)
(-11.5937 0 -2.00915)
(-11.454 0 -3.36932)
(-11.1436 0 -4.63328)
(-10.6657 0 -5.79962)
(-10.0257 0 -6.86633)
(-9.23175 0 -7.83055)
(-8.29402 0 -8.6886)
(-7.22546 0 -9.43597)
(-6.0415 0 -10.0676)
(-4.75998 0 -10.578)
(-3.40091 0 -10.9621)
(-1.98603 0 -11.2151)
(-0.53842 0 -11.3336)
(0.918085 0 -11.3158)
(2.35944 0 -11.162)
(3.76194 0 -10.8744)
(5.10283 0 -10.4569)
(6.36076 0 -9.91435)
(7.51626 0 -9.25207)
(8.55209 0 -8.47539)
(9.45349 0 -7.58929)
(10.2082 0 -6.59806)
(10.8066 0 -5.50517)
(11.2413 0 -4.31326)
(11.5074 0 -3.02413)
(11.6024 0 -1.63912)
(11.5265 0 -0.159746)
(11.2835 0 1.41082)
(10.8805 0 3.06542)
(10.3273 0 4.79094)
(9.63524 0 6.56828)
(8.8162 0 8.3723)
(7.8806 0 10.1702)
(6.83508 0 11.9147)
(5.65832 0 13.5154)
(4.24312 0 14.7993)
(2.47471 0 15.6019)
(0.425254 0 15.9389)
(-1.68729 0 15.886)
(-3.63216 0 15.4089)
(-5.2373 0 14.4266)
(-6.54026 0 13.0199)
(-7.67441 0 11.387)
(-8.70239 0 9.66083)
(-9.62541 0 7.90722)
(-10.4349 0 6.16503)
(-11.1197 0 4.46299)
(-11.6681 0 2.82237)
(-12.0694 0 1.25836)
(-12.3146 0 -0.220209)
(-12.3976 0 -1.61006)
(-12.3156 0 -2.91116)
(-12.0687 0 -4.12459)
(-11.659 0 -5.25129)
(-11.0909 0 -6.29142)
(-10.3704 0 -7.24404)
(-9.50576 0 -8.10702)
(-8.50713 0 -8.87706)
(-7.38706 0 -9.54978)
(-6.16027 0 -10.12)
(-4.84354 0 -10.5821)
(-3.45548 0 -10.9306)
(-2.0162 0 -11.1606)
(-0.546911 0 -11.2685)
(0.851542 0 -12.6658)
(2.18987 0 -12.5011)
(3.49296 0 -12.1938)
(4.74021 0 -11.7488)
(5.91233 0 -11.1729)
(6.99177 0 -10.4733)
(7.96303 0 -9.65783)
(8.81289 0 -8.73364)
(9.53049 0 -7.70716)
(10.1073 0 -6.58364)
(10.537 0 -5.36702)
(10.8154 0 -4.05995)
(10.9404 0 -2.66407)
(10.912 0 -1.18052)
(10.7324 0 0.389101)
(10.4065 0 2.04137)
(9.9416 0 3.76904)
(9.34748 0 5.55974)
(8.63517 0 7.39545)
(7.81691 0 9.25249)
(6.90535 0 11.101)
(5.9127 0 12.9033)
(4.84998 0 14.6029)
(3.70022 0 16.0926)
(2.38963 0 17.1947)
(0.880627 0 17.7466)
(-0.715529 0 17.6931)
(-2.21378 0 17.0387)
(-3.50672 0 15.8464)
(-4.63504 0 14.2809)
(-5.67153 0 12.5151)
(-6.63091 0 10.6512)
(-7.50154 0 8.74256)
(-8.27105 0 6.82583)
(-8.92663 0 4.93076)
(-9.45599 0 3.08156)
(-9.84808 0 1.29718)
(-10.0935 0 -0.408712)
(-10.1853 0 -2.02729)
(-10.1195 0 -3.5529)
(-9.89488 0 -4.98134)
(-9.51299 0 -6.30863)
(-8.97771 0 -7.53029)
(-8.29548 0 -8.64099)
(-7.47534 0 -9.63446)
(-6.52897 0 -10.5036)
(-5.47076 0 -11.2407)
(-4.31761 0 -11.8382)
(-3.08872 0 -12.2885)
(-1.8052 0 -12.5856)
(-0.489573 0 -12.7249)
(0.83478 0 -12.704)
(2.14426 0 -12.5232)
(3.41566 0 -12.1856)
(4.62677 0 -11.6963)
(5.75693 0 -11.0617)
(6.78751 0 -10.2894)
(7.70225 0 -9.38716)
(8.48745 0 -8.3625)
(9.13214 0 -7.22234)
(9.62795 0 -5.9727)
(9.96912 0 -4.61868)
(10.1523 0 -3.16457)
(10.1768 0 -1.61432)
(10.0445 0 0.0276382)
(9.76012 0 1.75503)
(9.33128 0 3.55786)
(8.7679 0 5.42109)
(8.08141 0 7.32439)
(7.28431 0 9.24213)
(6.38937 0 11.143)
(5.40896 0 12.9879)
(4.35237 0 14.7141)
(3.18951 0 16.2013)
(1.84196 0 17.2657)
(0.301911 0 17.766)
(-1.2892 0 17.6609)
(-2.7509 0 16.956)
(-4.01178 0 15.7339)
(-5.13358 0 14.1751)
(-6.17854 0 12.4411)
(-7.15129 0 10.6224)
(-8.03978 0 8.76853)
(-8.8317 0 6.91445)
(-9.51439 0 5.08846)
(-10.0759 0 3.31271)
(-10.5054 0 1.60375)
(-10.7939 0 -0.0274862)
(-10.9345 0 -1.57493)
(-10.923 0 -3.03577)
(-10.758 0 -4.40866)
(-10.4399 0 -5.69239)
(-9.97149 0 -6.8851)
(-9.35736 0 -7.9838)
(-8.60444 0 -8.98421)
(-7.72184 0 -9.88077)
(-6.72107 0 -10.6668)
(-5.61594 0 -11.3349)
(-4.4225 0 -11.8775)
(-3.15881 0 -12.2872)
(-1.84451 0 -12.5579)
(-0.500525 0 -12.6848)
(0.759947 0 -13.9428)
(1.95334 0 -13.754)
(3.11273 0 -13.4016)
(4.21831 0 -12.8921)
(5.25169 0 -12.2335)
(6.19631 0 -11.4352)
(7.03777 0 -10.5071)
(7.76403 0 -9.45882)
(8.36546 0 -8.29916)
(8.83487 0 -7.0357)
(9.1674 0 -5.67463)
(9.3604 0 -4.22076)
(9.41335 0 -2.67781)
(9.32782 0 -1.0491)
(9.10756 0 0.661498)
(8.75855 0 2.44815)
(8.289 0 4.30143)
(7.70901 0 6.2072)
(7.03021 0 8.14612)
(6.26557 0 10.0933)
(5.42946 0 12.018)
(4.53766 0 13.8825)
(3.60863 0 15.6354)
(2.65727 0 17.1895)
(1.6689 0 18.3889)
(0.617513 0 19.0311)
(-0.467121 0 18.9734)
(-1.5124 0 18.2221)
(-2.48984 0 16.9276)
(-3.42576 0 15.2923)
(-4.33319 0 13.4667)
(-5.1962 0 11.5333)
(-5.99617 0 9.54083)
(-6.71727 0 7.52625)
(-7.34509 0 5.52022)
(-7.86658 0 3.54816)
(-8.27018 0 1.63054)
(-8.54597 0 -0.217047)
(-8.68618 0 -1.98326)
(-8.68555 0 -3.65979)
(-8.54133 0 -5.23985)
(-8.25329 0 -6.71691)
(-7.8237 0 -8.08395)
(-7.25743 0 -9.33305)
(-6.56199 0 -10.4552)
(-5.74767 0 -11.4407)
(-4.82748 0 -12.2791)
(-3.81706 0 -12.9602)
(-2.73442 0 -13.4747)
(-1.59957 0 -13.8144)
(-0.43398 0 -13.9738)
(0.739973 0 -13.9498)
(1.89968 0 -13.743)
(3.02294 0 -13.3571)
(4.0886 0 -12.7983)
(5.07714 0 -12.0752)
(5.97113 0 -11.1975)
(6.7556 0 -10.1755)
(7.41824 0 -9.0193)
(7.9495 0 -7.73867)
(8.34255 0 -6.34226)
(8.59322 0 -4.83775)
(8.69988 0 -3.23195)
(8.66343 0 -1.53138)
(8.48726 0 0.256912)
(8.17732 0 2.12402)
(7.74197 0 4.05755)
(7.19158 0 6.04067)
(6.53814 0 8.05162)
(5.79503 0 10.0637)
(4.97703 0 12.0446)
(4.1005 0 13.9554)
(3.18473 0 15.7418)
(2.24076 0 17.3059)
(1.24702 0 18.4785)
(0.185619 0 19.0589)
(-0.897169 0 18.9279)
(-1.93195 0 18.1223)
(-2.90751 0 16.8114)
(-3.85325 0 15.1937)
(-4.77452 0 13.4054)
(-5.65349 0 11.5211)
(-6.47247 0 9.58721)
(-7.2161 0 7.63948)
(-7.87039 0 5.70707)
(-8.4227 0 3.81336)
(-8.86177 0 1.97631)
(-9.17796 0 0.208734)
(-9.36362 0 -1.481)
(-9.41336 0 -3.08771)
(-9.32403 0 -4.6078)
(-9.09458 0 -6.03791)
(-8.72608 0 -7.37409)
(-8.22175 0 -8.61119)
(-7.58705 0 -9.74265)
(-6.82979 0 -10.7605)
(-5.96023 0 -11.6558)
(-4.99104 0 -12.4187)
(-3.9372 0 -13.0394)
(-2.81579 0 -13.5088)
(-1.6456 0 -13.8191)
(-0.446727 0 -13.9647)
(0.658194 0 -15.0659)
(1.69082 0 -14.8539)
(2.69143 0 -14.4588)
(3.64146 0 -13.8878)
(4.52381 0 -13.1509)
(5.32325 0 -12.2594)
(6.02677 0 -11.2256)
(6.6237 0 -10.0613)
(7.10587 0 -8.77801)
(7.46754 0 -7.38559)
(7.70534 0 -5.89255)
(7.81815 0 -4.3059)
(7.807 0 -2.6315)
(7.675 0 -0.874753)
(7.4273 0 0.958364)
(7.07108 0 2.85991)
(6.6155 0 4.81852)
(6.07143 0 6.81843)
(5.45129 0 8.83873)
(4.76916 0 10.8529)
(4.04102 0 12.8283)
(3.2854 0 14.7244)
(2.52465 0 16.488)
(1.7843 0 18.0371)
(1.0788 0 19.2313)
(0.399101 0 19.8762)
(-0.271967 0 19.8166)
(-0.949016 0 19.0586)
(-1.64853 0 17.7648)
(-2.37811 0 16.1288)
(-3.12181 0 14.2857)
(-3.85359 0 12.3135)
(-4.55107 0 10.2633)
(-5.19572 0 8.17459)
(-5.77154 0 6.07998)
(-6.26442 0 4.0066)
(-6.66196 0 1.97654)
(-6.95343 0 0.00726189)
(-7.13006 0 -1.88772)
(-7.18526 0 -3.69776)
(-7.11479 0 -5.4136)
(-6.91679 0 -7.02626)
(-6.59188 0 -8.52616)
(-6.14327 0 -9.90271)
(-5.57687 0 -11.1442)
(-4.90134 0 -12.2381)
(-4.12812 0 -13.1714)
(-3.27127 0 -13.9312)
(-2.34724 0 -14.5061)
(-1.37452 0 -14.8861)
(-0.373098 0 -15.0645)
(0.636148 0 -15.0377)
(1.63208 0 -14.8062)
(2.59397 0 -14.3746)
(3.50219 0 -13.7505)
(4.33873 0 -12.9443)
(5.08773 0 -11.9679)
(5.7358 0 -10.8343)
(6.27221 0 -9.55641)
(6.68903 0 -8.14665)
(6.98106 0 -6.61642)
(7.14578 0 -4.97602)
(7.18321 0 -3.23479)
(7.09585 0 -1.40172)
(6.88855 0 0.513727)
(6.56849 0 2.50031)
(6.14498 0 4.54354)
(5.62922 0 6.62481)
(5.03403 0 8.72075)
(4.37397 0 10.8029)
(3.66563 0 12.8369)
(2.92837 0 14.7811)
(2.18583 0 16.5795)
(1.46344 0 18.1424)
(0.771254 0 19.3164)
(0.0972218 0 19.9036)
(-0.574688 0 19.7723)
(-1.25945 0 18.9652)
(-1.97407 0 17.6611)
(-2.722 0 16.0455)
(-3.48387 0 14.2411)
(-4.23433 0 12.3199)
(-4.95218 0 10.3309)
(-5.61964 0 8.31224)
(-6.22127 0 6.29497)
(-6.74345 0 4.30405)
(-7.17413 0 2.359)
(-7.50289 0 0.474345)
(-7.72108 0 -1.33954)
(-7.82203 0 -3.07538)
(-7.80113 0 -4.72746)
(-7.6558 0 -6.29034)
(-7.38556 0 -7.75792)
(-6.99212 0 -9.12283)
(-6.47943 0 -10.3762)
(-5.85388 0 -11.5076)
(-5.12428 0 -12.5056)
(-4.30192 0 -13.358)
(-3.40042 0 -14.0528)
(-2.43551 0 -14.5789)
(-1.42474 0 -14.927)
(-0.386952 0 -15.0904)
(0.548255 0 -16.0207)
(1.40739 0 -15.7873)
(2.2372 0 -15.3523)
(3.02077 0 -14.7245)
(3.74266 0 -13.9153)
(4.38928 0 -12.9382)
(4.94924 0 -11.8076)
(5.41348 0 -10.538)
(5.77537 0 -9.14302)
(6.03072 0 -7.63519)
(6.17766 0 -6.02526)
(6.21654 0 -4.32244)
(6.14987 0 -2.53468)
(5.98216 0 -0.669422)
(5.71986 0 1.2654)
(5.37132 0 3.25992)
(4.94665 0 5.30104)
(4.45754 0 7.37135)
(3.91726 0 9.4483)
(3.34082 0 11.5035)
(2.74528 0 13.5017)
(2.15044 0 15.3992)
(1.57967 0 17.1391)
(1.05944 0 18.64)
(0.610144 0 19.7762)
(0.226705 0 20.3803)
(-0.12952 0 20.3202)
(-0.512515 0 19.601)
(-0.959228 0 18.3615)
(-1.47258 0 16.7681)
(-2.03083 0 14.9424)
(-2.60707 0 12.9624)
(-3.17792 0 10.8828)
(-3.72358 0 8.74663)
(-4.22694 0 6.58885)
(-4.67299 0 4.43855)
(-5.04846 0 2.31953)
(-5.34174 0 0.251027)
(-5.543 0 -1.75145)
(-5.64442 0 -3.67508)
(-5.64033 0 -5.50835)
(-5.52735 0 -7.23985)
(-5.3045 0 -8.8575)
(-4.97335 0 -10.3481)
(-4.5381 0 -11.6972)
(-4.00569 0 -12.8895)
(-3.38573 0 -13.9092)
(-2.69046 0 -14.7412)
(-1.93446 0 -15.3715)
(-1.13431 0 -15.7886)
(-0.308075 0 -15.9845)
(0.525264 0 -15.955)
(1.3465 0 -15.7009)
(2.13683 0 -15.2272)
(2.87852 0 -14.5431)
(3.55547 0 -13.6608)
(4.15368 0 -12.5946)
(4.66158 0 -11.36)
(5.07024 0 -9.97257)
(5.37345 0 -8.44755)
(5.5677 0 -6.79903)
(5.65211 0 -5.03992)
(5.62827 0 -3.18204)
(5.50018 0 -1.23674)
(5.27409 0 0.784252)
(4.95835 0 2.86755)
(4.56328 0 4.99678)
(4.10093 0 7.15156)
(3.585 0 9.30678)
(3.03102 0 11.4319)
(2.45672 0 13.49)
(1.88273 0 15.4358)
(1.3335 0 17.2099)
(0.836018 0 18.7251)
(0.407565 0 19.8459)
(0.0362969 0 20.403)
(-0.321897 0 20.2838)
(-0.720072 0 19.5248)
(-1.18875 0 18.2785)
(-1.72469 0 16.7053)
(-2.30423 0 14.9178)
(-2.90136 0 12.9893)
(-3.49374 0 10.9724)
(-4.06233 0 8.9085)
(-4.59066 0 6.83082)
(-5.06421 0 4.76619)
(-5.47013 0 2.73574)
(-5.79711 0 0.755661)
(-6.03551 0 -1.16189)
(-6.17746 0 -3.00769)
(-6.217 0 -4.77405)
(-6.15015 0 -6.4535)
(-5.97494 0 -8.0378)
(-5.69159 0 -9.51735)
(-5.30256 0 -10.8809)
(-4.81268 0 -12.1157)
(-4.22921 0 -13.2078)
(-3.56182 0 -14.1426)
(-2.82249 0 -14.9058)
(-2.02534 0 -15.4845)
(-1.18622 0 -15.8677)
(-0.322358 0 -16.0477)
(0.431729 0 -16.7957)
(1.10717 0 -16.5429)
(1.75663 0 -16.0722)
(2.36524 0 -15.3933)
(2.91955 0 -14.5194)
(3.40789 0 -13.466)
(3.82073 0 -12.2498)
(4.15075 0 -10.8875)
(4.39301 0 -9.39527)
(4.54482 0 -7.78788)
(4.60581 0 -6.07838)
(4.57772 0 -4.27813)
(4.46436 0 -2.39713)
(4.27149 0 -0.444757)
(4.00669 0 1.56919)
(3.67929 0 3.63311)
(3.30019 0 5.73229)
(2.88176 0 7.84779)
(2.4378 0 9.95543)
(1.98369 0 12.0249)
(1.53664 0 14.0187)
(1.11599 0 15.8904)
(0.74333 0 17.5806)
(0.441082 0 19.0095)
(0.2248 0 20.066)
(0.0854323 0 20.6153)
(-0.0225894 0 20.5554)
(-0.162826 0 19.8904)
(-0.378911 0 18.7278)
(-0.677659 0 17.2019)
(-1.0422 0 15.4205)
(-1.44964 0 13.4607)
(-1.87829 0 11.3798)
(-2.30875 0 9.22358)
(-2.72378 0 7.02937)
(-3.10795 0 4.82811)
(-3.44742 0 2.64528)
(-3.72988 0 0.501789)
(-3.94461 0 -1.58506)
(-4.0827 0 -3.60044)
(-4.13725 0 -5.53069)
(-4.10348 0 -7.3621)
(-3.97895 0 -9.08017)
(-3.7636 0 -10.6691)
(-3.45992 0 -12.1119)
(-3.07302 0 -13.3905)
(-2.61055 0 -14.4866)
(-2.08267 0 -15.3826)
(-1.50179 0 -16.0623)
(-0.882248 0 -16.5125)
(-0.239815 0 -16.7241)
(0.408862 0 -16.6923)
(1.04691 0 -16.4178)
(1.65784 0 -15.9067)
(2.2262 0 -15.1692)
(2.73814 0 -14.2194)
(3.18178 0 -13.074)
(3.54762 0 -11.7509)
(3.82865 0 -10.2683)
(4.02047 0 -8.64413)
(4.12123 0 -6.89509)
(4.13164 0 -5.03659)
(4.05477 0 -3.08288)
(3.89594 0 -1.04755)
(3.66261 0 1.05556)
(3.36417 0 3.2111)
(3.01178 0 5.40094)
(2.61815 0 7.60306)
(2.19752 0 9.79063)
(1.76578 0 11.9312)
(1.34068 0 13.9853)
(0.942216 0 15.9048)
(0.592624 0 17.6282)
(0.31435 0 19.0713)
(0.120091 0 20.1176)
(-0.00615433 0 20.6322)
(-0.116297 0 20.5287)
(-0.272787 0 19.8345)
(-0.511973 0 18.6684)
(-0.834609 0 17.1622)
(-1.22198 0 15.418)
(-1.65152 0 13.5094)
(-2.1022 0 11.4918)
(-2.55525 0 9.40915)
(-2.99399 0 7.29683)
(-3.40345 0 5.1835)
(-3.77021 0 3.09188)
(-4.0823 0 1.03972)
(-4.3292 0 -0.959209)
(-4.50202 0 -2.8939)
(-4.59366 0 -4.75478)
(-4.59885 0 -6.53241)
(-4.51431 0 -8.21649)
(-4.33883 0 -9.79523)
(-4.07339 0 -11.2551)
(-3.72124 0 -12.581)
(-3.28796 0 -13.7565)
(-2.78145 0 -14.7647)
(-2.21182 0 -15.5893)
(-1.59122 0 -16.2152)
(-0.933517 0 -16.63)
(-0.253886 0 -16.8249)
(0.309935 0 -17.3818)
(0.793547 0 -17.1122)
(1.25516 0 -16.6104)
(1.68228 0 -15.8874)
(2.06376 0 -14.958)
(2.39014 0 -13.8394)
(2.65392 0 -12.5505)
(2.84967 0 -11.1102)
(2.97413 0 -9.5371)
(3.02618 0 -7.848)
(3.00682 0 -6.05816)
(2.91904 0 -4.181)
(2.76778 0 -2.22846)
(2.5598 0 -0.211757)
(2.30357 0 1.8576)
(2.0091 0 3.96641)
(1.68781 0 6.09856)
(1.35234 0 8.23375)
(1.01654 0 10.3464)
(0.695459 0 12.4047)
(0.405345 0 14.3695)
(0.163574 0 16.1929)
(-0.0119934 0 17.815)
(-0.105256 0 19.1601)
(-0.108734 0 20.1326)
(-0.0371603 0 20.6267)
(0.0638405 0 20.5675)
(0.133695 0 19.9582)
(0.128555 0 18.8779)
(0.0357419 0 17.4323)
(-0.135987 0 15.7147)
(-0.369978 0 13.7986)
(-0.648155 0 11.742)
(-0.953044 0 9.59214)
(-1.26831 0 7.38806)
(-1.57883 0 5.1622)
(-1.8707 0 2.94146)
(-2.13125 0 0.748214)
(-2.3492 0 -1.39864)
(-2.51482 0 -3.48246)
(-2.62021 0 -5.48758)
(-2.65943 0 -7.39816)
(-2.6287 0 -9.1974)
(-2.52646 0 -10.8671)
(-2.35351 0 -12.3878)
(-2.11306 0 -13.7389)
(-1.81068 0 -14.8996)
(-1.45427 0 -15.85)
(-1.05379 0 -16.5719)
(-0.621004 0 -17.0506)
(-0.169038 0 -17.2756)
(0.28817 0 -17.2418)
(0.736453 0 -16.9499)
(1.16203 0 -16.4066)
(1.55209 0 -15.6235)
(1.89529 0 -14.6164)