/*--------------------------------*- C++ -*----------------------------------*\
| =========                 |                                                 |
| \\      /  F ield         | OpenFOAM: The Open Source CFD Toolbox           |
|  \\    /   O peration     | Version:  2.3.0                                 |
|   \\  /    A nd           | Web:      www.OpenFOAM.org                      |
|    \\/     M anipulation  |                                                 |
\*---------------------------------------------------------------------------*/
FoamFile
{
    version     2.0;
    format      ascii;
    class       volScalarField;
    location    "9000";
    object      p;
}
// * * * * * * * * * * * * * * * * * * * * * * * * * * * * * * * * * * * * * //

dimensions      [0 2 -2 0 0 0 0];

internalField   nonuniform List<scalar> 
192
(
-1662.49
-1671.32
-1679.99
-1689.19
-1699.84
-1712.88
-1728.82
-1746.99
-1765.26
-1779.7
-1784.41
-1775.02
-1758.58
-1497.32
-1505.83
-1514.61
-1523.98
-1534.27
-1545.69
-1558.13
-1571.03
-1582.81
-1591.33
-1594.16
-1588.59
-1578.66
-1359.64
-1366.71
-1374.2
-1382.18
-1390.64
-1399.55
-1408.66
-1417.24
-1424.07
-1428.24
-1429.62
-1426.93
-1421.8
-1237.07
-1242.07
-1247.36
-1252.88
-1258.53
-1264.23
-1269.75
-1274.3
-1277.05
-1277.94
-1278.16
-1277.73
-1276.3
-1118.1
-1120.92
-1123.84
-1126.79
-1129.72
-1132.6
-1135.21
-1136.93
-1137.17
-1136.17
-1135.64
-1136.63
-1137.33
-996.866
-997.853
-998.799
-999.674
-1000.48
-1001.19
-1001.62
-1001.38
-1000.09
-998.027
-997.102
-998.88
-1000.79
-871.277
-870.873
-870.363
-869.768
-869.087
-868.225
-867.058
-865.355
-862.956
-860.215
-859.114
-861.307
-864.038
-741.09
-739.688
-738.177
-736.559
-734.785
-732.742
-730.309
-727.383
-724.043
-720.867
-719.711
-722.08
-725.424
-606.952
-604.793
-602.507
-600.047
-597.325
-594.237
-590.67
-586.66
-582.53
-579.077
-577.897
-580.334
-584.131
-469.802
-466.889
-463.823
-460.508
-456.83
-452.679
-448.013
-442.999
-438.156
-434.454
-433.231
-435.721
-439.927
-331.296
-327.379
-323.297
-318.907
-314.072
-308.695
-302.807
-296.699
-291.046
-286.955
-285.624
-288.246
-292.993
-195.307
-189.871
-184.32
-178.457
-172.114
-165.193
-157.77
-150.232
-143.399
-138.553
-136.978
-139.954
-145.623
-67.97
-60.0834
-51.9682
-43.4618
-34.4355
-24.8494
-14.8614
-4.9749
3.83236
10.0617
12.1079
8.38701
23.6792
33.3057
43.0543
53.1273
63.7945
75.2954
87.6654
100.454
112.411
121.264
124.309
118.957
73.7366
68.9254
63.153
56.4212
48.5964
39.497
29.0505
17.5578
6.11483
-2.98604
-5.82393
-0.396751
)
;

boundaryField
{
    top
    {
        type            calculated;
        value           nonuniform List<scalar> 
12
(
-9.81
-9.81
-9.81
-9.81
-9.81
-9.81
-9.81
-9.81
-9.81
-9.81
-9.81
-9.81
)
;
    }
    bottom
    {
        type            calculated;
        value           nonuniform List<scalar> 
13
(
-1753.5
-1762.46
-1771.01
-1779.98
-1790.45
-1803.63
-1820.17
-1839
-1858.15
-1873.76
-1879.1
-1868.61
-1851.07
)
;
    }
    frontAndBack
    {
        type            empty;
    }
    left_cyc
    {
        type            cyclic;
    }
    right_cyc
    {
        type            cyclic;
    }
    procBoundary0to1
    {
        type            processor;
        value           nonuniform List<scalar> 
16
(
-1739.93
-1566.16
-1414.12
-1272.79
-1136.51
-1001.68
-866.181
-728.644
-588.286
-444.926
-298.922
-152.839
1.10288
1.10288
108.775
10.1108
)
;
    }
    procBoundary0to3throughleft_cyc
    {
        type            processorCyclic;
        value           nonuniform List<scalar> 
15
(
-1653.04
-1488.77
-1352.9
-1232.42
-1115.47
-995.886
-871.575
-742.364
-609.006
-472.642
-335.186
-200.824
-75.8194
14.1885
77.5634
)
;
    }
}


// ************************************************************************* //
