/*--------------------------------*- C++ -*----------------------------------*\
| =========                 |                                                 |
| \\      /  F ield         | OpenFOAM: The Open Source CFD Toolbox           |
|  \\    /   O peration     | Version:  2.3.0                                 |
|   \\  /    A nd           | Web:      www.OpenFOAM.org                      |
|    \\/     M anipulation  |                                                 |
\*---------------------------------------------------------------------------*/
FoamFile
{
    version     2.0;
    format      ascii;
    class       volScalarField;
    location    "9000";
    object      p_rgh;
}
// * * * * * * * * * * * * * * * * * * * * * * * * * * * * * * * * * * * * * //

dimensions      [0 2 -2 0 0 0 0];

internalField   nonuniform List<scalar> 
192
(
-1753.5
-1762.46
-1771.01
-1779.98
-1790.45
-1803.63
-1820.17
-1839
-1858.15
-1873.76
-1879.1
-1868.61
-1851.07
-1722.63
-1732.39
-1741.65
-1751.07
-1761.57
-1774.24
-1789.55
-1808.16
-1829.31
-1850.14
-1859.29
-1842.69
-1821.22
-1679.24
-1689.96
-1700.28
-1710.57
-1721.48
-1733.99
-1749.66
-1771.92
-1801.63
-1835.69
-1852.13
-1822.92
-1789.52
-1650.73
-1661.72
-1672.48
-1682.99
-1693.31
-1704.25
-1719.18
-1743.45
-1781.09
-1829.01
-1852.79
-1810.72
-1765.05
-1649.55
-1659.28
-1668.98
-1678.07
-1686.08
-1693.8
-1705.68
-1729.05
-1772.22
-1831.75
-1861.23
-1809
-1753.18
-1669.46
-1677.39
-1685.05
-1691.38
-1695.61
-1699.18
-1706.09
-1727.25
-1774.24
-1841.78
-1874.46
-1816.28
-1753.08
-1699.92
-1705.88
-1710.78
-1713.45
-1713.47
-1712.78
-1716.99
-1738.12
-1786.21
-1854.5
-1887.87
-1829.12
-1764.87
-1732.84
-1736.37
-1738.14
-1737.82
-1736.45
-1734.91
-1739.73
-1760
-1803.94
-1866.24
-1898.63
-1843.4
-1784.9
-1762.44
-1764.6
-1765.47
-1765.18
-1763.94
-1763.96
-1769.73
-1787.74
-1824.31
-1876.27
-1905.91
-1857.68
-1809.01
-1785.37
-1788.91
-1791.23
-1792.49
-1793.38
-1795.45
-1801.61
-1816.34
-1844.24
-1883.95
-1909.24
-1870.46
-1833.27
-1787.16
-1795.47
-1802.58
-1808.6
-1813.89
-1819.3
-1826.62
-1838.74
-1858.86
-1886.88
-1906.72
-1878.32
-1851.89
-1733.09
-1750.74
-1766.96
-1781.88
-1795.59
-1808.33
-1820.82
-1834.49
-1851.21
-1871.32
-1885.92
-1866.25
-1846.57
-1549.98
-1579.32
-1606.78
-1632.71
-1657.33
-1680.72
-1702.89
-1724.04
-1744.41
-1763.41
-1774.73
-1759.25
-1152.04
-1186.1
-1218.65
-1249.87
-1279.67
-1307.74
-1333.62
-1356.87
-1377.11
-1393.44
-1401.02
-1389.96
-427.918
-458.695
-490.177
-522.457
-555.62
-589.575
-623.823
-657.135
-687.064
-709.403
-717.037
-703.786
)
;

boundaryField
{
    top
    {
        type            fixedValue;
        value           uniform 0;
    }
    bottom
    {
        type            fixedFluxPressure;
        gradient        uniform 0;
        value           nonuniform List<scalar> 
13
(
-1753.5
-1762.46
-1771.01
-1779.98
-1790.45
-1803.63
-1820.17
-1839
-1858.15
-1873.76
-1879.1
-1868.61
-1851.07
)
;
    }
    frontAndBack
    {
        type            empty;
    }
    left_cyc
    {
        type            cyclic;
    }
    right_cyc
    {
        type            cyclic;
    }
    procBoundary0to1
    {
        type            processor;
        value           nonuniform List<scalar> 
16
(
-1831.62
-1800.85
-1762.45
-1732.58
-1718.07
-1716.6
-1727.4
-1750.14
-1779.55
-1810.31
-1834.69
-1830.88
-1739.26
-1739.26
-1371.97
-678.06
)
;
    }
    procBoundary0to3throughleft_cyc
    {
        type            processorCyclic;
        value           nonuniform List<scalar> 
15
(
-1743.68
-1711.8
-1667.91
-1639.56
-1640.19
-1662.03
-1693.97
-1728.37
-1759.07
-1780.62
-1777.61
-1713.91
-1518.5
-1116.15
-397.824
)
;
    }
}


// ************************************************************************* //
