/*--------------------------------*- C++ -*----------------------------------*\
| =========                 |                                                 |
| \\      /  F ield         | OpenFOAM: The Open Source CFD Toolbox           |
|  \\    /   O peration     | Version:  2.3.0                                 |
|   \\  /    A nd           | Web:      www.OpenFOAM.org                      |
|    \\/     M anipulation  |                                                 |
\*---------------------------------------------------------------------------*/
FoamFile
{
    version     2.0;
    format      ascii;
    class       volScalarField;
    location    "9000";
    object      T;
}
// * * * * * * * * * * * * * * * * * * * * * * * * * * * * * * * * * * * * * //

dimensions      [0 0 0 1 0 0 0];

internalField   nonuniform List<scalar> 
192
(
40.0066
40.0627
40.0122
39.9089
39.8329
39.8883
40.1566
40.4411
40.8275
41.3414
41.6145
41.1353
40.6533
33.0377
33.221
33.2919
33.2984
33.3295
33.5109
33.9311
34.7642
36.1326
37.93
38.8529
37.2409
35.5581
28.1402
28.4598
28.707
28.9109
29.1246
29.4402
30.0147
31.2134
33.218
35.8358
37.155
34.8319
32.356
26.0262
26.4011
26.7436
27.0558
27.3483
27.6757
28.2645
29.4988
31.6816
34.6245
36.0987
33.4936
30.7248
26.0071
26.3435
26.6736
26.9725
27.2196
27.455
27.9061
28.9594
31.0489
33.9948
35.4553
32.8655
30.1144
26.9245
27.2011
27.4685
27.6857
27.8222
27.9359
28.1939
29.0458
30.9687
33.74
35.078
32.6906
30.0979
28.0622
28.2766
28.4587
28.5688
28.5925
28.5983
28.7795
29.5485
31.2497
33.6429
34.8043
32.7512
30.4943
29.1025
29.2464
29.3422
29.3802
29.3919
29.4065
29.6184
30.2957
31.6763
33.5882
34.5675
32.8858
31.0799
29.914
30.0254
30.1065
30.1625
30.2008
30.2809
30.5214
31.0888
32.1373
33.565
34.359
33.0536
31.702
30.4705
30.6194
30.7435
30.849
30.9543
31.0975
31.3472
31.8024
32.5571
33.558
34.1691
33.2178
32.2635
30.5083
30.7633
30.9968
31.214
31.4252
31.6502
31.9257
32.3058
32.8433
33.513
33.9547
33.3077
32.6574
29.428
29.8675
30.2823
30.678
31.0598
31.4343
31.8136
32.2174
32.6659
33.1412
33.4492
33.0179
32.5352
26.108
26.7603
27.3836
27.9869
28.5764
29.154
29.7176
30.2612
30.7724
31.2144
31.4486
31.1123
19.216
19.9246
20.6109
21.2807
21.9373
22.5792
23.1996
23.7842
24.3066
24.715
24.8874
24.6213
7.71994
8.11211
8.50042
8.88628
9.26898
9.64438
10.0039
10.3334
10.6126
10.8126
10.885
10.7668
)
;

boundaryField
{
    top
    {
        type            fixedValue;
        value           uniform 0;
    }
    bottom
    {
        type            fixedValue;
        value           uniform 43.8;
    }
    frontAndBack
    {
        type            empty;
    }
    left_cyc
    {
        type            cyclic;
    }
    right_cyc
    {
        type            cyclic;
    }
    procBoundary0to1
    {
        type            processor;
        value           nonuniform List<scalar> 
16
(
40.3041
34.4075
30.6567
28.9132
28.446
28.6102
29.1598
29.971
30.8359
31.619
32.1749
32.0989
30.6343
30.6343
24.1641
10.537
)
;
    }
    procBoundary0to3throughleft_cyc
    {
        type            processorCyclic;
        value           nonuniform List<scalar> 
15
(
39.8425
32.7063
27.7387
25.6187
25.6797
26.6679
27.8517
28.9345
29.7744
30.2956
30.228
28.9576
25.419
18.4798
7.32321
)
;
    }
}


// ************************************************************************* //
