/*--------------------------------*- C++ -*----------------------------------*\
| =========                 |                                                 |
| \\      /  F ield         | OpenFOAM: The Open Source CFD Toolbox           |
|  \\    /   O peration     | Version:  2.3.0                                 |
|   \\  /    A nd           | Web:      www.OpenFOAM.org                      |
|    \\/     M anipulation  |                                                 |
\*---------------------------------------------------------------------------*/
FoamFile
{
    version     2.0;
    format      ascii;
    class       volScalarField;
    location    "10000";
    object      p;
}
// * * * * * * * * * * * * * * * * * * * * * * * * * * * * * * * * * * * * * //

dimensions      [0 2 -2 0 0 0 0];

internalField   nonuniform List<scalar> 
191
(
-1367.04
-1431.26
-1481.53
-1518.79
-1547.21
-1569.77
-1588.42
-1604.4
-1618.44
-1631.01
-1642.37
-1652.7
-1311.93
-1343.48
-1369.66
-1390.87
-1408.66
-1423.96
-1437.31
-1449.26
-1460.15
-1470.2
-1479.58
-1488.46
-1257.13
-1273.05
-1290.58
-1299.99
-1306.44
-1313.15
-1319.86
-1326.52
-1333.11
-1339.62
-1346.1
-1352.63
-1143
-1171.67
-1194.56
-1203.27
-1206.89
-1210.28
-1213.54
-1216.84
-1220.31
-1223.99
-1227.94
-1232.22
-1024.45
-1037.89
-1072.24
-1089.18
-1095.32
-1099.34
-1102.54
-1104.98
-1107.01
-1108.89
-1110.83
-1112.96
-1115.34
-933.024
-943.542
-966.963
-978
-982.548
-986.242
-988.996
-990.898
-992.214
-993.19
-994.04
-994.899
-995.822
-847.817
-849.967
-858.417
-863.459
-866.135
-868.386
-870.042
-871.088
-871.648
-871.868
-871.878
-871.766
-871.566
-766.793
-754.355
-746.381
-745.694
-746.035
-746.228
-746.376
-746.287
-745.932
-745.327
-744.512
-743.527
-742.398
-686.222
-658.759
-633.58
-626.376
-623.86
-621.444
-619.603
-617.961
-616.352
-614.678
-612.9
-611.028
-609.073
-599.132
-563.749
-523.501
-507.562
-501.534
-496.008
-491.659
-487.949
-484.62
-481.5
-478.491
-475.579
-472.739
-504.485
-471.964
-415.962
-393.947
-383.226
-373.554
-365.744
-359.169
-353.465
-348.353
-343.655
-339.335
-335.319
-399.388
-363.459
-302.052
-276.265
-265.619
-256.228
-246.328
-236.785
-228.143
-220.364
-213.271
-206.848
-201.012
-300.561
-254.819
-186.269
-147.463
-144.174
-139.036
-133.503
-124.813
-114.597
-104.006
-93.5994
-84.2902
-76.0812
-192.176
-153.608
-97.2085
-53.5257
-29.4948
-17.6246
-15.9223
-16.2143
-14.6588
-10.2565
-3.48241
4.79496
13.8979
-330.858
-252.705
-160.834
-76.7995
-9.97501
34.2054
60.3788
75.565
83.7014
86.5905
84.9937
81.1753
77.7788
)
;

boundaryField
{
    top
    {
        type            calculated;
        value           nonuniform List<scalar> 
13
(
-9.81
-9.81
-9.81
-9.81
-9.81
-9.81
-9.81
-9.81
-9.81
-9.81
-9.81
-9.81
-9.81
)
;
    }
    bottom
    {
        type            calculated;
        value           nonuniform List<scalar> 
12
(
-1437.9
-1505.84
-1559.52
-1599.59
-1630.33
-1654.78
-1674.93
-1692.11
-1707.12
-1720.47
-1732.47
-1743.33
)
;
    }
    frontAndBack
    {
        type            empty;
    }
    left_cyc
    {
        type            cyclic;
    }
    right_cyc
    {
        type            cyclic;
    }
    procBoundary3to0throughright_cyc
    {
        type            processorCyclic;
        value           nonuniform List<scalar> 
15
(
-1662.17
-1497.01
-1359.36
-1236.86
-1117.96
-996.802
-871.273
-741.13
-607.024
-469.901
-331.43
-195.49
-68.2311
23.3784
73.991
)
;
    }
    procBoundary3to2
    {
        type            processor;
        value           nonuniform List<scalar> 
16
(
-1294.79
-1279.99
-1223.79
-1132.95
-1132.95
-1023
-932.432
-846.541
-764.718
-683.17
-596.75
-502.994
-407.425
-326.498
-217.193
-389.357
)
;
    }
}


// ************************************************************************* //
