/*--------------------------------*- C++ -*----------------------------------*\
| =========                 |                                                 |
| \\      /  F ield         | OpenFOAM: The Open Source CFD Toolbox           |
|  \\    /   O peration     | Version:  2.3.0                                 |
|   \\  /    A nd           | Web:      www.OpenFOAM.org                      |
|    \\/     M anipulation  |                                                 |
\*---------------------------------------------------------------------------*/
FoamFile
{
    version     2.0;
    format      ascii;
    class       surfaceScalarField;
    location    "10000";
    object      phi;
}
// * * * * * * * * * * * * * * * * * * * * * * * * * * * * * * * * * * * * * //

dimensions      [0 3 -1 0 0 0 0];

internalField   nonuniform List<scalar> 
354
(
0.509176
-0.076265
0.52725
-0.0180747
0.502853
0.0243975
0.465773
0.0370797
0.43129
0.0344835
0.402739
0.0285503
0.379446
0.0232929
0.360037
0.0194091
0.343535
0.0165027
0.32954
0.0139947
0.31824
0.0113001
0.00774105
0.291097
-0.161573
0.372696
-0.099674
0.436595
-0.0395019
0.481207
-0.00753149
0.510042
0.00564801
0.5269
0.0116924
0.535243
0.0149499
0.537997
0.0166557
0.537613
0.0168868
0.536242
0.0153653
0.535932
0.0116102
0.0048829
0.18321
-0.201283
0.235741
-0.152205
0.303641
-0.107402
0.37146
-0.0753498
0.427358
-0.0502507
0.468758
-0.029707
0.497487
-0.0137796
0.516928
-0.00278497
0.530526
0.00328841
0.541274
0.00461739
0.551631
0.00125326
-0.00696817
0.131486
-0.230172
0.172822
-0.193542
0.232376
-0.166955
0.296573
-0.139547
0.352055
-0.105733
0.394691
-0.072343
0.425545
-0.0446344
0.447684
-0.0249238
0.464339
-0.0133661
0.478156
-0.00920044
0.491002
-0.0115928
-0.0198585
0.0700562
-0.281895
0.093165
-0.25328
0.130026
-0.230402
0.182714
-0.219644
0.236395
-0.193228
0.281832
-0.151169
0.31634
-0.106851
0.341217
-0.069511
0.359185
-0.0428925
0.37285
-0.0270304
0.384075
-0.0204261
0.393858
-0.0213749
-0.0283921
0.0414153
-0.294781
0.0590035
-0.270869
0.0892356
-0.260634
0.129643
-0.260051
0.167692
-0.231276
0.198412
-0.18189
0.220851
-0.12929
0.236525
-0.0851852
0.247578
-0.0539449
0.255714
-0.0351665
0.26185
-0.0265618
0.266132
-0.0256575
-0.030382
0.014638
-0.299214
0.0230058
-0.279236
0.0392769
-0.276906
0.060283
-0.281058
0.0789949
-0.249988
0.0933033
-0.196198
0.103002
-0.138989
0.109119
-0.0913018
0.112846
-0.057672
0.114905
-0.0372263
0.115372
-0.0270284
0.113769
-0.0240544
-0.0259272
-0.0120727
-0.294224
-0.0185906
-0.272718
-0.0232918
-0.272204
-0.0263992
-0.27795
-0.0289243
-0.247463
-0.0309268
-0.194195
-0.0328331
-0.137083
-0.0348837
-0.0892512
-0.0372131
-0.0553426
-0.040103
-0.0343365
-0.044131
-0.0230005
-0.0501549
-0.0180304
-0.0169859
-0.0394204
-0.279667
-0.0624433
-0.249696
-0.0910021
-0.243646
-0.120111
-0.248841
-0.144218
-0.223357
-0.161751
-0.176663
-0.173861
-0.124972
-0.182359
-0.0807537
-0.188832
-0.0488688
-0.194557
-0.0286116
-0.200688
-0.0168697
-0.208445
-0.0102732
-0.00646468
-0.0681174
-0.256531
-0.100063
-0.21775
-0.147728
-0.19598
-0.201297
-0.195272
-0.245588
-0.179065
-0.277495
-0.144756
-0.298976
-0.103492
-0.312973
-0.0667565
-0.322251
-0.0395916
-0.329019
-0.0218428
-0.33507
-0.0108191
-0.342157
-0.00318655
0.00321859
-0.0994382
-0.226011
-0.131373
-0.185815
-0.181986
-0.145368
-0.249515
-0.127742
-0.308193
-0.120387
-0.351347
-0.101602
-0.38096
-0.0738784
-0.400022
-0.0476948
-0.411833
-0.0277807
-0.41931
-0.014365
-0.424779
-0.0053506
-0.430474
0.00250866
0.0110662
-0.135931
-0.186382
-0.170923
-0.150822
-0.208989
-0.107302
-0.259918
-0.076814
-0.313854
-0.0664515
-0.35991
-0.0555452
-0.394316
-0.0394724
-0.417211
-0.0248002
-0.431493
-0.0134983
-0.440508
-0.00535073
-0.446784
0.000925506
-0.452335
0.00805968
0.0174037
-0.174009
-0.135968
-0.216106
-0.108726
-0.247425
-0.0759827
-0.273722
-0.0505162
-0.305329
-0.0348449
-0.336571
-0.0243034
-0.359591
-0.0164521
-0.374492
-0.00989955
-0.384086
-0.00390399
-0.391136
0.00169891
-0.397473
0.00726282
-0.40327
0.0138565
0.0219016
-0.201817
-0.078492
-0.248889
-0.0616538
-0.282876
-0.0419958
-0.307891
-0.0255011
-0.328428
-0.0143087
-0.345043
-0.00768769
-0.357855
-0.00364004
-0.367207
-0.000548236
-0.373442
0.00233102
-0.376891
0.00514779
-0.377547
0.00791933
-0.374666
0.0109751
0.014674
-0.223112
-0.272596
-0.307209
-0.32971
-0.344519
-0.355039
-0.362918
-0.368551
-0.371802
-0.372493
-0.370487
-0.36539
)
;

boundaryField
{
    top
    {
        type            calculated;
        value           nonuniform List<scalar> 
13
(
-0.0162489
-0.0121697
-0.00738343
-0.00299918
0.000499951
0.00283258
0.00423864
0.00508477
0.00558247
0.00583837
0.00591298
0.00587873
0.00581573
)
;
    }
    bottom
    {
        type            calculated;
        value           uniform 0;
    }
    frontAndBack
    {
        type            empty;
        value           nonuniform 0();
    }
    left_cyc
    {
        type            cyclic;
        value           nonuniform 0();
    }
    right_cyc
    {
        type            cyclic;
        value           nonuniform 0();
    }
    procBoundary3to0throughright_cyc
    {
        type            processorCyclic;
        value           nonuniform List<scalar> 
15
(
0.310499
0.53879
0.563482
0.503893
0.402391
0.268122
0.109314
-0.0590961
-0.218966
-0.35184
-0.438322
-0.458672
-0.407768
-0.367438
-0.356532
)
;
    }
    procBoundary3to2
    {
        type            processor;
        value           nonuniform List<scalar> 
16
(
-0.432911
-0.205788
-0.143501
-0.102597
0.261103
-0.0492649
-0.028529
-0.0102049
0.00708298
0.0248633
0.0449817
0.0689175
0.0963018
0.123596
0.144341
0.160869
)
;
    }
}


// ************************************************************************* //
