/*--------------------------------*- C++ -*----------------------------------*\
| =========                 |                                                 |
| \\      /  F ield         | OpenFOAM: The Open Source CFD Toolbox           |
|  \\    /   O peration     | Version:  2.3.0                                 |
|   \\  /    A nd           | Web:      www.OpenFOAM.org                      |
|    \\/     M anipulation  |                                                 |
\*---------------------------------------------------------------------------*/
FoamFile
{
    version     2.0;
    format      ascii;
    class       volVectorField;
    location    "10000";
    object      U;
}
// * * * * * * * * * * * * * * * * * * * * * * * * * * * * * * * * * * * * * //

dimensions      [0 1 -1 0 0 0 0];

internalField   nonuniform List<vector> 
191
(
(72.4223 0 -6.26365)
(79.7542 0 2.20648)
(78.3299 0 6.71409)
(72.8242 0 7.04051)
(67.1659 0 5.66748)
(62.4063 0 4.21222)
(58.5428 0 3.11102)
(55.3694 0 2.36871)
(52.6902 0 1.87816)
(50.4005 0 1.53591)
(48.4821 0 1.25851)
(47.008 0 0.965581)
(36.9378 0 -20.8159)
(50.2672 0 -10.7534)
(61.4757 0 -1.17131)
(69.5183 0 3.22664)
(74.8638 0 4.26901)
(78.1672 0 4.17064)
(79.9317 0 3.81238)
(80.6617 0 3.45295)
(80.7527 0 3.1052)
(80.5436 0 2.70669)
(80.3416 0 2.16501)
(80.4564 0 1.35113)
(24.5597 0 -27.5049)
(30.4873 0 -19.0708)
(40.0782 0 -11.0973)
(51.0751 0 -6.13278)
(60.4552 0 -3.12447)
(67.7419 0 -1.07959)
(72.8838 0 0.365548)
(76.3605 0 1.30903)
(78.7173 0 1.76842)
(80.4429 0 1.73465)
(81.9459 0 1.16479)
(83.5538 0 -0.0230682)
(17.5155 0 -32.5712)
(21.8213 0 -26.2379)
(29.8326 0 -20.774)
(39.9825 0 -16.2335)
(49.1157 0 -11.8021)
(56.503 0 -7.74442)
(61.912 0 -4.44593)
(65.7566 0 -2.11095)
(68.5524 0 -0.762886)
(70.7529 0 -0.343956)
(72.6983 0 -0.795392)
(74.6051 0 -2.08064)
(9.00083 0 -41.0501)
(12.0647 0 -36.4598)
(15.6244 0 -31.8673)
(23.3088 0 -29.2025)
(31.6863 0 -25.3524)
(39.2696 0 -19.6799)
(45.2795 0 -13.789)
(49.6367 0 -8.83145)
(52.741 0 -5.28944)
(55.0256 0 -3.18943)
(56.8368 0 -2.3668)
(58.3895 0 -2.63257)
(59.7681 0 -3.82085)
(5.20985 0 -43.5477)
(7.25009 0 -39.5598)
(10.2028 0 -37.2229)
(16.5442 0 -36.6211)
(22.519 0 -32.5592)
(27.7778 0 -25.6203)
(31.7462 0 -18.2203)
(34.5222 0 -11.9868)
(36.4493 0 -7.55403)
(37.8366 0 -4.90149)
(38.8859 0 -3.74277)
(39.6725 0 -3.75717)
(40.1667 0 -4.66751)
(1.8204 0 -44.8935)
(2.60856 0 -41.7185)
(4.18481 0 -40.9879)
(7.57329 0 -41.4282)
(10.5827 0 -36.8846)
(13.1022 0 -28.9948)
(14.8849 0 -20.5993)
(16.0224 0 -13.5884)
(16.7223 0 -8.64038)
(17.1403 0 -5.65392)
(17.3373 0 -4.22722)
(17.2766 0 -3.93796)
(16.8537 0 -4.44224)
(-1.40899 0 -44.8843)
(-2.13576 0 -42.0463)
(-3.30212 0 -42.0574)
(-3.81244 0 -42.895)
(-4.16108 0 -38.135)
(-4.51081 0 -29.8908)
(-4.78112 0 -21.1225)
(-5.07164 0 -13.8217)
(-5.3928 0 -8.67387)
(-5.76835 0 -5.52028)
(-6.25949 0 -3.88293)
(-6.97809 0 -3.27778)
(-8.06798 0 -3.33639)
(-4.71536 0 -43.4079)
(-7.00204 0 -39.7792)
(-11.3104 0 -39.5735)
(-16.2131 0 -40.5072)
(-20.0288 0 -36.1411)
(-23.2032 0 -28.4053)
(-25.3466 0 -20.034)
(-26.8238 0 -12.9763)
(-27.8917 0 -7.94302)
(-28.7612 0 -4.78915)
(-29.6053 0 -3.02391)
(-30.6003 0 -2.13925)
(-31.9341 0 -1.76998)
(-8.38518 0 -40.4998)
(-11.968 0 -35.1289)
(-17.5295 0 -33.597)
(-26.8572 0 -34.0854)
(-33.9281 0 -30.8175)
(-39.6985 0 -24.5705)
(-43.5818 0 -17.4576)
(-46.128 0 -11.261)
(-47.777 0 -6.73212)
(-48.9058 0 -3.80976)
(-49.8012 0 -2.05332)
(-50.7217 0 -0.958933)
(-51.9315 0 -0.183415)
(-12.721 0 -36.4717)
(-17.1105 0 -30.2872)
(-21.8036 0 -25.3421)
(-32.821 0 -24.9717)
(-42.3587 0 -23.2959)
(-50.0407 0 -19.0188)
(-55.3903 0 -13.6257)
(-58.9168 0 -8.75944)
(-61.1073 0 -5.12944)
(-62.4545 0 -2.72694)
(-63.3407 0 -1.17941)
(-64.0983 0 0.0116035)
(-65.0588 0 1.15752)
(-17.6663 0 -31.2929)
(-23.1182 0 -25.3967)
(-27.8724 0 -18.1851)
(-34.8454 0 -13.2581)
(-43.2841 0 -12.9482)
(-50.9243 0 -11.8729)
(-57.0123 0 -8.88418)
(-61.2501 0 -5.76934)
(-63.9102 0 -3.3506)
(-65.5451 0 -1.71295)
(-66.6054 0 -0.576475)
(-67.4332 0 0.591847)
(-68.2863 0 2.03244)
(-22.5774 0 -24.6707)
(-29.6349 0 -19.8371)
(-35.0457 0 -13.8947)
(-39.13 0 -9.41929)
(-43.1419 0 -6.61314)
(-48.4482 0 -4.51452)
(-52.559 0 -2.93348)
(-55.3 0 -1.7475)
(-57.0316 0 -0.73753)
(-58.185 0 0.186649)
(-59.1342 0 1.10636)
(-60.0987 0 2.25224)
(-60.902 0 3.75064)
(-26.2838 0 -15.4784)
(-34.2726 0 -12.3)
(-40.3158 0 -8.59345)
(-44.5272 0 -5.55226)
(-47.8579 0 -3.54717)
(-50.675 0 -2.37624)
(-52.8621 0 -1.60859)
(-54.5065 0 -0.972147)
(-55.6593 0 -0.367602)
(-56.3726 0 0.214771)
(-56.6927 0 0.789667)
(-56.5696 0 1.44854)
(-55.8279 0 2.25577)
(-29.2013 0 -10.1781)
(-37.7209 0 -7.80717)
(-44.0163 0 -5.07085)
(-48.1281 0 -2.67268)
(-50.7744 0 -0.927223)
(-52.5902 0 0.196697)
(-53.9352 0 0.880822)
(-54.9479 0 1.34297)
(-55.6209 0 1.70755)
(-55.9212 0 2.01907)
(-55.8311 0 2.28241)
(-55.3203 0 2.50797)
(-54.2951 0 2.72332)
)
;

boundaryField
{
    top
    {
        type            directionMixed;
        refValue        uniform (0 0 0);
        refGradient     uniform (0 0 0);
        valueFraction   uniform (0 0 0 0 0 1);
        value           nonuniform List<vector> 
13
(
(-29.2013 0 0)
(-37.7209 0 0)
(-44.0163 0 0)
(-48.1281 0 0)
(-50.7744 0 0)
(-52.5902 0 0)
(-53.9352 0 0)
(-54.9479 0 0)
(-55.6209 0 0)
(-55.9212 0 0)
(-55.8311 0 0)
(-55.3203 0 0)
(-54.2951 0 0)
)
;
    }
    bottom
    {
        type            fixedValue;
        value           uniform (0 0 0);
    }
    frontAndBack
    {
        type            empty;
    }
    left_cyc
    {
        type            cyclic;
    }
    right_cyc
    {
        type            cyclic;
    }
    procBoundary3to0throughright_cyc
    {
        type            processorCyclic;
        value           nonuniform List<vector> 
15
(
(46.17 0 0.568256)
(81.2081 0 0.120217)
(85.5012 0 -1.89189)
(76.5628 0 -4.14017)
(60.9463 0 -5.7537)
(40.2669 0 -6.21207)
(15.9393 0 -5.44796)
(-9.66024 0 -3.78205)
(-33.7569 0 -1.68308)
(-53.6271 0 0.432071)
(-66.4509 0 2.29565)
(-69.3325 0 3.57946)
(-61.4439 0 5.43392)
(-54.4017 0 3.09716)
(-52.6633 0 2.92643)
)
;
    }
    procBoundary3to2
    {
        type            processor;
        value           nonuniform List<vector> 
16
(
(57.7027 0 -15.2788)
(24.5617 0 -23.7596)
(18.3734 0 -32.228)
(13.3215 0 -37.1771)
(13.3215 0 -37.1771)
(5.81118 0 -44.2998)
(3.37504 0 -46.8341)
(1.24154 0 -48.0986)
(-0.757214 0 -48.1452)
(-2.82816 0 -46.9942)
(-5.21098 0 -44.5819)
(-8.04953 0 -40.7466)
(-11.2942 0 -35.204)
(-14.5242 0 -27.9385)
(-17.0254 0 -17.7145)
(-19.0503 0 -11.9195)
)
;
    }
}


// ************************************************************************* //
