/*--------------------------------*- C++ -*----------------------------------*\
| =========                 |                                                 |
| \\      /  F ield         | OpenFOAM: The Open Source CFD Toolbox           |
|  \\    /   O peration     | Version:  2.3.0                                 |
|   \\  /    A nd           | Web:      www.OpenFOAM.org                      |
|    \\/     M anipulation  |                                                 |
\*---------------------------------------------------------------------------*/
FoamFile
{
    version     2.0;
    format      ascii;
    class       volScalarField;
    location    "14000";
    object      p;
}
// * * * * * * * * * * * * * * * * * * * * * * * * * * * * * * * * * * * * * //

dimensions      [0 2 -2 0 0 0 0];

internalField   nonuniform List<scalar> 
192
(
-1662.33
-1671.17
-1679.83
-1689
-1699.59
-1712.56
-1728.42
-1746.55
-1764.85
-1779.43
-1784.46
-1775.33
-1758.98
-1497.16
-1505.66
-1514.42
-1523.77
-1534.03
-1545.42
-1557.83
-1570.72
-1582.55
-1591.16
-1594.18
-1588.76
-1578.9
-1359.49
-1366.55
-1374.03
-1381.98
-1390.44
-1399.33
-1408.44
-1417.04
-1423.92
-1428.15
-1429.62
-1427
-1421.92
-1236.95
-1241.94
-1247.23
-1252.73
-1258.38
-1264.08
-1269.61
-1274.19
-1276.99
-1277.91
-1278.15
-1277.72
-1276.34
-1118.02
-1120.83
-1123.76
-1126.7
-1129.63
-1132.52
-1135.14
-1136.89
-1137.17
-1136.18
-1135.62
-1136.58
-1137.32
-996.822
-997.811
-998.76
-999.638
-1000.45
-1001.16
-1001.6
-1001.38
-1000.12
-998.062
-997.075
-998.815
-1000.74
-871.265
-870.865
-870.359
-869.767
-869.089
-868.233
-867.076
-865.391
-863.009
-860.267
-859.088
-861.228
-863.967
-741.101
-739.704
-738.196
-736.582
-734.815
-732.779
-730.359
-727.447
-724.116
-720.928
-719.687
-721.995
-725.335
-606.98
-604.824
-602.542
-600.088
-597.376
-594.299
-590.747
-586.75
-582.617
-579.143
-577.877
-580.249
-584.027
-469.844
-466.935
-463.875
-460.569
-456.903
-452.767
-448.115
-443.109
-438.255
-434.522
-433.212
-435.635
-439.813
-331.356
-327.443
-323.369
-318.99
-314.169
-308.808
-302.934
-296.829
-291.156
-287.023
-285.603
-288.156
-292.866
-195.395
-189.962
-184.418
-178.567
-172.24
-165.336
-157.925
-150.385
-143.524
-138.623
-136.949
-139.85
-145.474
-68.103
-60.2218
-52.1163
-43.6233
-34.613
-25.042
-15.0618
-5.16568
3.68207
9.98617
12.1538
8.52384
23.5329
33.1546
42.8952
52.9541
63.6007
75.0771
87.4271
100.216
112.217
121.169
124.384
119.153
74.0122
69.2229
63.4696
56.7566
48.9519
39.8722
29.4385
17.9353
6.43442
-2.8139
-5.87423
-0.628503
)
;

boundaryField
{
    top
    {
        type            calculated;
        value           nonuniform List<scalar> 
12
(
-9.81
-9.81
-9.81
-9.81
-9.81
-9.81
-9.81
-9.81
-9.81
-9.81
-9.81
-9.81
)
;
    }
    bottom
    {
        type            calculated;
        value           nonuniform List<scalar> 
13
(
-1753.34
-1762.31
-1770.86
-1779.8
-1790.21
-1803.3
-1819.76
-1838.54
-1857.71
-1873.46
-1879.16
-1868.94
-1851.49
)
;
    }
    frontAndBack
    {
        type            empty;
    }
    left_cyc
    {
        type            cyclic;
    }
    right_cyc
    {
        type            cyclic;
    }
    procBoundary0to1
    {
        type            processor;
        value           nonuniform List<scalar> 
16
(
-1740.33
-1566.43
-1414.29
-1272.87
-1136.53
-1001.65
-866.127
-728.564
-588.185
-444.808
-298.786
-152.677
1.29385
1.29385
109.031
9.78844
)
;
    }
    procBoundary0to3throughleft_cyc
    {
        type            processorCyclic;
        value           nonuniform List<scalar> 
15
(
-1652.87
-1488.61
-1352.76
-1232.31
-1115.39
-995.842
-871.559
-742.371
-609.03
-472.682
-335.245
-200.914
-75.9516
14.0499
77.8177
)
;
    }
}


// ************************************************************************* //
