/*--------------------------------*- C++ -*----------------------------------*\
| =========                 |                                                 |
| \\      /  F ield         | OpenFOAM: The Open Source CFD Toolbox           |
|  \\    /   O peration     | Version:  2.3.0                                 |
|   \\  /    A nd           | Web:      www.OpenFOAM.org                      |
|    \\/     M anipulation  |                                                 |
\*---------------------------------------------------------------------------*/
FoamFile
{
    version     2.0;
    format      ascii;
    class       volScalarField;
    location    "14000";
    object      p_rgh;
}
// * * * * * * * * * * * * * * * * * * * * * * * * * * * * * * * * * * * * * //

dimensions      [0 2 -2 0 0 0 0];

internalField   nonuniform List<scalar> 
192
(
-1753.34
-1762.31
-1770.86
-1779.8
-1790.21
-1803.3
-1819.76
-1838.54
-1857.71
-1873.46
-1879.16
-1868.94
-1851.49
-1722.46
-1732.24
-1741.5
-1750.89
-1761.35
-1773.94
-1789.2
-1807.71
-1828.81
-1849.69
-1859.41
-1843.15
-1821.69
-1679.05
-1689.78
-1700.09
-1710.38
-1721.26
-1733.7
-1749.23
-1771.32
-1800.85
-1834.9
-1852.36
-1823.7
-1790.19
-1650.52
-1661.5
-1672.27
-1682.78
-1693.1
-1703.99
-1718.74
-1742.73
-1780.02
-1827.86
-1853.14
-1811.85
-1765.93
-1649.33
-1659.06
-1668.77
-1677.88
-1685.91
-1693.6
-1705.31
-1728.28
-1770.92
-1830.31
-1861.67
-1810.42
-1754.23
-1669.25
-1677.18
-1684.87
-1691.25
-1695.54
-1699.1
-1705.82
-1726.47
-1772.77
-1840.17
-1874.95
-1817.9
-1754.24
-1699.75
-1705.73
-1710.67
-1713.41
-1713.46
-1712.8
-1716.76
-1737.32
-1784.71
-1852.88
-1888.38
-1830.75
-1766.06
-1732.73
-1736.3
-1738.13
-1737.88
-1736.53
-1734.92
-1739.48
-1759.25
-1802.58
-1864.76
-1899.14
-1844.86
-1785.95
-1762.37
-1764.57
-1765.47
-1765.21
-1763.99
-1763.93
-1769.49
-1787.11
-1823.19
-1875.03
-1906.4
-1858.86
-1809.85
-1785.29
-1788.86
-1791.21
-1792.49
-1793.38
-1795.39
-1801.4
-1815.87
-1843.42
-1883.04
-1909.69
-1871.33
-1833.87
-1786.99
-1795.33
-1802.46
-1808.51
-1813.81
-1819.21
-1826.45
-1838.42
-1858.33
-1886.31
-1907.12
-1878.9
-1852.28
-1732.74
-1750.42
-1766.68
-1781.63
-1795.36
-1808.13
-1820.62
-1834.25
-1850.9
-1871.04
-1886.26
-1866.66
-1846.88
-1549.4
-1578.79
-1606.28
-1632.25
-1656.9
-1680.32
-1702.54
-1723.72
-1744.14
-1763.26
-1775.05
-1759.68
-1151.34
-1185.44
-1218.03
-1249.28
-1279.13
-1307.26
-1333.21
-1356.55
-1376.89
-1393.37
-1401.28
-1390.36
-427.155
-457.917
-489.387
-521.655
-554.812
-588.771
-623.05
-656.442
-686.535
-709.172
-717.262
-704.344
)
;

boundaryField
{
    top
    {
        type            fixedValue;
        value           uniform 0;
    }
    bottom
    {
        type            fixedFluxPressure;
        gradient        uniform 0;
        value           nonuniform List<scalar> 
13
(
-1753.34
-1762.31
-1770.86
-1779.8
-1790.21
-1803.3
-1819.76
-1838.54
-1857.71
-1873.46
-1879.16
-1868.94
-1851.49
)
;
    }
    frontAndBack
    {
        type            empty;
    }
    left_cyc
    {
        type            cyclic;
    }
    right_cyc
    {
        type            cyclic;
    }
    procBoundary0to1
    {
        type            processor;
        value           nonuniform List<scalar> 
16
(
-1832.04
-1801.26
-1762.91
-1733.13
-1718.62
-1717.11
-1727.91
-1750.61
-1779.93
-1810.58
-1834.87
-1831.1
-1739.67
-1739.67
-1372.41
-678.795
)
;
    }
    procBoundary0to3throughleft_cyc
    {
        type            processorCyclic;
        value           nonuniform List<scalar> 
15
(
-1743.5
-1711.61
-1667.72
-1639.35
-1639.99
-1661.85
-1693.81
-1728.23
-1758.98
-1780.51
-1777.41
-1713.53
-1517.88
-1115.41
-397.079
)
;
    }
}


// ************************************************************************* //
