/*--------------------------------*- C++ -*----------------------------------*\
| =========                 |                                                 |
| \\      /  F ield         | OpenFOAM: The Open Source CFD Toolbox           |
|  \\    /   O peration     | Version:  2.3.0                                 |
|   \\  /    A nd           | Web:      www.OpenFOAM.org                      |
|    \\/     M anipulation  |                                                 |
\*---------------------------------------------------------------------------*/
FoamFile
{
    version     2.0;
    format      ascii;
    class       surfaceScalarField;
    location    "14000";
    object      phi;
}
// * * * * * * * * * * * * * * * * * * * * * * * * * * * * * * * * * * * * * //

dimensions      [0 3 -1 0 0 0 0];

internalField   nonuniform List<scalar> 
356
(
0.308005
0.00243994
0.312952
-0.00494707
0.327002
-0.01405
0.350053
-0.0230514
0.378147
-0.028094
0.401184
-0.0230375
0.401949
-0.000764692
0.358379
0.0435706
0.249613
0.108765
0.0710013
0.178612
-0.136686
0.207687
-0.294222
0.157537
0.0857373
0.54704
-0.0057212
0.561953
-0.0198597
0.583959
-0.0360557
0.610983
-0.0500756
0.636732
-0.0538436
0.648705
-0.0350098
0.626868
0.0210721
0.543703
0.126735
0.371771
0.280698
0.104313
0.44607
-0.20153
0.51353
-0.440284
0.396291
0.226228
0.578237
-0.0202932
0.595808
-0.0374311
0.615509
-0.0557567
0.634549
-0.0691156
0.64715
-0.0664447
0.643236
-0.0310955
0.606996
0.0573118
0.51669
0.217042
0.348946
0.448442
0.0971273
0.697889
-0.187755
0.798412
-0.41436
0.622896
0.366431
0.51719
-0.03343
0.529981
-0.0502217
0.540917
-0.066693
0.547284
-0.0754825
0.544659
-0.06382
0.526219
-0.0126552
0.48199
0.101541
0.399025
0.300006
0.263391
0.584075
0.0723594
0.88892
-0.139463
1.01023
-0.314255
0.797688
0.483682
0.40922
-0.0402006
0.413207
-0.0542092
0.412866
-0.0663515
0.40612
-0.0687372
0.390236
-0.047936
0.361623
0.0159585
0.31599
0.147173
0.248751
0.367245
0.156371
0.676456
0.0417753
1.00352
-0.0796433
1.13165
-0.188558
0.906602
0.568075
0.266878
-0.0390265
0.261558
-0.0488898
0.250995
-0.0557884
0.234094
-0.051836
0.209857
-0.0236986
0.177655
0.0481603
0.137888
0.186941
0.0928062
0.412327
0.0480015
0.721261
0.0113373
1.04018
-0.0200309
1.16302
-0.0606108
0.947182
0.614464
0.100943
-0.0308353
0.0883703
-0.0363174
0.0709565
-0.0383747
0.04857
-0.0294494
0.0216974
0.00317396
-0.00775526
0.077613
-0.0357095
0.214895
-0.0542998
0.430917
-0.051007
0.717968
-0.0158665
1.00504
0.0331231
1.11403
0.0571703
0.923135
0.620626
-0.0719624
-0.0182092
-0.0886002
-0.0196797
-0.109204
-0.0177711
-0.133103
-0.00555011
-0.158391
0.0284614
-0.180915
0.100138
-0.193182
0.227161
-0.182902
0.420638
-0.134029
0.669095
-0.0382161
0.909227
0.0762552
0.99956
0.156866
0.842524
0.586783
-0.233294
-0.004127
-0.251127
-0.00184607
-0.27228
0.00338158
-0.295223
0.0173934
-0.316492
0.0497296
-0.329698
0.113344
-0.324331
0.221795
-0.285533
0.381839
-0.197211
0.580772
-0.0550003
0.767016
0.107722
0.836838
0.233388
0.716857
0.516547
-0.365289
0.00910941
-0.382175
0.0150394
-0.401878
0.023085
-0.422023
0.0375379
-0.437772
0.0654795
-0.440791
0.116362
-0.41859
0.199594
-0.355624
0.318873
-0.237992
0.46314
-0.0657889
0.594814
0.126709
0.644341
0.283043
0.560523
0.417794
-0.449473
0.0200978
-0.463572
0.0291385
-0.479723
0.0392354
-0.49513
0.0529452
-0.504264
0.0746138
-0.497922
0.110021
-0.463124
0.164796
-0.385113
0.240861
-0.252853
0.33088
-0.0697846
0.411745
0.132003
0.442553
0.30114
0.391386
0.303326
-0.466546
0.0278613
-0.475667
0.0382589
-0.485312
0.0488812
-0.49314
0.0607728
-0.494296
0.0757694
-0.480573
0.0962982
-0.44049
0.124713
-0.361416
0.161787
-0.234818
0.204282
-0.0651054
0.242033
0.120684
0.256764
0.279237
0.232834
-0.410453
0.0305
-0.411114
0.0389199
-0.409604
0.0473708
-0.40492
0.0560897
-0.394471
0.0653195
-0.373426
0.0752539
-0.334661
0.0859476
-0.270028
0.097154
-0.173796
0.108051
-0.0486074
0.116843
0.0879859
0.12017
0.114821
-0.355554
0.0187452
-0.339459
0.0228243
-0.319054
0.0269661
-0.294207
0.0312424
-0.264582
0.0356948
-0.22962
0.0402922
-0.188561
0.0448881
-0.140586
0.049179
-0.0852391
0.052704
-0.0233488
0.0549532
0.0412473
0.0555742
0.0544744
-0.343338
-0.326015
-0.304292
-0.277975
-0.246821
-0.210609
-0.169259
-0.123007
-0.0726105
-0.019462
0.034473
)
;

boundaryField
{
    top
    {
        type            calculated;
        value           nonuniform List<scalar> 
12
(
0.00569692
0.00550182
0.00524323
0.00492494
0.00454079
0.00408027
0.0035377
0.00292729
0.00230767
0.00180465
0.00163917
0.00192475
)
;
    }
    bottom
    {
        type            calculated;
        value           uniform 0;
    }
    frontAndBack
    {
        type            empty;
        value           nonuniform 0();
    }
    left_cyc
    {
        type            cyclic;
        value           nonuniform 0();
    }
    right_cyc
    {
        type            cyclic;
        value           nonuniform 0();
    }
    procBoundary0to1
    {
        type            processor;
        value           nonuniform List<scalar> 
16
(
-0.37996
-0.580775
-0.554563
-0.431506
-0.27295
-0.107
0.0510083
0.19071
0.303624
0.381796
0.415609
0.390919
0.191644
0.205998
0.101594
0.0870227
)
;
    }
    procBoundary0to3throughleft_cyc
    {
        type            processorCyclic;
        value           nonuniform List<scalar> 
15
(
-0.310445
-0.538879
-0.563665
-0.504053
-0.402449
-0.268052
-0.109134
0.0593363
0.219212
0.352053
0.438485
0.458783
0.407814
0.367309
0.356386
)
;
    }
}


// ************************************************************************* //
