/*--------------------------------*- C++ -*----------------------------------*\
| =========                 |                                                 |
| \\      /  F ield         | OpenFOAM: The Open Source CFD Toolbox           |
|  \\    /   O peration     | Version:  2.3.0                                 |
|   \\  /    A nd           | Web:      www.OpenFOAM.org                      |
|    \\/     M anipulation  |                                                 |
\*---------------------------------------------------------------------------*/
FoamFile
{
    version     2.0;
    format      ascii;
    class       volScalarField;
    location    "14000";
    object      T;
}
// * * * * * * * * * * * * * * * * * * * * * * * * * * * * * * * * * * * * * //

dimensions      [0 0 0 1 0 0 0];

internalField   nonuniform List<scalar> 
192
(
40.0054
40.0647
40.0163
39.9134
39.8354
39.8861
40.1485
40.433
40.8167
41.329
41.6188
41.1477
40.6627
33.0369
33.2229
33.2959
33.3029
33.3317
33.5075
33.9238
34.7433
36.0966
37.8881
38.8672
37.284
35.5916
28.1369
28.4581
28.7066
28.9107
29.1229
29.4338
29.9969
31.178
33.1625
35.7742
37.1754
34.8942
32.4033
26.0206
26.3959
26.7389
27.0515
27.344
27.6689
28.2461
29.4604
31.6186
34.5545
36.1215
33.5644
30.778
26.0006
26.3369
26.6672
26.9672
27.2156
27.4494
27.8914
28.9243
30.9859
33.9245
35.4778
32.9369
30.1663
26.9183
27.1946
27.4628
27.6818
27.8205
27.9342
28.1841
29.0149
30.9089
33.6746
35.0986
32.7578
30.1463
28.0568
28.2717
28.4553
28.5675
28.592
28.5987
28.7709
29.5204
31.1973
33.5868
34.8224
32.8085
30.5367
29.0987
29.2438
29.3413
29.381
29.3934
29.4057
29.6097
30.272
31.6345
33.5431
34.5832
32.9308
31.1133
29.9115
30.0237
30.1057
30.1622
30.2007
30.2784
30.5132
31.0702
32.1063
33.5314
34.3723
33.0862
31.7262
30.4676
30.6171
30.7418
30.8476
30.9525
31.0941
31.3401
31.7889
32.536
33.5353
34.18
33.2397
32.2798
30.5036
30.7591
30.9929
31.2105
31.4215
31.6458
31.9195
32.2964
32.8301
33.4997
33.9633
33.3216
32.6681
29.4197
29.8598
30.275
30.671
31.0531
31.4277
31.8067
32.2098
32.6575
33.1344
33.4562
33.0278
32.5438
26.0956
26.7485
27.3723
27.9759
28.5657
29.1438
29.7079
30.2524
30.7651
31.2105
31.455
31.1221
19.2023
19.9115
20.5982
21.2684
21.9254
22.5679
23.1892
23.7751
24.2999
24.7124
24.8929
24.6309
7.71258
8.10486
8.49326
8.87924
9.26214
9.63791
9.99805
10.3287
10.6095
10.8117
10.8876
10.7718
)
;

boundaryField
{
    top
    {
        type            fixedValue;
        value           uniform 0;
    }
    bottom
    {
        type            fixedValue;
        value           uniform 43.8;
    }
    frontAndBack
    {
        type            empty;
    }
    left_cyc
    {
        type            cyclic;
    }
    right_cyc
    {
        type            cyclic;
    }
    procBoundary0to1
    {
        type            processor;
        value           nonuniform List<scalar> 
16
(
40.3109
34.4277
30.6821
28.9424
28.4716
28.6313
29.1787
29.9868
30.8482
31.6279
32.1816
32.1062
30.645
30.645
24.1756
10.5432
)
;
    }
    procBoundary0to3throughleft_cyc
    {
        type            processorCyclic;
        value           nonuniform List<scalar> 
15
(
39.8398
32.7012
27.7337
25.6125
25.6737
26.6624
27.8467
28.9304
29.7713
30.2921
30.2227
28.9487
25.4059
18.4656
7.31581
)
;
    }
}


// ************************************************************************* //
