/*--------------------------------*- C++ -*----------------------------------*\
| =========                 |                                                 |
| \\      /  F ield         | OpenFOAM: The Open Source CFD Toolbox           |
|  \\    /   O peration     | Version:  2.3.0                                 |
|   \\  /    A nd           | Web:      www.OpenFOAM.org                      |
|    \\/     M anipulation  |                                                 |
\*---------------------------------------------------------------------------*/
FoamFile
{
    version     2.0;
    format      ascii;
    class       volVectorField;
    location    "10000";
    object      U;
}
// * * * * * * * * * * * * * * * * * * * * * * * * * * * * * * * * * * * * * //

dimensions      [0 1 -1 0 0 0 0];

internalField   nonuniform List<vector> 
191
(
(-59.7844 0 3.45711)
(-63.9566 0 4.70232)
(-69.0698 0 6.22551)
(-74.9501 0 7.28618)
(-79.695 0 5.6927)
(-78.2331 0 -0.490781)
(-68.0909 0 -9.35539)
(-51.2382 0 -18.2703)
(-29.5151 0 -24.5635)
(-7.33762 0 -25.7069)
(14.8904 0 -25.5425)
(37.0284 0 -23.0498)
(57.7027 0 -15.2788)
(-79.4476 0 3.95409)
(-77.215 0 4.28416)
(-73.249 0 4.15036)
(-67.0983 0 2.28864)
(-57.9871 0 -4.00351)
(-45.8139 0 -14.8634)
(-32.5064 0 -22.1925)
(-21.2125 0 -24.2722)
(-12.1335 0 -25.975)
(-3.13163 0 -26.8585)
(6.06761 0 -26.6817)
(15.0583 0 -25.4612)
(24.5617 0 -23.7596)
(-71.3149 0 -0.0734418)
(-65.4604 0 -1.69204)
(-57.3826 0 -3.98267)
(-47.4236 0 -7.47551)
(-36.2001 0 -13.4293)
(-28.5944 0 -22.2742)
(-22.6172 0 -29.3977)
(-16.2647 0 -33.1847)
(-9.38981 0 -35.0914)
(-2.39402 0 -35.8864)
(4.65848 0 -35.7361)
(11.6394 0 -34.6137)
(18.3734 0 -32.228)
(-60.2698 0 -5.49554)
(-54.1986 0 -9.07662)
(-46.1052 0 -13.2861)
(-36.6022 0 -17.7116)
(-26.3725 0 -22.3605)
(-20.4288 0 -28.2444)
(-16.2462 0 -34.3179)
(-11.9029 0 -38.2966)
(-7.02016 0 -40.7934)
(-1.80893 0 -41.9548)
(3.50671 0 -41.7231)
(8.62468 0 -40.1132)
(13.3215 0 -37.1771)
(-48.3651 0 -10.4142)
(-43.4796 0 -15.7644)
(-36.8674 0 -21.7153)
(-28.9979 0 -26.8749)
(-20.3644 0 -29.8706)
(-14.3308 0 -32.9361)
(-11.074 0 -38.1685)
(-8.03891 0 -42.2873)
(-4.73717 0 -45.0722)
(-1.22697 0 -46.3923)
(2.36357 0 -46.1246)
(5.81118 0 -44.2998)
(-33.778 0 -13.9586)
(-30.6379 0 -20.6953)
(-26.198 0 -28.1408)
(-20.6239 0 -34.3147)
(-14.2525 0 -36.8713)
(-8.74824 0 -37.439)
(-6.53255 0 -40.924)
(-4.66604 0 -44.7425)
(-2.76081 0 -47.6706)
(-0.721397 0 -49.1303)
(1.37317 0 -48.8294)
(3.37504 0 -46.8341)
(-15.8118 0 -15.7845)
(-14.487 0 -23.4047)
(-12.4223 0 -31.9066)
(-9.649 0 -38.9751)
(-6.22272 0 -41.7115)
(-3.17276 0 -40.487)
(-2.31514 0 -42.5194)
(-1.67284 0 -45.9965)
(-1.03798 0 -48.9734)
(-0.280113 0 -50.5238)
(0.519297 0 -50.1999)
(1.24154 0 -48.0986)
(4.81683 0 -16.0845)
(4.50336 0 -24.0508)
(4.212 0 -32.9812)
(3.81443 0 -40.4406)
(3.67571 0 -43.3255)
(2.76829 0 -41.1742)
(1.88899 0 -42.5644)
(1.15066 0 -45.9909)
(0.568108 0 -49.0673)
(0.128465 0 -50.6983)
(-0.268706 0 -50.3537)
(-0.757214 0 -48.1452)
(27.4313 0 -9.3871)
(26.2051 0 -15.1242)
(24.4785 0 -22.7926)
(21.9584 0 -31.2712)
(18.3257 0 -38.2327)
(14.3534 0 -40.822)
(8.7904 0 -38.839)
(6.17924 0 -40.7039)
(4.03851 0 -44.6607)
(2.22341 0 -47.9735)
(0.546032 0 -49.6875)
(-1.09476 0 -49.3256)
(-2.82816 0 -46.9942)
(47.1835 0 -8.00179)
(45.2477 0 -13.1092)
(42.272 0 -19.7634)
(37.7664 0 -26.8354)
(31.343 0 -32.3289)
(23.8507 0 -34.1693)
(14.3082 0 -33.6586)
(10.5925 0 -37.3156)
(7.25358 0 -42.0653)
(4.1 0 -45.6185)
(1.01366 0 -47.3741)
(-2.0783 0 -47.0021)
(-5.21098 0 -44.5819)
(60.4201 0 -6.13176)
(57.8357 0 -10.1983)
(53.765 0 -15.3964)
(47.6782 0 -20.6641)
(39.3545 0 -24.3193)
(29.1692 0 -24.9889)
(20.0405 0 -25.9226)
(15.5263 0 -32.8517)
(11.0828 0 -38.2176)
(6.36391 0 -41.7892)
(1.57558 0 -43.4871)
(-3.27548 0 -43.1215)
(-8.04953 0 -40.7466)
(63.1171 0 -4.00846)
(59.9912 0 -6.6856)
(55.1555 0 -9.93876)
(48.3691 0 -12.5024)
(40.5433 0 -12.9862)
(31.5656 0 -14.5869)
(26.3226 0 -20.4277)
(21.4239 0 -27.7245)
(15.4678 0 -32.8945)
(8.97887 0 -36.1561)
(2.22504 0 -37.6868)
(-4.62503 0 -37.3545)
(-11.2942 0 -35.204)
(56.451 0 -1.01882)
(54.4429 0 -2.06779)
(51.3213 0 -3.35297)
(46.637 0 -5.11016)
(41.6558 0 -7.4151)
(37.6113 0 -10.7125)
(33.3234 0 -15.9223)
(27.3425 0 -21.6997)
(19.823 0 -25.98)
(11.5606 0 -28.7439)
(2.86509 0 -30.0456)
(-5.95089 0 -29.7635)
(-14.5242 0 -27.9385)
(55.216 0 -0.538537)
(53.9186 0 -1.15021)
(52.1204 0 -1.81361)
(49.7311 0 -2.68105)
(46.7592 0 -4.07918)
(43.1798 0 -6.48608)
(38.4354 0 -9.86366)
(31.6686 0 -13.5128)
(23.1561 0 -16.3705)
(13.5795 0 -18.2726)
(3.37443 0 -19.1718)
(-6.99222 0 -18.976)
(-17.0254 0 -17.7145)
(55.3142 0 1.61411)
(54.5418 0 1.2261)
(53.4412 0 0.710547)
(51.9768 0 -0.0974677)
(49.9585 0 -1.41183)
(46.9068 0 -3.41305)
(42.0934 0 -6.01291)
(34.9787 0 -8.69068)
(25.8121 0 -10.8583)
(15.2281 0 -12.3577)
(3.79661 0 -13.0768)
(-7.84982 0 -12.9219)
(-19.0503 0 -11.9195)
)
;

boundaryField
{
    top
    {
        type            directionMixed;
        refValue        uniform (0 0 0);
        refGradient     uniform (0 0 0);
        valueFraction   uniform (0 0 0 0 0 1);
        value           nonuniform List<vector> 
13
(
(55.3142 0 0)
(54.5418 0 0)
(53.4412 0 0)
(51.9768 0 0)
(49.9585 0 0)
(46.9068 0 0)
(42.0934 0 0)
(34.9787 0 0)
(25.8121 0 0)
(15.2281 0 0)
(3.79661 0 0)
(-7.84982 0 0)
(-19.0503 0 0)
)
;
    }
    bottom
    {
        type            fixedValue;
        value           uniform (0 0 0);
    }
    frontAndBack
    {
        type            empty;
    }
    left_cyc
    {
        type            cyclic;
    }
    right_cyc
    {
        type            cyclic;
    }
    procBoundary2to1
    {
        type            processor;
        value           nonuniform List<vector> 
16
(
(-56.3923 0 2.59574)
(-80.4909 0 3.57739)
(-75.3172 0 1.02989)
(-64.6065 0 -2.8259)
(-51.8488 0 -6.37271)
(-35.9464 0 -8.89503)
(-16.6198 0 -10.1165)
(5.16134 0 -10.1843)
(5.16134 0 -10.1843)
(28.3818 0 -5.65195)
(48.4731 0 -4.59199)
(62.0021 0 -3.36151)
(65.0273 0 -2.14111)
(57.7427 0 -0.07345)
(56.0543 0 0.0506617)
(55.7226 0 1.93994)
)
;
    }
    procBoundary2to3
    {
        type            processor;
        value           nonuniform List<vector> 
16
(
(72.4223 0 -6.26365)
(36.9378 0 -20.8159)
(24.5597 0 -27.5049)
(17.5155 0 -32.5712)
(9.00083 0 -41.0501)
(9.00083 0 -41.0501)
(5.20985 0 -43.5477)
(1.8204 0 -44.8935)
(-1.40899 0 -44.8843)
(-4.71536 0 -43.4079)
(-8.38518 0 -40.4998)
(-12.721 0 -36.4717)
(-17.6663 0 -31.2929)
(-22.5774 0 -24.6707)
(-26.2838 0 -15.4784)
(-29.2013 0 -10.1781)
)
;
    }
}


// ************************************************************************* //
