/*--------------------------------*- C++ -*----------------------------------*\
| =========                 |                                                 |
| \\      /  F ield         | OpenFOAM: The Open Source CFD Toolbox           |
|  \\    /   O peration     | Version:  2.3.0                                 |
|   \\  /    A nd           | Web:      www.OpenFOAM.org                      |
|    \\/     M anipulation  |                                                 |
\*---------------------------------------------------------------------------*/
FoamFile
{
    version     2.0;
    format      ascii;
    class       volScalarField;
    location    "7000";
    object      p;
}
// * * * * * * * * * * * * * * * * * * * * * * * * * * * * * * * * * * * * * //

dimensions      [0 2 -2 0 0 0 0];

internalField   nonuniform List<scalar> 
192
(
-1660.53
-1669.39
-1678
-1687.03
-1697.34
-1709.92
-1725.4
-1743.35
-1761.91
-1777.45
-1784.64
-1777.42
-1761.91
-1495.42
-1503.91
-1512.6
-1521.85
-1531.97
-1543.21
-1555.53
-1568.48
-1580.69
-1589.97
-1594.27
-1589.98
-1580.75
-1357.99
-1365.01
-1372.45
-1380.36
-1388.78
-1397.65
-1406.78
-1415.58
-1422.88
-1427.54
-1429.64
-1427.57
-1422.95
-1235.84
-1240.82
-1246.1
-1251.62
-1257.28
-1263.02
-1268.64
-1273.46
-1276.62
-1277.77
-1278.11
-1277.79
-1276.68
-1117.37
-1120.19
-1123.13
-1126.11
-1129.07
-1131.99
-1134.71
-1136.66
-1137.2
-1136.33
-1135.55
-1136.34
-1137.24
-996.606
-997.614
-998.584
-999.484
-1000.31
-1001.06
-1001.57
-1001.5
-1000.41
-998.4
-996.995
-998.396
-1000.4
-871.419
-871.032
-870.537
-869.951
-869.282
-868.46
-867.365
-865.776
-863.489
-860.718
-859.007
-860.697
-863.435
-741.539
-740.142
-738.632
-737.017
-735.263
-733.259
-730.898
-728.05
-724.739
-721.44
-719.612
-721.408
-724.656
-607.629
-605.465
-603.177
-600.728
-598.036
-594.996
-591.497
-587.53
-583.342
-579.681
-577.808
-579.642
-583.243
-470.665
-467.745
-464.683
-461.389
-457.752
-453.658
-449.044
-444.033
-439.056
-435.064
-433.144
-435.024
-438.95
-332.355
-328.428
-324.355
-319.994
-315.207
-309.887
-304.034
-297.883
-292.028
-287.566
-285.525
-287.526
-291.922
-196.611
-191.163
-185.62
-179.792
-173.5
-166.633
-159.226
-151.604
-144.505
-139.19
-136.845
-139.149
-144.396
-69.614
-61.7272
-53.6347
-45.1706
-36.1975
-26.6532
-16.6516
-6.62862
2.5274
9.35168
12.3089
9.37443
21.6274
31.2692
41.0157
51.054
61.6524
73.0686
85.3938
98.2823
110.643
120.295
124.634
120.374
71.3518
66.8433
61.4181
55.0906
47.7382
39.1738
29.2877
18.2795
7.08115
-2.29638
-5.91808
-1.11575
)
;

boundaryField
{
    top
    {
        type            calculated;
        value           nonuniform List<scalar> 
12
(
-9.81
-9.81
-9.81
-9.81
-9.81
-9.81
-9.81
-9.81
-9.81
-9.81
-9.81
-9.81
)
;
    }
    bottom
    {
        type            calculated;
        value           nonuniform List<scalar> 
13
(
-1751.52
-1760.54
-1769.06
-1777.85
-1787.95
-1800.58
-1816.59
-1835.18
-1854.59
-1871.28
-1879.37
-1871.25
-1854.6
)
;
    }
    frontAndBack
    {
        type            empty;
    }
    left_cyc
    {
        type            cyclic;
    }
    right_cyc
    {
        type            cyclic;
    }
    procBoundary0to1
    {
        type            processor;
        value           nonuniform List<scalar> 
16
(
-1743.43
-1568.6
-1415.7
-1273.56
-1136.71
-1001.49
-865.692
-727.912
-587.36
-443.846
-297.691
-151.404
2.60088
2.60088
110.832
9.32869
)
;
    }
    procBoundary0to3throughleft_cyc
    {
        type            processorCyclic;
        value           nonuniform List<scalar> 
15
(
-1651.02
-1486.86
-1351.27
-1231.21
-1114.74
-995.614
-871.7
-742.805
-609.687
-473.521
-336.268
-202.161
-77.4914
12.1384
74.9461
)
;
    }
}


// ************************************************************************* //
