/*--------------------------------*- C++ -*----------------------------------*\
| =========                 |                                                 |
| \\      /  F ield         | OpenFOAM: The Open Source CFD Toolbox           |
|  \\    /   O peration     | Version:  2.3.0                                 |
|   \\  /    A nd           | Web:      www.OpenFOAM.org                      |
|    \\/     M anipulation  |                                                 |
\*---------------------------------------------------------------------------*/
FoamFile
{
    version     2.0;
    format      ascii;
    class       volScalarField;
    location    "7000";
    object      p_rgh;
}
// * * * * * * * * * * * * * * * * * * * * * * * * * * * * * * * * * * * * * //

dimensions      [0 2 -2 0 0 0 0];

internalField   nonuniform List<scalar> 
192
(
-1751.52
-1760.54
-1769.06
-1777.85
-1787.95
-1800.58
-1816.59
-1835.18
-1854.59
-1871.28
-1879.37
-1871.25
-1854.6
-1720.54
-1730.36
-1739.61
-1748.89
-1759.1
-1771.32
-1786.34
-1804.34
-1825.18
-1846.45
-1859.82
-1846.43
-1825.24
-1676.86
-1687.63
-1697.95
-1708.19
-1718.92
-1731.02
-1745.79
-1766.85
-1795.37
-1829.35
-1853.13
-1829.26
-1795.41
-1648.02
-1659.05
-1669.88
-1680.45
-1690.8
-1701.51
-1715.24
-1737.53
-1772.71
-1819.94
-1854.28
-1819.78
-1772.77
-1646.76
-1656.55
-1666.38
-1675.7
-1683.96
-1691.51
-1702.22
-1722.85
-1762.19
-1820.53
-1863.09
-1820.25
-1762.26
-1666.89
-1674.93
-1682.84
-1689.59
-1694.29
-1697.92
-1703.5
-1721.08
-1763.06
-1829.32
-1876.51
-1828.88
-1763.07
-1697.83
-1704.01
-1709.3
-1712.52
-1712.94
-1712.37
-1714.76
-1731.95
-1775.01
-1842.14
-1889.99
-1841.58
-1774.83
-1731.43
-1735.3
-1737.5
-1737.59
-1736.31
-1734.48
-1737.56
-1754.4
-1793.99
-1855.11
-1900.76
-1854.46
-1793.65
-1761.62
-1764.04
-1765.14
-1765.03
-1763.89
-1763.41
-1767.76
-1783.14
-1816.33
-1867.2
-1907.96
-1866.55
-1815.9
-1784.7
-1788.43
-1790.93
-1792.32
-1793.18
-1794.86
-1800.04
-1812.97
-1838.52
-1877.4
-1911.12
-1876.85
-1838.11
-1786.07
-1794.52
-1801.79
-1807.95
-1813.3
-1818.58
-1825.41
-1836.52
-1855.27
-1882.83
-1908.36
-1882.45
-1854.96
-1731.02
-1748.76
-1765.1
-1780.15
-1794
-1806.85
-1819.33
-1832.74
-1848.99
-1869.16
-1887.33
-1868.96
-1848.8
-1546.71
-1576.08
-1603.56
-1629.54
-1654.24
-1677.77
-1700.15
-1721.53
-1742.2
-1761.95
-1776.03
-1761.86
-1148.62
-1182.58
-1215.05
-1246.23
-1276.09
-1304.34
-1330.53
-1354.24
-1375.08
-1392.41
-1402.04
-1392.28
-426.9
-457.266
-488.297
-520.091
-552.759
-586.262
-620.197
-653.501
-683.957
-707.714
-717.814
-706.551
)
;

boundaryField
{
    top
    {
        type            fixedValue;
        value           uniform 0;
    }
    bottom
    {
        type            fixedFluxPressure;
        gradient        uniform 0;
        value           nonuniform List<scalar> 
13
(
-1751.52
-1760.54
-1769.06
-1777.85
-1787.95
-1800.58
-1816.59
-1835.18
-1854.59
-1871.28
-1879.37
-1871.25
-1854.6
)
;
    }
    frontAndBack
    {
        type            empty;
    }
    left_cyc
    {
        type            cyclic;
    }
    right_cyc
    {
        type            cyclic;
    }
    procBoundary0to1
    {
        type            processor;
        value           nonuniform List<scalar> 
16
(
-1835.28
-1804.51
-1767.05
-1737.88
-1723.4
-1721.71
-1732.42
-1754.64
-1783.17
-1812.87
-1836.38
-1832.55
-1742.07
-1742.07
-1374.83
-681.762
)
;
    }
    procBoundary0to3throughleft_cyc
    {
        type            processorCyclic;
        value           nonuniform List<scalar> 
15
(
-1741.61
-1709.58
-1665.47
-1636.8
-1637.39
-1659.45
-1691.79
-1726.75
-1758.02
-1779.76
-1776.38
-1711.75
-1515.24
-1112.81
-397.162
)
;
    }
}


// ************************************************************************* //
