/*--------------------------------*- C++ -*----------------------------------*\
| =========                 |                                                 |
| \\      /  F ield         | OpenFOAM: The Open Source CFD Toolbox           |
|  \\    /   O peration     | Version:  2.3.0                                 |
|   \\  /    A nd           | Web:      www.OpenFOAM.org                      |
|    \\/     M anipulation  |                                                 |
\*---------------------------------------------------------------------------*/
FoamFile
{
    version     2.0;
    format      ascii;
    class       surfaceScalarField;
    location    "7000";
    object      phi;
}
// * * * * * * * * * * * * * * * * * * * * * * * * * * * * * * * * * * * * * //

dimensions      [0 3 -1 0 0 0 0];

internalField   nonuniform List<scalar> 
356
(
0.307694
0.00305397
0.31172
-0.00402615
0.324677
-0.0129569
0.346848
-0.022171
0.375002
-0.028154
0.400073
-0.0250714
0.405769
-0.00569636
0.370646
0.035123
0.273001
0.0976454
0.104151
0.168849
-0.104838
0.20899
-0.272815
0.167977
0.0965457
0.545955
-0.00450279
0.560109
-0.01818
0.58143
-0.0342776
0.608302
-0.0490434
0.635197
-0.0550488
0.650688
-0.0405622
0.635945
0.00904663
0.564306
0.106762
0.40756
0.254391
0.153321
0.423089
-0.154237
0.516547
-0.407247
0.420987
0.251774
0.577046
-0.0188045
0.594375
-0.035509
0.614065
-0.053967
0.633664
-0.0686423
0.647921
-0.0693065
0.647517
-0.0401574
0.617712
0.0388512
0.537461
0.187013
0.38299
0.408863
0.142685
0.663393
-0.143681
0.802913
-0.382787
0.660093
0.404809
0.5167
-0.031983
0.529681
-0.0484897
0.541095
-0.0653814
0.54843
-0.0759766
0.547557
-0.0684335
0.532075
-0.0246759
0.49256
0.0783664
0.416479
0.263094
0.289603
0.535739
0.105851
0.847145
-0.106895
1.01566
-0.28969
0.842889
0.530555
0.409955
-0.0390116
0.414388
-0.0529227
0.414748
-0.0657422
0.409044
-0.0702722
0.394643
-0.0540324
0.368072
0.0018949
0.325148
0.121291
0.261284
0.326958
0.172513
0.62451
0.0602364
0.959421
-0.0614792
1.13737
-0.173137
0.954546
0.618554
0.268826
-0.0381853
0.264006
-0.0481027
0.254103
-0.0558392
0.238021
-0.0541899
0.21473
-0.0307413
0.18347
0.0331555
0.144451
0.160309
0.0995131
0.371896
0.0536014
0.670421
0.0147994
0.998223
-0.0163497
1.16852
-0.0549178
0.993114
0.664067
0.103616
-0.0303008
0.0914321
-0.0359185
0.0744616
-0.0388687
0.0525205
-0.0322488
0.0259662
-0.00418701
-0.00359666
0.0627184
-0.0325543
0.189267
-0.0537796
0.393121
-0.055394
0.672036
-0.0256412
0.96847
0.0239053
1.11898
0.0534892
0.963531
0.665702
-0.0691841
-0.0178808
-0.0855816
-0.0195211
-0.105962
-0.0184881
-0.129769
-0.00844189
-0.155345
0.0213894
-0.178963
0.0863356
-0.193823
0.204127
-0.188447
0.387745
-0.147051
0.63064
-0.0583889
0.879809
0.0568265
1.00376
0.144957
0.8754
0.624777
-0.230807
-0.00394999
-0.248475
-0.00185367
-0.269546
0.00258285
-0.292696
0.0147084
-0.314826
0.0435198
-0.330077
0.101587
-0.328681
0.202731
-0.29639
0.355454
-0.216828
0.551077
-0.0822234
0.745204
0.0813333
0.840206
0.215134
0.741599
0.546093
-0.363175
0.00911877
-0.379901
0.014873
-0.399613
0.0222942
-0.420214
0.0353099
-0.437309
0.0606145
-0.443151
0.107429
-0.425889
0.185469
-0.370266
0.299831
-0.261583
0.442394
-0.0965125
0.580134
0.0968544
0.646839
0.260973
0.57748
0.438576
-0.447618
0.0199104
-0.461557
0.0288118
-0.477768
0.0385052
-0.493775
0.0513172
-0.504519
0.0713581
-0.501371
0.104281
-0.471844
0.155941
-0.401175
0.229163
-0.277206
0.318424
-0.100251
0.40318
0.102404
0.444184
0.2784
0.401484
0.315876
-0.464813
0.0275058
-0.473813
0.0378115
-0.483542
0.0482348
-0.491945
0.05972
-0.494592
0.0740054
-0.48378
0.0934687
-0.448401
0.120562
-0.375691
0.156453
-0.255969
0.198702
-0.0910464
0.238257
0.0955593
0.257578
0.259662
0.237381
-0.40899
0.0301005
-0.40965
0.0384713
-0.408254
0.0468387
-0.403971
0.0554376
-0.39448
0.0645135
-0.375282
0.0742712
-0.339514
0.0847938
-0.278958
0.0958975
-0.187126
0.106871
-0.0649692
0.1161
0.0722485
0.12036
0.115767
-0.355437
0.0184712
-0.339492
0.0225261
-0.319285
0.026632
-0.29471
0.0308623
-0.265462
0.035266
-0.231016
0.0398252
-0.190635
0.0444128
-0.143486
0.0487481
-0.0889998
0.0523845
-0.0277017
0.0548016
0.0370446
0.0556139
0.0546996
-0.343247
-0.326081
-0.304568
-0.278528
-0.247727
-0.211935
-0.171044
-0.125238
-0.0751943
-0.0222252
0.031751
)
;

boundaryField
{
    top
    {
        type            calculated;
        value           nonuniform List<scalar> 
12
(
0.00553853
0.00535936
0.00511923
0.00482267
0.00446421
0.00403328
0.00352257
0.00294154
0.00234084
0.00183254
0.0016377
0.00190025
)
;
    }
    bottom
    {
        type            calculated;
        value           uniform 0;
    }
    frontAndBack
    {
        type            empty;
        value           nonuniform 0();
    }
    left_cyc
    {
        type            cyclic;
        value           nonuniform 0();
    }
    right_cyc
    {
        type            cyclic;
        value           nonuniform 0();
    }
    procBoundary0to1
    {
        type            processor;
        value           nonuniform List<scalar> 
16
(
-0.369361
-0.562476
-0.535822
-0.415437
-0.261135
-0.100432
0.0518544
0.185882
0.293818
0.36849
0.4011
0.378237
0.197302
0.193862
0.0981125
0.0845504
)
;
    }
    procBoundary0to3throughleft_cyc
    {
        type            processorCyclic;
        value           nonuniform List<scalar> 
15
(
-0.310748
-0.538399
-0.562745
-0.503522
-0.402926
-0.269653
-0.111501
0.0567641
0.216876
0.350106
0.436827
0.457218
0.406395
0.367066
0.35618
)
;
    }
}


// ************************************************************************* //
