/*--------------------------------*- C++ -*----------------------------------*\
| =========                 |                                                 |
| \\      /  F ield         | OpenFOAM: The Open Source CFD Toolbox           |
|  \\    /   O peration     | Version:  2.3.0                                 |
|   \\  /    A nd           | Web:      www.OpenFOAM.org                      |
|    \\/     M anipulation  |                                                 |
\*---------------------------------------------------------------------------*/
FoamFile
{
    version     2.0;
    format      ascii;
    class       surfaceScalarField;
    location    "17000";
    object      phi;
}
// * * * * * * * * * * * * * * * * * * * * * * * * * * * * * * * * * * * * * //

dimensions      [0 3 -1 0 0 0 0];

internalField   nonuniform List<scalar> 
353
(
-0.4124
0.0251051
-0.443271
0.030871
-0.479694
0.0364238
-0.515167
0.0354724
-0.527733
0.0125659
-0.487326
-0.0404066
-0.396304
-0.0910215
-0.271488
-0.124817
-0.123951
-0.147537
0.0279875
-0.151938
0.179252
-0.151264
0.320916
-0.141664
-0.113407
-0.521854
0.0140329
-0.501098
0.0101157
-0.467075
0.0024004
-0.416043
-0.0155593
-0.345189
-0.0582881
-0.260475
-0.125121
-0.178513
-0.172984
-0.109579
-0.193751
-0.0502206
-0.206895
0.0106037
-0.212762
0.0708957
-0.211556
0.132274
-0.203043
-0.187997
-0.455303
-0.0190092
-0.408653
-0.0365343
-0.347776
-0.0584774
-0.278096
-0.0852386
-0.215333
-0.121051
-0.170182
-0.170272
-0.129604
-0.213562
-0.0848099
-0.238545
-0.0387003
-0.253004
0.00807727
-0.25954
0.0546874
-0.258167
0.100552
-0.248907
-0.231387
-0.380926
-0.0538785
-0.333529
-0.0839318
-0.273992
-0.118014
-0.20939
-0.14984
-0.155979
-0.174462
-0.122067
-0.204184
-0.0934592
-0.24217
-0.0627561
-0.269248
-0.0291245
-0.286636
0.00603455
-0.294699
0.0408165
-0.292948
0.0734344
-0.281525
-0.305672
-0.0819056
-0.26729
-0.122314
-0.218382
-0.166922
-0.163733
-0.20449
-0.115581
-0.222614
-0.0850563
-0.234709
-0.0633446
-0.263882
-0.0423198
-0.290273
-0.0197045
-0.309251
0.00400971
-0.318413
0.0274438
-0.316383
-0.303515
-0.214482
-0.0996732
-0.189208
-0.147589
-0.155504
-0.200626
-0.115571
-0.244422
-0.0764804
-0.261705
-0.0515068
-0.259682
-0.0370353
-0.278353
-0.0246118
-0.302696
-0.0115388
-0.322324
0.00227564
-0.332228
0.015891
-0.329998
-0.316218
-0.100994
-0.106802
-0.0897148
-0.158868
-0.073414
-0.216927
-0.0527835
-0.265053
-0.0310978
-0.283391
-0.0185884
-0.272192
-0.0131773
-0.283765
-0.00904345
-0.30683
-0.00440579
-0.326962
0.000801848
-0.337435
0.00585206
-0.335048
-0.320546
0.0308804
-0.104581
0.0288095
-0.156797
0.0266602
-0.214777
0.0241918
-0.262584
0.0213306
-0.28053
0.0159416
-0.266803
0.00997257
-0.277796
0.00555114
-0.302409
0.00222973
-0.323641
-0.000554347
-0.334651
-0.00347847
-0.332124
-0.316832
0.17854
-0.058334
0.168623
-0.0946632
0.15438
-0.142554
0.134008
-0.194406
0.107132
-0.235708
0.0766181
-0.250016
0.051097
-0.241282
0.033582
-0.260281
0.020524
-0.289351
0.00905291
-0.31217
-0.00201462
-0.323584
-0.0131776
-0.320961
-0.304958
0.307811
-0.0475135
0.291313
-0.0781644
0.266272
-0.117513
0.22984
-0.157975
0.181433
-0.187301
0.127074
-0.195657
0.0845648
-0.198772
0.0587283
-0.234444
0.0373467
-0.267969
0.0167813
-0.291604
-0.00385184
-0.30295
-0.0244973
-0.300316
-0.284191
0.393848
-0.0335311
0.371489
-0.0558055
0.33757
-0.0835941
0.289306
-0.10971
0.226629
-0.124624
0.163559
-0.132587
0.119768
-0.154981
0.0878974
-0.202574
0.0575288
-0.237601
0.026088
-0.260163
-0.00610463
-0.270758
-0.0381583
-0.268262
-0.253034
0.41009
-0.016707
0.383437
-0.0291524
0.344688
-0.0448453
0.294889
-0.0599108
0.239565
-0.0692999
0.192599
-0.0856201
0.159543
-0.121925
0.122161
-0.165192
0.0808495
-0.196289
0.036794
-0.216108
-0.00859843
-0.225365
-0.053679
-0.223181
-0.209861
0.369527
-0.00569135
0.352217
-0.0118429
0.326095
-0.0187233
0.293573
-0.0273882
0.263614
-0.0393408
0.236377
-0.0583837
0.202075
-0.0876231
0.15643
-0.119547
0.103881
-0.14374
0.0473434
-0.15957
-0.0110521
-0.16697
-0.0690123
-0.165221
-0.154571
0.363644
0.00148497
0.353231
-0.00142986
0.339233
-0.00472486
0.321317
-0.00947273
0.299428
-0.0174517
0.271813
-0.0307682
0.23323
-0.0490402
0.181944
-0.0682612
0.121619
-0.0834143
0.0556352
-0.0935871
-0.0129627
-0.098372
-0.0809445
-0.0972392
-0.090363
0.366103
0.359807
0.351216
0.33957
0.322653
0.296324
0.256383
0.201855
0.13591
0.0624426
-0.0145323
-0.0906757
)
;

boundaryField
{
    top
    {
        type            calculated;
        value           nonuniform List<scalar> 
13
(
0.00546404
0.00486589
0.0038658
0.00217361
-0.000534838
-0.0044394
-0.00909868
-0.0137333
-0.0174698
-0.0201192
-0.0213972
-0.0210958
-0.0192773
)
;
    }
    bottom
    {
        type            calculated;
        value           uniform 0;
    }
    frontAndBack
    {
        type            empty;
        value           nonuniform 0();
    }
    left_cyc
    {
        type            cyclic;
        value           nonuniform 0();
    }
    right_cyc
    {
        type            cyclic;
        value           nonuniform 0();
    }
    procBoundary2to1
    {
        type            processor;
        value           nonuniform List<scalar> 
16
(
0.387295
0.532926
0.488346
0.415796
0.333699
0.23225
0.108122
-0.0331015
0.0656328
-0.185839
-0.318632
-0.407831
-0.426914
-0.380542
-0.37082
-0.370082
)
;
    }
    procBoundary2to3
    {
        type            processor;
        value           nonuniform List<scalar> 
16
(
0.434322
0.206864
0.143943
0.102852
-0.260805
0.0494335
0.0285936
0.0101802
-0.00719184
-0.0250518
-0.0452641
-0.0693158
-0.0968518
-0.124302
-0.145153
-0.161761
)
;
    }
}


// ************************************************************************* //
