/*--------------------------------*- C++ -*----------------------------------*\
| =========                 |                                                 |
| \\      /  F ield         | OpenFOAM: The Open Source CFD Toolbox           |
|  \\    /   O peration     | Version:  2.3.0                                 |
|   \\  /    A nd           | Web:      www.OpenFOAM.org                      |
|    \\/     M anipulation  |                                                 |
\*---------------------------------------------------------------------------*/
FoamFile
{
    version     2.0;
    format      ascii;
    class       volScalarField;
    location    "17000";
    object      T;
}
// * * * * * * * * * * * * * * * * * * * * * * * * * * * * * * * * * * * * * //

dimensions      [0 0 0 1 0 0 0];

internalField   nonuniform List<scalar> 
191
(
37.8129
37.0976
36.2059
35.1135
33.8006
32.1837
30.7029
29.6017
28.8323
28.4982
28.5873
29.0745
29.9771
28.9333
27.8222
26.4583
24.7245
22.6392
20.6795
19.0763
17.7521
16.7303
16.1831
16.3299
17.0773
18.2287
23.7957
22.7707
21.6278
20.3573
18.8962
17.2658
15.581
13.9965
12.7218
12.0236
12.2079
13.16
14.5851
22.8742
22.2034
21.3751
20.2963
18.8677
17.0837
15.0892
13.115
11.4995
10.6212
10.8469
12.0509
13.8508
23.9937
23.4827
22.7299
21.6091
20.0007
17.8933
15.4788
13.0536
11.0589
9.98624
10.255
11.7328
25.5438
25.0721
24.2925
23.0652
21.2616
18.8406
16.011
13.1438
10.7776
9.51389
9.825
11.5709
26.9194
26.4341
25.596
24.2605
22.2928
19.6227
16.4422
13.1865
10.4845
9.04025
9.39298
11.3868
27.9268
27.387
26.4736
25.0456
22.9615
20.1288
16.686
13.1209
10.1361
8.52118
8.91711
11.1329
28.8928
28.4849
27.8387
26.8322
25.3381
23.2015
20.2684
16.6375
12.872
9.69142
7.93033
8.36802
10.7566
29.0733
28.5199
27.7241
26.5919
25.0201
22.8438
19.8551
16.1465
12.3331
9.08074
7.23203
7.69939
10.1751
28.4428
27.7197
26.7603
25.5005
23.8624
21.6619
18.6867
15.0933
11.4255
8.2562
6.4025
6.87916
9.32771
26.3992
25.5299
24.4577
23.1323
21.4877
19.3427
16.5624
13.3475
10.054
7.15575
5.41193
5.86727
8.14093
22.1359
21.2313
20.2046
18.9942
17.516
15.6669
13.3883
10.7846
8.09977
5.70114
4.22234
4.6139
6.52169
15.2309
14.5082
13.7313
12.8571
11.8176
10.5396
8.99896
7.25784
5.45743
3.82645
2.7977
3.07323
4.38742
5.68089
5.34224
5.02232
4.69283
4.32554
3.89319
3.37863
2.78362
2.13843
1.5223
1.11552
1.22618
1.73735
)
;

boundaryField
{
    top
    {
        type            fixedValue;
        value           uniform 0;
    }
    bottom
    {
        type            fixedValue;
        value           uniform 43.8;
    }
    frontAndBack
    {
        type            empty;
    }
    left_cyc
    {
        type            cyclic;
    }
    right_cyc
    {
        type            cyclic;
    }
    procBoundary2to1
    {
        type            processor;
        value           nonuniform List<scalar> 
16
(
38.3832
29.8717
24.726
23.4562
24.3659
25.8306
27.1874
28.2313
28.2313
29.1669
29.4707
28.9985
27.1206
22.9557
15.9462
6.04214
)
;
    }
    procBoundary2to3
    {
        type            processor;
        value           nonuniform List<scalar> 
16
(
31.2018
19.6481
16.2332
15.8749
13.9515
13.9515
14.1991
14.3807
14.4266
14.2485
13.7205
12.7479
11.2419
9.07262
6.11072
2.3756
)
;
    }
}


// ************************************************************************* //
