/*--------------------------------*- C++ -*----------------------------------*\
| =========                 |                                                 |
| \\      /  F ield         | OpenFOAM: The Open Source CFD Toolbox           |
|  \\    /   O peration     | Version:  2.3.0                                 |
|   \\  /    A nd           | Web:      www.OpenFOAM.org                      |
|    \\/     M anipulation  |                                                 |
\*---------------------------------------------------------------------------*/
FoamFile
{
    version     2.0;
    format      ascii;
    class       volScalarField;
    location    "7000";
    object      p;
}
// * * * * * * * * * * * * * * * * * * * * * * * * * * * * * * * * * * * * * //

dimensions      [0 2 -2 0 0 0 0];

internalField   nonuniform List<scalar> 
191
(
-1584.47
-1564.77
-1540.62
-1509.84
-1468.94
-1413.73
-1346.75
-1269.13
-1176.09
-1110.93
-1123.89
-1203.18
-1291.56
-1434.83
-1420.97
-1404.96
-1386.36
-1363.89
-1335.88
-1302.97
-1277.36
-1283.73
-1283.34
-1281.33
-1274.8
-1277.09
-1319.12
-1312.43
-1305.75
-1299.36
-1286.81
-1269.45
-1249.21
-1213.24
-1204.3
-1203.24
-1203.45
-1205.08
-1222.9
-1213.57
-1210.29
-1206.8
-1202.97
-1189.33
-1163.5
-1138.91
-1129.54
-1122.94
-1117.6
-1118.9
-1125.65
-1133.19
-1104.97
-1102.33
-1098.8
-1094.61
-1085.41
-1064.97
-1030.44
-1022.35
-1022.73
-1021.56
-1022.06
-1023.29
-990.694
-988.567
-985.51
-981.702
-975.802
-963.288
-936.413
-931.679
-932.974
-932.658
-932.941
-932.663
-870.76
-869.551
-867.721
-865.461
-862.329
-857.913
-848
-847.065
-846.508
-845.847
-846.089
-846.574
-745.941
-745.953
-745.771
-745.661
-745.107
-748.489
-761.431
-766.161
-763.08
-761.226
-761.565
-764.576
-616.162
-617.761
-619.426
-621.374
-623.927
-626.287
-638.154
-675.031
-684.929
-679.561
-676.75
-677.226
-682.94
-484.678
-488.096
-491.953
-496.606
-502.43
-509.184
-532.408
-590.104
-600.547
-593.109
-590.725
-590.936
-596.505
-353.957
-359.902
-366.813
-375.248
-385.464
-398.369
-425.72
-492.423
-506.858
-502.281
-502.596
-502.145
-502.765
-229.233
-238.18
-247.901
-257.91
-266.281
-282.445
-318.52
-383.26
-402.767
-410.3
-415.377
-414.093
-407.209
-115.992
-126.059
-133.862
-139.581
-142.988
-156.673
-209.387
-275.479
-311.179
-333.265
-343.746
-341.389
-326.411
-13.4352
-14.2165
-13.6658
-18.0921
-33.3771
-64.3737
-117.088
-169.071
-201.996
-223.455
-233.551
-231.363
-217.218
85.7699
75.8347
57.8054
26.2646
-25.2387
-100.477
-190.641
-280.536
-352.821
-403.947
-428.67
-423.569
-389.73
)
;

boundaryField
{
    top
    {
        type            calculated;
        value           nonuniform List<scalar> 
13
(
-9.81
-9.81
-9.81
-9.81
-9.81
-9.81
-9.81
-9.81
-9.81
-9.81
-9.81
-9.81
-9.81
)
;
    }
    bottom
    {
        type            calculated;
        value           nonuniform List<scalar> 
13
(
-1670.55
-1649.23
-1623.05
-1589.8
-1545.9
-1487.01
-1416.55
-1336.37
-1241.55
-1175.65
-1188.86
-1269.26
-1359.67
)
;
    }
    frontAndBack
    {
        type            empty;
    }
    left_cyc
    {
        type            cyclic;
    }
    right_cyc
    {
        type            cyclic;
    }
    procBoundary2to1
    {
        type            processor;
        value           nonuniform List<scalar> 
16
(
-1601.18
-1447.15
-1325.78
-1216.84
-1107.1
-992.156
-871.447
-745.665
-745.665
-614.521
-481.519
-348.696
-221.215
-105.365
-9.86473
89.8777
)
;
    }
    procBoundary2to3
    {
        type            processor;
        value           nonuniform List<scalar> 
16
(
-1363.69
-1308.75
-1256.34
-1143.15
-1024.67
-1024.67
-933.086
-847.755
-766.536
-685.837
-598.69
-503.968
-398.924
-300.437
-192.304
-331.641
)
;
    }
}


// ************************************************************************* //
