/*--------------------------------*- C++ -*----------------------------------*\
| =========                 |                                                 |
| \\      /  F ield         | OpenFOAM: The Open Source CFD Toolbox           |
|  \\    /   O peration     | Version:  2.3.0                                 |
|   \\  /    A nd           | Web:      www.OpenFOAM.org                      |
|    \\/     M anipulation  |                                                 |
\*---------------------------------------------------------------------------*/
FoamFile
{
    version     2.0;
    format      ascii;
    class       volScalarField;
    location    "7000";
    object      T;
}
// * * * * * * * * * * * * * * * * * * * * * * * * * * * * * * * * * * * * * //

dimensions      [0 0 0 1 0 0 0];

internalField   nonuniform List<scalar> 
191
(
37.8455
37.1358
36.2499
35.162
33.8512
32.2377
30.7172
29.5947
28.8156
28.4902
28.5978
29.0863
29.9763
28.9993
27.8963
26.5468
24.835
22.7679
20.776
19.1396
17.7899
16.7464
16.1844
16.3219
17.0522
18.1815
23.8987
22.8815
21.7506
20.4939
19.0394
17.3982
15.6865
14.0686
12.7597
12.0306
12.189
13.1091
14.5004
22.9962
22.3364
21.5211
20.455
19.0319
17.236
15.2121
13.1996
11.5443
10.6296
10.8249
11.9909
13.7511
24.1142
23.6157
22.8771
21.7692
20.166
18.0453
15.6002
13.1364
11.102
9.99404
10.234
11.6741
25.652
25.1931
24.4278
23.2125
21.4126
18.9783
16.1201
13.217
10.8147
9.52046
9.80672
11.5191
27.0113
26.5385
25.7138
24.3889
22.4236
19.7416
16.535
13.2465
10.5141
9.04572
9.37777
11.3443
28.0029
27.474
26.5722
25.1534
23.0722
20.2295
16.7624
13.1677
10.1583
8.52617
8.9043
11.1002
28.9519
28.5517
27.9149
26.9175
25.43
23.2949
20.3522
16.698
12.9045
9.70315
7.9318
8.36194
10.7361
29.1288
28.5829
27.7951
26.6693
25.1009
22.9239
19.9245
16.1922
12.3533
9.08373
7.23056
7.69902
10.165
28.5008
27.7842
26.831
25.5745
23.9363
21.7331
18.7448
15.1279
11.4373
8.25374
6.39918
6.8824
9.32411
26.4642
25.5993
24.5309
23.206
21.5578
19.4064
16.6113
13.3754
10.0622
7.15157
5.40804
5.87167
8.13969
22.2059
21.3021
20.276
19.0645
17.5815
15.7227
13.4302
10.8094
8.10802
5.69833
4.21906
4.61738
6.51954
15.2917
14.5686
13.7907
12.9144
11.8708
10.585
9.03329
7.27914
5.46616
3.82613
2.79573
3.07481
4.3837
5.71431
5.37186
5.04945
4.71802
4.3486
3.91327
3.39462
2.79453
2.14391
1.52333
1.11497
1.22619
1.73432
)
;

boundaryField
{
    top
    {
        type            fixedValue;
        value           uniform 0;
    }
    bottom
    {
        type            fixedValue;
        value           uniform 43.8;
    }
    frontAndBack
    {
        type            empty;
    }
    left_cyc
    {
        type            cyclic;
    }
    right_cyc
    {
        type            cyclic;
    }
    procBoundary2to1
    {
        type            processor;
        value           nonuniform List<scalar> 
16
(
38.4114
29.9334
24.8237
23.57
24.477
25.929
27.2698
28.2992
28.2992
29.2204
29.52
29.0509
27.1822
23.0251
16.0108
6.07754
)
;
    }
    procBoundary2to3
    {
        type            processor;
        value           nonuniform List<scalar> 
16
(
31.1766
19.5757
16.1175
15.7397
13.8525
13.8525
14.1098
14.3052
14.3657
14.2026
13.6877
12.725
11.2242
9.05625
6.09586
2.36746
)
;
    }
}


// ************************************************************************* //
