/*--------------------------------*- C++ -*----------------------------------*\
| =========                 |                                                 |
| \\      /  F ield         | OpenFOAM: The Open Source CFD Toolbox           |
|  \\    /   O peration     | Version:  2.3.0                                 |
|   \\  /    A nd           | Web:      www.OpenFOAM.org                      |
|    \\/     M anipulation  |                                                 |
\*---------------------------------------------------------------------------*/
FoamFile
{
    version     2.0;
    format      ascii;
    class       volScalarField;
    location    "7000";
    object      p;
}
// * * * * * * * * * * * * * * * * * * * * * * * * * * * * * * * * * * * * * //

dimensions      [0 2 -2 0 0 0 0];

internalField   nonuniform List<scalar> 
191
(
-1743.43
-1725.61
-1710.24
-1697.75
-1687.46
-1678.4
-1669.7
-1660.71
-1651.01
-1640.41
-1628.73
-1615.76
-1601.18
-1568.6
-1555.73
-1543.49
-1532.31
-1522.24
-1513.01
-1504.3
-1495.78
-1487.15
-1478.15
-1468.59
-1458.32
-1447.15
-1415.7
-1406.96
-1397.9
-1389.1
-1380.76
-1372.91
-1365.53
-1358.55
-1351.88
-1345.37
-1338.9
-1332.38
-1325.78
-1273.56
-1268.79
-1263.22
-1257.55
-1251.96
-1246.52
-1241.31
-1236.42
-1231.89
-1227.7
-1223.84
-1220.24
-1216.84
-1136.71
-1134.79
-1132.11
-1129.23
-1126.32
-1123.4
-1120.53
-1117.78
-1115.24
-1112.94
-1110.88
-1108.99
-1107.1
-1001.49
-1001.57
-1001.07
-1000.34
-999.528
-998.65
-997.71
-996.739
-995.79
-994.901
-994.065
-993.203
-992.156
-865.692
-867.259
-868.337
-869.147
-869.805
-870.381
-870.868
-871.249
-871.527
-871.714
-871.804
-871.749
-871.447
-727.912
-730.71
-733.025
-734.987
-736.704
-738.282
-739.756
-741.116
-742.345
-743.435
-744.373
-745.132
-745.665
-587.36
-591.253
-594.682
-597.657
-600.288
-602.681
-604.912
-607.022
-609.029
-610.947
-612.782
-614.521
-443.846
-448.768
-453.291
-457.302
-460.862
-464.084
-467.08
-469.942
-472.75
-475.579
-478.496
-481.519
-297.691
-303.742
-309.493
-314.715
-319.411
-323.691
-327.696
-331.568
-335.448
-339.5
-343.897
-348.696
-151.404
-158.917
-166.212
-172.974
-179.172
-184.925
-190.412
-195.834
-201.392
-207.337
-213.931
-221.215
2.60088
-6.47717
-16.4036
-26.3031
-35.7505
-44.6381
-53.0311
-61.0679
-68.9173
-76.7865
-85.1636
-94.773
-105.365
110.832
98.6085
85.8703
73.6891
62.3969
51.8957
41.928
32.2313
22.6352
13.2238
4.26388
-3.6709
-9.86473
9.32869
21.4532
33.2628
43.8447
53.0159
60.894
67.6639
73.4333
78.166
81.8894
85.4287
89.1372
89.8777
)
;

boundaryField
{
    top
    {
        type            calculated;
        value           nonuniform List<scalar> 
13
(
-9.81
-9.81
-9.81
-9.81
-9.81
-9.81
-9.81
-9.81
-9.81
-9.81
-9.81
-9.81
-9.81
)
;
    }
    bottom
    {
        type            calculated;
        value           nonuniform List<scalar> 
13
(
-1835.28
-1816.8
-1800.93
-1788.38
-1778.3
-1769.46
-1760.82
-1751.62
-1741.5
-1730.34
-1717.97
-1704.16
-1688.55
)
;
    }
    frontAndBack
    {
        type            empty;
    }
    left_cyc
    {
        type            cyclic;
    }
    right_cyc
    {
        type            cyclic;
    }
    procBoundary1to0
    {
        type            processor;
        value           nonuniform List<scalar> 
16
(
-1761.91
-1580.75
-1422.95
-1276.68
-1137.24
-1000.4
-863.435
-724.656
-583.243
-438.95
-291.922
-144.396
-144.396
9.37443
120.374
-1.11575
)
;
    }
    procBoundary1to2
    {
        type            processor;
        value           nonuniform List<scalar> 
16
(
-1584.47
-1434.83
-1319.12
-1213.57
-1104.97
-990.694
-870.76
-745.941
-616.162
-616.162
-484.678
-353.957
-229.233
-115.992
-13.4352
85.7699
)
;
    }
}


// ************************************************************************* //
