/*--------------------------------*- C++ -*----------------------------------*\
| =========                 |                                                 |
| \\      /  F ield         | OpenFOAM: The Open Source CFD Toolbox           |
|  \\    /   O peration     | Version:  2.3.0                                 |
|   \\  /    A nd           | Web:      www.OpenFOAM.org                      |
|    \\/     M anipulation  |                                                 |
\*---------------------------------------------------------------------------*/
FoamFile
{
    version     2.0;
    format      ascii;
    class       volVectorField;
    location    "7000";
    object      U;
}
// * * * * * * * * * * * * * * * * * * * * * * * * * * * * * * * * * * * * * //

dimensions      [0 1 -1 0 0 0 0];

internalField   nonuniform List<vector> 
191
(
(-59.7683 0 1.3943)
(-61.1017 0 -1.27307)
(-58.1309 0 -2.35464)
(-53.7721 0 -2.22049)
(-49.9071 0 -1.48723)
(-47.3622 0 -0.621718)
(-46.2637 0 0.124235)
(-46.3872 0 0.673175)
(-47.3984 0 1.05004)
(-49.0066 0 1.34284)
(-51.0473 0 1.63887)
(-53.4655 0 2.01934)
(-56.2967 0 2.57419)
(-92.2136 0 9.47373)
(-97.5059 0 -0.574416)
(-96.5666 0 -5.41312)
(-92.8881 0 -6.41002)
(-88.6538 0 -5.23313)
(-85.0403 0 -3.22395)
(-82.4933 0 -1.20705)
(-81.0258 0 0.427629)
(-80.4333 0 1.57919)
(-80.4156 0 2.33904)
(-80.6429 0 2.85022)
(-80.7973 0 3.23313)
(-80.5528 0 3.57432)
(-88.5629 0 21.7573)
(-95.8055 0 3.03454)
(-97.3605 0 -6.60233)
(-95.8828 0 -9.71085)
(-93.1142 0 -8.99622)
(-90.0866 0 -6.58449)
(-87.3208 0 -3.83082)
(-85.0072 0 -1.44157)
(-83.1373 0 0.30361)
(-81.5615 0 1.36214)
(-80.0136 0 1.8034)
(-78.1353 0 1.69888)
(-75.4842 0 1.081)
(-69.5387 0 33.5571)
(-77.565 0 8.31074)
(-81.2286 0 -5.33022)
(-82.133 0 -10.6593)
(-81.4382 0 -11.0104)
(-79.9096 0 -8.96971)
(-78.0186 0 -6.20949)
(-76.0359 0 -3.65305)
(-74.0834 0 -1.73377)
(-72.1639 0 -0.625687)
(-70.1549 0 -0.387345)
(-67.8019 0 -1.06678)
(-64.7234 0 -2.73055)
(-44.7507 0 44.1893)
(-52.487 0 14.6193)
(-57.4755 0 -2.09381)
(-60.346 0 -9.48712)
(-61.6849 0 -11.1603)
(-61.9509 0 -9.92734)
(-61.4871 0 -7.62505)
(-60.5494 0 -5.30307)
(-59.3166 0 -3.50535)
(-57.8875 0 -2.51509)
(-56.2637 0 -2.51739)
(-54.3257 0 -3.69566)
(-51.8161 0 -6.24997)
(-18.5505 0 52.4807)
(-24.8846 0 20.9365)
(-30.123 0 2.3985)
(-34.1222 0 -6.55242)
(-36.9556 0 -9.47913)
(-38.7778 0 -9.22167)
(-39.7583 0 -7.65198)
(-40.0677 0 -5.85658)
(-39.8664 0 -4.42675)
(-39.291 0 -3.71062)
(-38.4292 0 -3.98643)
(-37.2853 0 -5.55968)
(-35.747 0 -8.76772)
(6.66748 0 57.5305)
(2.59586 0 26.1646)
(-1.91713 0 7.09245)
(-6.13638 0 -2.70927)
(-9.70781 0 -6.55489)
(-12.5219 0 -7.16707)
(-14.5857 0 -6.37033)
(-15.9622 0 -5.22454)
(-16.7496 0 -4.30819)
(-17.072 0 -3.97668)
(-17.0568 0 -4.54813)
(-16.7949 0 -6.40744)
(-16.2964 0 -10.0048)
(29.2817 0 58.7804)
(28.0447 0 29.5248)
(24.8711 0 11.1381)
(21.0655 0 1.24095)
(17.3617 0 -3.10038)
(14.1199 0 -4.35526)
(11.4716 0 -4.22249)
(9.43997 0 -3.70089)
(7.98231 0 -3.32254)
(7.00022 0 -3.40758)
(6.35395 0 -4.26755)
(5.90154 0 -6.32365)
(5.54212 0 -10.0974)
(47.887 0 55.9541)
(49.7561 0 30.5727)
(48.2757 0 14.0738)
(45.2386 0 4.81497)
(41.7627 0 0.401057)
(38.4726 0 -1.27209)
(35.6573 0 -1.6928)
(33.413 0 -1.74293)
(31.7261 0 -1.87846)
(30.4998 0 -2.35759)
(29.566 0 -3.45505)
(28.7288 0 -5.59669)
(61.0816 0 49.2498)
(65.8421 0 29.1457)
(66.148 0 15.6545)
(64.0868 0 7.75268)
(61.101 0 3.6659)
(58.051 0 1.75479)
(55.3779 0 0.842242)
(53.2547 0 0.231476)
(51.6939 0 -0.414817)
(50.5864 0 -1.25813)
(49.7062 0 -2.50544)
(48.7726 0 -4.56574)
(67.1581 0 39.6328)
(73.9874 0 25.6135)
(75.8447 0 15.9042)
(74.8712 0 9.91138)
(72.6483 0 6.47123)
(70.1581 0 4.47532)
(67.9164 0 3.12403)
(66.137 0 1.9627)
(64.8577 0 0.812525)
(63.9777 0 -0.347029)
(63.2252 0 -1.60813)
(62.2453 0 -3.36094)
(63.693 0 27.889)
(71.2017 0 20.0388)
(74.1202 0 14.3881)
(74.342 0 10.6196)
(73.2839 0 8.11447)
(71.8166 0 6.2841)
(70.3793 0 4.70574)
(69.1391 0 3.15375)
(68.1301 0 1.5973)
(67.2901 0 0.192898)
(66.4162 0 -0.94545)
(65.2181 0 -2.17036)
(37.0895 0 23.8793)
(48.2522 0 20.5487)
(55.0678 0 17.4703)
(58.812 0 14.7934)
(60.6784 0 12.4804)
(61.5178 0 10.4313)
(61.812 0 8.54521)
(61.7634 0 6.74689)
(61.4137 0 5.00037)
(60.7726 0 3.33431)
(59.8745 0 1.90402)
(58.8552 0 0.837524)
(57.8359 0 -0.063795)
(19.0372 0 8.87025)
(26.5891 0 8.39038)
(33.0443 0 7.7242)
(38.5322 0 6.95146)
(43.1782 0 6.1381)
(47.0795 0 5.32301)
(50.2977 0 4.51856)
(52.8618 0 3.71541)
(54.7734 0 2.89063)
(56.0175 0 2.03978)
(56.5731 0 1.25335)
(56.5475 0 0.62379)
(56.1032 0 0.0551776)
(16.5601 0 4.05297)
(23.7237 0 3.98057)
(30.1583 0 3.87676)
(35.811 0 3.75037)
(40.6858 0 3.60939)
(44.8148 0 3.45834)
(48.237 0 3.29797)
(50.9862 0 3.12562)
(53.0845 0 2.93663)
(54.5461 0 2.72942)
(55.4117 0 2.51091)
(55.7876 0 2.27841)
(55.7574 0 2.00374)
)
;

boundaryField
{
    top
    {
        type            directionMixed;
        refValue        uniform (0 0 0);
        refGradient     uniform (0 0 0);
        valueFraction   uniform (0 0 0 0 0 1);
        value           nonuniform List<vector> 
13
(
(16.5601 0 0)
(23.7237 0 0)
(30.1583 0 0)
(35.811 0 0)
(40.6858 0 0)
(44.8148 0 0)
(48.237 0 0)
(50.9862 0 0)
(53.0845 0 0)
(54.5461 0 0)
(55.4117 0 0)
(55.7876 0 0)
(55.7574 0 0)
)
;
    }
    bottom
    {
        type            fixedValue;
        value           uniform (0 0 0);
    }
    frontAndBack
    {
        type            empty;
    }
    left_cyc
    {
        type            cyclic;
    }
    right_cyc
    {
        type            cyclic;
    }
    procBoundary1to0
    {
        type            processor;
        value           nonuniform List<vector> 
16
(
(-50.5798 0 5.63991)
(-76.2482 0 24.8602)
(-72.044 0 50.119)
(-55.0367 0 71.3972)
(-33.5706 0 87.6962)
(-11.5748 0 97.82)
(8.87744 0 101.363)
(26.4428 0 98.3143)
(40.1866 0 89.0908)
(49.369 0 74.7045)
(53.0569 0 56.9493)
(49.6476 0 37.3945)
(49.6476 0 37.3945)
(20.9276 0 26.9262)
(10.3552 0 9.11391)
(8.81355 0 4.08891)
)
;
    }
    procBoundary1to2
    {
        type            processor;
        value           nonuniform List<vector> 
16
(
(-59.6669 0 3.41434)
(-79.5442 0 3.92585)
(-71.5369 0 -0.046292)
(-60.4282 0 -5.42503)
(-48.3486 0 -10.3176)
(-33.5708 0 -13.8595)
(-15.466 0 -15.7055)
(5.22569 0 -16.0327)
(27.8065 0 -9.32832)
(27.8065 0 -9.32832)
(47.5116 0 -7.97132)
(60.685 0 -6.12136)
(63.3134 0 -4.01882)
(56.5252 0 -1.00504)
(55.2556 0 -0.531139)
(55.3433 0 1.68004)
)
;
    }
}


// ************************************************************************* //
