/*--------------------------------*- C++ -*----------------------------------*\
| =========                 |                                                 |
| \\      /  F ield         | OpenFOAM: The Open Source CFD Toolbox           |
|  \\    /   O peration     | Version:  2.3.0                                 |
|   \\  /    A nd           | Web:      www.OpenFOAM.org                      |
|    \\/     M anipulation  |                                                 |
\*---------------------------------------------------------------------------*/
FoamFile
{
    version     2.0;
    format      ascii;
    class       volScalarField;
    location    "2000";
    object      p;
}
// * * * * * * * * * * * * * * * * * * * * * * * * * * * * * * * * * * * * * //

dimensions      [0 2 -2 0 0 0 0];

internalField   nonuniform List<scalar> 
191
(
-1410.99
-1481.01
-1531.44
-1568.17
-1596.38
-1618.98
-1637.84
-1654.05
-1668.27
-1680.92
-1692.31
-1702.67
-1370.93
-1400.28
-1422.87
-1441.48
-1458.24
-1472.84
-1485.83
-1497.55
-1508.25
-1518.13
-1527.34
-1536.04
-1273.45
-1311.85
-1336.4
-1343.23
-1350.21
-1357.06
-1363.72
-1370.19
-1376.51
-1382.7
-1388.82
-1394.96
-1151.96
-1203.98
-1231.8
-1237.43
-1242.1
-1246.15
-1249.68
-1252.97
-1256.22
-1259.56
-1263.11
-1266.93
-1045.17
-1050.51
-1099.84
-1118.16
-1122.63
-1126.78
-1130.13
-1132.68
-1134.67
-1136.37
-1138.03
-1139.84
-1141.86
-957.446
-961.872
-991.216
-999.975
-1002.82
-1005.8
-1008.26
-1010.08
-1011.35
-1012.25
-1012.98
-1013.7
-1014.46
-874.322
-877.945
-879.096
-878.215
-878.874
-880.147
-881.332
-882.274
-882.849
-883.117
-883.177
-883.111
-882.953
-793.346
-796.668
-766.174
-754.396
-752.167
-751.282
-750.753
-750.484
-750.142
-749.646
-748.984
-748.179
-747.245
-711.718
-716.198
-658.567
-631.689
-624.667
-621.114
-618.234
-616.199
-614.471
-612.849
-611.231
-609.591
-607.906
-623.65
-626.146
-555.276
-513.405
-498.189
-491.432
-485.558
-481.113
-477.402
-474.154
-471.206
-468.494
-465.924
-526.361
-528.723
-468.93
-404.454
-376.963
-365.786
-355.947
-348.142
-341.641
-336.086
-331.238
-327.004
-323.197
-425.09
-420.583
-371.542
-294.893
-257.903
-245.249
-233.739
-222.773
-212.871
-204.237
-196.624
-189.993
-184.15
-338.4
-311.062
-258.89
-176.943
-136.061
-126.517
-116.283
-107.11
-95.462
-83.4385
-72.3775
-63.2079
-55.2177
-223.13
-194.264
-147.933
-77.8192
-29.7828
-1.34854
11.0606
10.9815
11.6213
15.4054
21.9703
30.5275
40.0545
-398.243
-328.846
-235.649
-124.633
-24.3041
48.4212
94.0723
119.633
133.788
139.796
140.256
139.412
138.859
)
;

boundaryField
{
    top
    {
        type            calculated;
        value           nonuniform List<scalar> 
13
(
-9.81
-9.81
-9.81
-9.81
-9.81
-9.81
-9.81
-9.81
-9.81
-9.81
-9.81
-9.81
-9.81
)
;
    }
    bottom
    {
        type            calculated;
        value           nonuniform List<scalar> 
12
(
-1479.79
-1554.29
-1608.8
-1648.7
-1679.44
-1704.05
-1724.51
-1742.01
-1757.26
-1770.77
-1782.86
-1793.8
)
;
    }
    frontAndBack
    {
        type            empty;
    }
    left_cyc
    {
        type            cyclic;
    }
    right_cyc
    {
        type            cyclic;
    }
    procBoundary3to0throughright_cyc
    {
        type            processorCyclic;
        value           nonuniform List<scalar> 
15
(
-1712.24
-1544.43
-1401.24
-1271.06
-1144.1
-1015.27
-882.708
-746.189
-606.148
-463.393
-319.588
-178.739
-47.5125
49.8119
136.829
)
;
    }
    procBoundary3to2
    {
        type            processor;
        value           nonuniform List<scalar> 
16
(
-1330.1
-1349.22
-1240.05
-1148.79
-1148.79
-1048.88
-958.913
-871.877
-786.712
-701.205
-612.799
-521.248
-429.883
-354.005
-239.214
-439.457
)
;
    }
}


// ************************************************************************* //
