/*--------------------------------*- C++ -*----------------------------------*\
| =========                 |                                                 |
| \\      /  F ield         | OpenFOAM: The Open Source CFD Toolbox           |
|  \\    /   O peration     | Version:  2.3.0                                 |
|   \\  /    A nd           | Web:      www.OpenFOAM.org                      |
|    \\/     M anipulation  |                                                 |
\*---------------------------------------------------------------------------*/
FoamFile
{
    version     2.0;
    format      ascii;
    class       volScalarField;
    location    "2000";
    object      p_rgh;
}
// * * * * * * * * * * * * * * * * * * * * * * * * * * * * * * * * * * * * * //

dimensions      [0 2 -2 0 0 0 0];

internalField   nonuniform List<scalar> 
191
(
-1479.79
-1554.29
-1608.8
-1648.7
-1679.44
-1704.05
-1724.51
-1742.01
-1757.26
-1770.77
-1782.86
-1793.8
-1504.96
-1548.39
-1585.43
-1616.84
-1644.23
-1667.85
-1688.43
-1706.72
-1723.18
-1738.08
-1751.63
-1763.97
-1464.03
-1528.66
-1575.03
-1598.52
-1618.54
-1636.42
-1653.49
-1669.82
-1685.24
-1699.71
-1713.14
-1725.48
-1408.76
-1505.25
-1569.76
-1601.08
-1622.76
-1638.28
-1650.36
-1660.98
-1671.37
-1681.85
-1692.26
-1702.39
-1312.26
-1377.22
-1493.89
-1569.73
-1614.41
-1643.71
-1661.6
-1672.4
-1679.5
-1685.21
-1690.85
-1697.14
-1704.18
-1273.2
-1358.91
-1479.49
-1569.62
-1630.21
-1669.69
-1692.24
-1703.95
-1709.65
-1712.76
-1715.45
-1718.84
-1723.33
-1232.75
-1342.15
-1461.68
-1564.46
-1641.09
-1692.12
-1720.68
-1734.88
-1740.81
-1743.11
-1744.68
-1746.95
-1750.29
-1186.39
-1320.69
-1438.02
-1554.1
-1644.22
-1703.93
-1739.63
-1758.64
-1767.45
-1771.44
-1774.02
-1776.7
-1779.72
-1129.36
-1287.89
-1406.02
-1531.11
-1633.25
-1702.71
-1746.39
-1772.17
-1786.34
-1794.29
-1799.47
-1803.49
-1806.83
-1053.45
-1227.43
-1353.29
-1486.04
-1597.93
-1678.19
-1731.67
-1766.58
-1788.47
-1802.46
-1812.12
-1819.42
-1825.17
-952.319
-1134.31
-1279.34
-1406.31
-1523.74
-1613.43
-1676.54
-1721.35
-1752.51
-1774.82
-1791.96
-1806.15
-1818.01
-825.803
-997.643
-1147.25
-1261.08
-1377.01
-1475.79
-1548
-1600.85
-1640.33
-1671.79
-1698.81
-1723.59
-1746.1
-683.744
-813.963
-936.164
-1020.28
-1118.7
-1217.56
-1290.51
-1347.11
-1390.92
-1428.37
-1462.57
-1498
-1535.07
-471.571
-558.896
-639.332
-689.694
-744.472
-797.517
-849.048
-901.597
-947.154
-989.326
-1031.35
-1072.62
-1113.11
-499.305
-477.435
-433.103
-366.247
-303.019
-260.671
-240.814
-239.289
-250.098
-269.176
-294.635
-322.562
-351.095
)
;

boundaryField
{
    top
    {
        type            fixedValue;
        value           uniform 0;
    }
    bottom
    {
        type            fixedFluxPressure;
        gradient        uniform 0;
        value           nonuniform List<scalar> 
12
(
-1479.79
-1554.29
-1608.8
-1648.7
-1679.44
-1704.05
-1724.51
-1742.01
-1757.26
-1770.77
-1782.86
-1793.8
)
;
    }
    frontAndBack
    {
        type            empty;
    }
    left_cyc
    {
        type            cyclic;
    }
    right_cyc
    {
        type            cyclic;
    }
    procBoundary3to0throughright_cyc
    {
        type            processorCyclic;
        value           nonuniform List<scalar> 
15
(
-1803.81
-1775.17
-1736.57
-1712.41
-1711.86
-1728.79
-1754.36
-1782.63
-1809.44
-1829.68
-1828.16
-1767.21
-1570.36
-1152.07
-381.144
)
;
    }
    procBoundary3to2
    {
        type            processor;
        value           nonuniform List<scalar> 
16
(
-1395.71
-1471.26
-1405.6
-1364.05
-1364.05
-1277.25
-1222.56
-1164.13
-1099.73
-1026.18
-939.594
-837.499
-719.966
-597.665
-410.487
-507.076
)
;
    }
}


// ************************************************************************* //
