/*--------------------------------*- C++ -*----------------------------------*\
| =========                 |                                                 |
| \\      /  F ield         | OpenFOAM: The Open Source CFD Toolbox           |
|  \\    /   O peration     | Version:  2.3.0                                 |
|   \\  /    A nd           | Web:      www.OpenFOAM.org                      |
|    \\/     M anipulation  |                                                 |
\*---------------------------------------------------------------------------*/
FoamFile
{
    version     2.0;
    format      ascii;
    class       volScalarField;
    location    "2000";
    object      T;
}
// * * * * * * * * * * * * * * * * * * * * * * * * * * * * * * * * * * * * * //

dimensions      [0 0 0 1 0 0 0];

internalField   nonuniform List<scalar> 
191
(
30.2781
32.2419
34.0249
35.4173
36.5236
37.4043
38.1053
38.6676
39.1239
39.4978
39.8057
40.0567
19.7111
21.7672
23.8766
25.7448
27.2983
28.6156
29.7236
30.6829
31.5225
32.2565
32.8899
33.42
16.8381
19.1356
21.0477
22.5064
23.6488
24.6152
25.5274
26.3909
27.1887
27.9132
28.554
29.0968
16.2113
18.9942
21.2899
22.897
23.9612
24.6795
25.2147
25.673
26.1197
26.5665
26.9956
27.391
13.1414
16.0431
19.3203
22.1198
24.0766
25.3007
26.0084
26.4095
26.6582
26.8537
27.0471
27.2655
27.5095
12.7162
15.9524
19.5853
22.8254
25.1251
26.578
27.3783
27.7718
27.9481
28.0366
28.1141
28.2206
28.3689
12.2193
15.7833
19.7719
23.2643
25.8241
27.5005
28.4229
28.8694
29.05
29.1184
29.1692
29.248
29.3659
11.6201
15.4448
19.7611
23.4947
26.1912
27.9606
29.0185
29.5815
29.8486
29.9797
30.0743
30.1761
30.2915
10.9037
14.8727
19.4011
23.3165
26.1291
28.0101
29.2098
29.9264
30.336
30.5827
30.7577
30.9038
31.0333
10.0513
14.0043
18.5396
22.5651
25.4951
27.501
28.8694
29.7767
30.3668
30.7641
31.0547
31.2857
31.4775
9.02749
12.7741
17.046
21.0391
24.0617
26.1655
27.6871
28.7844
29.57
30.1511
30.6098
30.9939
31.3208
7.7742
11.1325
14.9154
18.5428
21.4549
23.5771
25.1713
26.3866
27.327
28.0906
28.75
29.3482
29.8882
6.19366
8.95405
12.0091
14.9186
17.3591
19.2582
20.7156
21.868
22.8396
23.7065
24.4993
25.2808
26.0702
4.1735
6.05837
8.11481
10.0692
11.7371
13.0588
14.0961
14.9473
15.6967
16.4422
17.2304
18.0387
18.8501
1.66962
2.38743
3.12546
3.79242
4.35278
4.81159
5.20117
5.56418
5.94122
6.32011
6.71159
7.12063
7.54322
)
;

boundaryField
{
    top
    {
        type            fixedValue;
        value           uniform 0;
    }
    bottom
    {
        type            fixedValue;
        value           uniform 43.8;
    }
    frontAndBack
    {
        type            empty;
    }
    left_cyc
    {
        type            cyclic;
    }
    right_cyc
    {
        type            cyclic;
    }
    procBoundary3to0throughright_cyc
    {
        type            processorCyclic;
        value           nonuniform List<scalar> 
15
(
40.2506
33.8315
29.5179
27.759
27.7739
28.5542
29.5112
30.4074
31.1458
31.6397
31.6078
30.3933
26.8236
19.6404
7.96641
)
;
    }
    procBoundary3to2
    {
        type            processor;
        value           nonuniform List<scalar> 
16
(
28.8837
17.9623
14.6458
13.6128
13.6128
11.2569
10.641
9.98987
9.28332
8.51606
7.67672
6.73931
5.66741
4.41215
2.92165
1.16451
)
;
    }
}


// ************************************************************************* //
