/*--------------------------------*- C++ -*----------------------------------*\
| =========                 |                                                 |
| \\      /  F ield         | OpenFOAM: The Open Source CFD Toolbox           |
|  \\    /   O peration     | Version:  2.3.0                                 |
|   \\  /    A nd           | Web:      www.OpenFOAM.org                      |
|    \\/     M anipulation  |                                                 |
\*---------------------------------------------------------------------------*/
FoamFile
{
    version     2.0;
    format      ascii;
    class       volVectorField;
    location    "2000";
    object      U;
}
// * * * * * * * * * * * * * * * * * * * * * * * * * * * * * * * * * * * * * //

dimensions      [0 1 -1 0 0 0 0];

internalField   nonuniform List<vector> 
191
(
(64.9933 0 -11.4893)
(75.608 0 0.904373)
(74.8697 0 6.14481)
(70.6968 0 6.2543)
(66.4253 0 5.03452)
(62.4975 0 3.87741)
(58.9421 0 3.02963)
(55.682 0 2.434)
(52.7126 0 1.99445)
(50.0757 0 1.6422)
(47.8415 0 1.32364)
(46.1234 0 0.983263)
(20.1108 0 -27.9799)
(38.7542 0 -14.0207)
(54.6644 0 -3.53971)
(66.0575 0 0.766376)
(73.8412 0 2.41768)
(78.4197 0 3.19027)
(80.6569 0 3.59739)
(81.2945 0 3.73675)
(80.9701 0 3.62183)
(80.2042 0 3.26812)
(79.4168 0 2.66584)
(78.9714 0 1.76117)
(7.22945 0 -37.8968)
(15.0861 0 -28.1342)
(31.8014 0 -19.0308)
(46.7032 0 -12.2432)
(59.0848 0 -6.99959)
(67.8451 0 -2.91117)
(73.4738 0 0.0697196)
(76.834 0 1.97067)
(78.7365 0 2.90146)
(79.8515 0 3.00815)
(80.6899 0 2.39421)
(81.6298 0 1.0966)
(1.86086 0 -43.7298)
(6.48489 0 -39.1055)
(19.591 0 -33.5213)
(32.9537 0 -26.216)
(45.2083 0 -18.1048)
(54.3872 0 -10.7591)
(60.5584 0 -5.07552)
(64.5008 0 -1.27738)
(67.0229 0 0.811385)
(68.7744 0 1.49352)
(70.2004 0 1.04245)
(71.56 0 -0.342696)
(-3.78627 0 -48.8419)
(-0.886169 0 -47.7463)
(2.09317 0 -46.2089)
(11.1904 0 -44.9226)
(21.6534 0 -38.5507)
(31.9139 0 -28.4624)
(39.8244 0 -18.2566)
(45.2372 0 -10.0611)
(48.7553 0 -4.51489)
(51.07 0 -1.38923)
(52.7207 0 -0.174564)
(54.0279 0 -0.381289)
(55.1158 0 -1.62872)
(-4.2282 0 -50.9729)
(-2.69284 0 -50.2675)
(-1.18248 0 -50.6399)
(3.80051 0 -52.7271)
(10.5881 0 -47.6328)
(17.7111 0 -36.4331)
(23.4011 0 -24.1796)
(27.3764 0 -14.0628)
(29.9863 0 -7.14474)
(31.7146 0 -3.18453)
(32.9204 0 -1.4919)
(33.773 0 -1.37671)
(34.2843 0 -2.29362)
(-4.25979 0 -51.8453)
(-4.13321 0 -51.1838)
(-4.14165 0 -52.2929)
(-3.66729 0 -56.492)
(-1.21214 0 -52.7262)
(2.06588 0 -41.2816)
(5.01918 0 -27.9541)
(7.2516 0 -16.6733)
(8.76846 0 -8.87477)
(9.77632 0 -4.34011)
(10.4243 0 -2.24666)
(10.7408 0 -1.75894)
(10.6564 0 -2.22723)
(-4.23997 0 -51.4383)
(-5.50814 0 -50.3895)
(-7.01609 0 -50.9624)
(-11.4619 0 -55.7025)
(-13.7202 0 -53.3488)
(-14.5838 0 -42.624)
(-14.606 0 -29.3662)
(-14.2062 0 -17.8069)
(-13.7771 0 -9.67523)
(-13.4297 0 -4.84758)
(-13.2381 0 -2.46206)
(-13.3072 0 -1.61252)
(-13.7735 0 -1.6084)
(-4.44724 0 -49.7968)
(-7.02484 0 -47.9911)
(-10.0085 0 -46.6188)
(-18.8557 0 -50.2548)
(-25.8862 0 -49.4025)
(-30.7047 0 -40.3764)
(-33.7529 0 -28.3718)
(-35.2165 0 -17.4962)
(-35.8325 0 -9.65559)
(-36.0121 0 -4.88428)
(-36.0579 0 -2.37818)
(-36.2282 0 -1.23298)
(-36.7541 0 -0.77848)
(-5.17361 0 -46.8955)
(-8.9928 0 -44.069)
(-13.3496 0 -39.145)
(-23.1386 0 -40.7496)
(-35.1015 0 -41.0248)
(-43.416 0 -34.5285)
(-49.3913 0 -24.8876)
(-52.776 0 -15.6997)
(-54.4857 0 -8.8844)
(-55.1598 0 -4.63391)
(-55.3198 0 -2.26576)
(-55.4056 0 -0.933664)
(-55.7825 0 -0.0550654)
(-6.58217 0 -42.6388)
(-11.7805 0 -39.1645)
(-16.8865 0 -32.6218)
(-23.2035 0 -29.7398)
(-38.6271 0 -29.5634)
(-49.4063 0 -25.8833)
(-57.6774 0 -19.1676)
(-62.8377 0 -12.3397)
(-65.6989 0 -7.21144)
(-67.0141 0 -3.98775)
(-67.4627 0 -2.08955)
(-67.6165 0 -0.740735)
(-67.946 0 0.49403)
(-8.72886 0 -36.7629)
(-15.5835 0 -33.4041)
(-21.4072 0 -27.048)
(-26.5297 0 -19.2558)
(-36.6187 0 -15.2253)
(-46.6879 0 -14.8612)
(-55.4448 0 -12.0017)
(-61.6134 0 -8.03967)
(-65.4091 0 -5.0184)
(-67.5186 0 -3.18071)
(-68.6928 0 -1.99608)
(-69.4487 0 -0.718141)
(-70.1595 0 0.841355)
(-11.2867 0 -29.1868)
(-19.8363 0 -26.3803)
(-27.3977 0 -21.2758)
(-32.9001 0 -14.5741)
(-37.5747 0 -9.645)
(-42.9021 0 -6.11516)
(-48.786 0 -3.60343)
(-52.6091 0 -2.10552)
(-55.1641 0 -1.07266)
(-56.9618 0 -0.246499)
(-58.6028 0 0.4771)
(-60.1875 0 1.42402)
(-61.4948 0 2.76116)
(-13.4092 0 -18.5281)
(-23.2736 0 -16.6042)
(-31.9804 0 -13.3123)
(-38.509 0 -9.11008)
(-43.1542 0 -5.49616)
(-46.7704 0 -3.26354)
(-49.6129 0 -1.97777)
(-51.7013 0 -1.17626)
(-53.2766 0 -0.571563)
(-54.3928 0 -0.0680041)
(-55.1362 0 0.405708)
(-55.4787 0 1.023)
(-55.2584 0 1.81838)
(-15.2541 0 -12.3616)
(-26.1154 0 -10.5613)
(-35.4752 0 -7.91494)
(-42.4042 0 -4.71187)
(-46.803 0 -1.90066)
(-49.489 0 0.0852936)
(-51.2306 0 1.3177)
(-52.4566 0 2.02778)
(-53.3609 0 2.49735)
(-53.9569 0 2.85541)
(-54.2611 0 3.15717)
(-54.2397 0 3.43637)
(-53.7617 0 3.70475)
)
;

boundaryField
{
    top
    {
        type            directionMixed;
        refValue        uniform (0 0 0);
        refGradient     uniform (0 0 0);
        valueFraction   uniform (0 0 0 0 0 1);
        value           nonuniform List<vector> 
13
(
(-15.2541 0 0)
(-26.1154 0 0)
(-35.4752 0 0)
(-42.4042 0 0)
(-46.803 0 0)
(-49.489 0 0)
(-51.2306 0 0)
(-52.4566 0 0)
(-53.3609 0 0)
(-53.9569 0 0)
(-54.2611 0 0)
(-54.2397 0 0)
(-53.7617 0 0)
)
;
    }
    bottom
    {
        type            fixedValue;
        value           uniform (0 0 0);
    }
    frontAndBack
    {
        type            empty;
    }
    left_cyc
    {
        type            cyclic;
    }
    right_cyc
    {
        type            cyclic;
    }
    procBoundary3to0throughright_cyc
    {
        type            processorCyclic;
        value           nonuniform List<vector> 
15
(
(45.1022 0 0.552703)
(79.2048 0 0.467247)
(82.9236 0 -0.856923)
(72.9463 0 -2.46076)
(55.9533 0 -3.55659)
(34.3573 0 -3.76933)
(10.0528 0 -3.12436)
(-14.7639 0 -1.9212)
(-37.7938 0 -0.536475)
(-56.6616 0 0.728871)
(-68.6976 0 1.77626)
(-71.0126 0 2.52306)
(-62.4618 0 4.33445)
(-54.4023 0 2.63803)
(-52.7194 0 3.94574)
)
;
    }
    procBoundary3to2
    {
        type            processor;
        value           nonuniform List<vector> 
16
(
(42.8 0 -24.4252)
(5.76297 0 -30.7529)
(0.2931 0 -40.5541)
(-2.48594 0 -45.2347)
(-2.48594 0 -45.2347)
(-6.61579 0 -48.6848)
(-5.77452 0 -50.8356)
(-4.58792 0 -51.7922)
(-3.37087 0 -51.6033)
(-2.3469 0 -50.2828)
(-1.7006 0 -47.7166)
(-1.53247 0 -43.6538)
(-1.84346 0 -37.7698)
(-2.47651 0 -30.1077)
(-3.08955 0 -19.1897)
(-3.70654 0 -13.2544)
)
;
    }
}


// ************************************************************************* //
