/*--------------------------------*- C++ -*----------------------------------*\
| =========                 |                                                 |
| \\      /  F ield         | OpenFOAM: The Open Source CFD Toolbox           |
|  \\    /   O peration     | Version:  2.3.0                                 |
|   \\  /    A nd           | Web:      www.OpenFOAM.org                      |
|    \\/     M anipulation  |                                                 |
\*---------------------------------------------------------------------------*/
FoamFile
{
    version     2.0;
    format      ascii;
    class       volScalarField;
    location    "16000";
    object      p;
}
// * * * * * * * * * * * * * * * * * * * * * * * * * * * * * * * * * * * * * //

dimensions      [0 2 -2 0 0 0 0];

internalField   nonuniform List<scalar> 
191
(
-1740.28
-1722.7
-1707.73
-1695.61
-1685.58
-1676.65
-1667.98
-1658.95
-1649.2
-1638.53
-1626.77
-1613.73
-1599.06
-1566.4
-1553.5
-1541.37
-1530.34
-1520.39
-1511.26
-1502.6
-1494.1
-1485.46
-1476.42
-1466.82
-1456.5
-1445.27
-1414.27
-1405.36
-1396.29
-1387.52
-1379.21
-1371.41
-1364.07
-1357.12
-1350.46
-1343.96
-1337.47
-1330.94
-1324.33
-1272.86
-1267.86
-1262.22
-1256.52
-1250.91
-1245.46
-1240.27
-1235.39
-1230.87
-1226.7
-1222.85
-1219.25
-1215.86
-1136.52
-1134.4
-1131.64
-1128.74
-1125.8
-1122.86
-1119.96
-1117.21
-1114.67
-1112.37
-1110.32
-1108.42
-1106.52
-1001.66
-1001.6
-1001.04
-1000.28
-999.449
-998.549
-997.588
-996.601
-995.642
-994.747
-993.904
-993.031
-991.961
-866.132
-867.612
-868.639
-869.416
-870.065
-870.633
-871.109
-871.478
-871.744
-871.92
-872
-871.931
-871.609
-728.572
-731.311
-733.573
-735.503
-737.212
-738.791
-740.267
-741.625
-742.85
-743.934
-744.866
-745.615
-746.134
-588.195
-592.057
-595.436
-598.379
-600.992
-603.382
-605.618
-607.736
-609.752
-611.677
-613.516
-615.255
-444.821
-449.743
-454.226
-458.198
-461.732
-464.945
-467.944
-470.82
-473.646
-476.498
-479.436
-482.473
-298.801
-304.883
-310.607
-315.789
-320.454
-324.718
-328.725
-332.613
-336.522
-340.611
-345.047
-349.873
-152.695
-160.264
-167.543
-174.265
-180.428
-186.163
-191.652
-197.093
-202.685
-208.678
-215.318
-222.63
1.27303
-8.05285
-18.0674
-27.9657
-37.3756
-46.2221
-54.5859
-62.6109
-70.4682
-78.3725
-86.8485
-96.5651
-107.155
109.003
96.5225
83.744
71.6173
60.3965
49.9463
39.9996
30.2975
20.6861
11.2775
2.34312
-5.5497
-11.6785
9.81459
21.5711
32.8625
42.9025
51.5762
59.0246
65.4319
70.8943
75.3684
78.917
82.4407
85.9755
86.3461
)
;

boundaryField
{
    top
    {
        type            calculated;
        value           nonuniform List<scalar> 
13
(
-9.81
-9.81
-9.81
-9.81
-9.81
-9.81
-9.81
-9.81
-9.81
-9.81
-9.81
-9.81
-9.81
)
;
    }
    bottom
    {
        type            calculated;
        value           nonuniform List<scalar> 
13
(
-1831.98
-1813.75
-1798.35
-1786.25
-1776.44
-1767.72
-1759.1
-1749.83
-1739.65
-1728.42
-1715.97
-1702.08
-1686.36
)
;
    }
    frontAndBack
    {
        type            empty;
    }
    left_cyc
    {
        type            cyclic;
    }
    right_cyc
    {
        type            cyclic;
    }
    procBoundary1to0
    {
        type            processor;
        value           nonuniform List<scalar> 
16
(
-1758.93
-1578.87
-1421.91
-1276.33
-1137.32
-1000.75
-863.973
-725.343
-584.038
-439.825
-292.88
-145.49
-145.49
8.50933
119.132
-0.609301
)
;
    }
    procBoundary1to2
    {
        type            processor;
        value           nonuniform List<scalar> 
16
(
-1582.23
-1432.86
-1317.65
-1212.59
-1104.37
-990.462
-870.892
-746.39
-616.892
-616.892
-485.64
-355.156
-230.671
-117.721
-15.1634
81.9135
)
;
    }
}


// ************************************************************************* //
