/*--------------------------------*- C++ -*----------------------------------*\
| =========                 |                                                 |
| \\      /  F ield         | OpenFOAM: The Open Source CFD Toolbox           |
|  \\    /   O peration     | Version:  2.3.0                                 |
|   \\  /    A nd           | Web:      www.OpenFOAM.org                      |
|    \\/     M anipulation  |                                                 |
\*---------------------------------------------------------------------------*/
FoamFile
{
    version     2.0;
    format      ascii;
    class       volScalarField;
    location    "16000";
    object      p_rgh;
}
// * * * * * * * * * * * * * * * * * * * * * * * * * * * * * * * * * * * * * //

dimensions      [0 2 -2 0 0 0 0];

internalField   nonuniform List<scalar> 
191
(
-1831.98
-1813.75
-1798.35
-1786.25
-1776.44
-1767.72
-1759.1
-1749.83
-1739.65
-1728.42
-1715.97
-1702.08
-1686.36
-1801.2
-1783.82
-1769.18
-1757.37
-1747.36
-1738.09
-1728.69
-1718.63
-1707.28
-1694.69
-1680.87
-1665.69
-1648.89
-1762.85
-1743
-1728.96
-1717.18
-1706.56
-1696.29
-1685.83
-1674.87
-1663.28
-1650.43
-1636.37
-1621.22
-1604.97
-1733.06
-1712.61
-1699.94
-1689.41
-1679.05
-1668.43
-1657.56
-1646.49
-1635.26
-1623.88
-1612.27
-1600.44
-1588.45
-1718.55
-1700.41
-1690.77
-1683.27
-1674.86
-1665.48
-1655.7
-1646.07
-1636.9
-1628.33
-1620.28
-1612.47
-1604.25
-1717.04
-1702.55
-1697.85
-1694.4
-1689.39
-1682.46
-1674.61
-1666.8
-1659.69
-1653.53
-1648.18
-1643.08
-1637.09
-1727.85
-1714.19
-1713.31
-1713.83
-1712.93
-1709.36
-1703.97
-1697.93
-1692.21
-1687.31
-1683.24
-1679.37
-1674.3
-1750.55
-1736.84
-1735.22
-1737.06
-1738.31
-1737.93
-1735.48
-1731.54
-1726.96
-1722.44
-1718.24
-1713.93
-1708.07
-1779.88
-1766.91
-1763.79
-1764.62
-1765.6
-1765.53
-1764.26
-1761.67
-1757.97
-1753.46
-1748.2
-1741.76
-1810.55
-1799.25
-1794.91
-1793.5
-1792.6
-1791.03
-1788.28
-1784.31
-1779.16
-1772.78
-1764.88
-1754.69
-1834.84
-1824.62
-1818.16
-1812.9
-1807.39
-1800.99
-1793.46
-1784.7
-1774.69
-1763.39
-1749.9
-1733.37
-1831.07
-1817.84
-1805.28
-1792.17
-1778.01
-1762.59
-1745.85
-1727.64
-1707.87
-1686.65
-1664.47
-1639.29
-1739.63
-1718.78
-1697.13
-1674.4
-1650.48
-1625.32
-1598.83
-1570.69
-1540.56
-1508.3
-1474.73
-1441.55
-1409.29
-1372.36
-1350.94
-1326.62
-1299.82
-1271
-1240.58
-1208.82
-1175.69
-1140.97
-1104.33
-1066.03
-1026.58
-985.9
-678.722
-647.16
-613.181
-578.81
-544.982
-512.025
-479.945
-448.633
-418.02
-388.079
-358.378
-329.39
-304.254
)
;

boundaryField
{
    top
    {
        type            fixedValue;
        value           uniform 0;
    }
    bottom
    {
        type            fixedFluxPressure;
        gradient        uniform 0;
        value           nonuniform List<scalar> 
13
(
-1831.98
-1813.75
-1798.35
-1786.25
-1776.44
-1767.72
-1759.1
-1749.83
-1739.65
-1728.42
-1715.97
-1702.08
-1686.36
)
;
    }
    frontAndBack
    {
        type            empty;
    }
    left_cyc
    {
        type            cyclic;
    }
    right_cyc
    {
        type            cyclic;
    }
    procBoundary1to0
    {
        type            processor;
        value           nonuniform List<scalar> 
16
(
-1851.44
-1821.64
-1790.11
-1765.83
-1754.11
-1754.11
-1765.92
-1785.83
-1809.76
-1833.8
-1852.23
-1846.84
-1846.84
-1759.63
-1390.32
-704.289
)
;
    }
    procBoundary1to2
    {
        type            processor;
        value           nonuniform List<scalar> 
16
(
-1668.23
-1630.06
-1587.68
-1575.89
-1594.46
-1628.39
-1665.64
-1697.9
-1732.76
-1732.76
-1740.62
-1712.03
-1609.46
-1373.08
-945.288
-284.768
)
;
    }
}


// ************************************************************************* //
