/*--------------------------------*- C++ -*----------------------------------*\
| =========                 |                                                 |
| \\      /  F ield         | OpenFOAM: The Open Source CFD Toolbox           |
|  \\    /   O peration     | Version:  2.3.0                                 |
|   \\  /    A nd           | Web:      www.OpenFOAM.org                      |
|    \\/     M anipulation  |                                                 |
\*---------------------------------------------------------------------------*/
FoamFile
{
    version     2.0;
    format      ascii;
    class       volScalarField;
    location    "16000";
    object      T;
}
// * * * * * * * * * * * * * * * * * * * * * * * * * * * * * * * * * * * * * //

dimensions      [0 0 0 1 0 0 0];

internalField   nonuniform List<scalar> 
191
(
40.3099
40.0242
39.8369
39.842
39.9401
40.0335
40.0521
39.949
39.76
39.514
39.2114
38.841
38.384
34.4251
33.7702
33.4032
33.2898
33.2808
33.2598
33.1525
32.9248
32.5289
32.0104
31.3945
30.6851
29.8731
30.6789
29.7207
29.2848
29.0218
28.8189
28.6028
28.3299
27.9788
27.5458
26.9904
26.3264
25.5716
24.7274
28.9389
27.9714
27.5317
27.2302
26.9327
26.6091
26.254
25.8665
25.4466
24.9952
24.5099
23.9949
23.4571
28.4685
27.6887
27.3539
27.1305
26.8642
26.5507
26.2157
25.881
25.5587
25.2529
24.9611
24.6734
24.3665
28.6287
28.054
27.8891
27.7817
27.6153
27.3755
27.1008
26.8293
26.5844
26.3748
26.1954
26.0268
25.831
29.1764
28.6665
28.602
28.5934
28.5412
28.4019
28.2042
27.9884
27.7865
27.6156
27.4757
27.3478
27.1878
29.9849
29.5047
29.3913
29.3887
29.3754
29.318
29.2036
29.0489
28.8793
28.7156
28.5656
28.4179
28.2316
30.8467
30.4131
30.2454
30.1911
30.1491
30.0857
29.9952
29.874
29.7269
29.5608
29.3779
29.1672
31.6268
31.253
31.0495
30.9255
30.8231
30.713
30.5805
30.4227
30.2388
30.026
29.7761
29.4712
32.1807
31.8406
31.5864
31.3686
31.1565
30.9341
30.6933
30.4296
30.1394
29.8183
29.4444
28.9991
32.1053
31.7093
31.3314
30.9539
30.5666
30.164
29.7405
29.2902
28.8071
28.289
27.7402
27.1214
30.6438
30.1151
29.5603
28.9887
28.4047
27.8091
27.1983
26.5648
25.8993
25.1956
24.4589
23.7073
22.9567
24.1743
23.6242
23.0225
22.391
21.7414
21.0785
20.4018
19.7071
18.9879
18.2408
17.4747
16.7066
15.9473
10.5425
10.2434
9.90071
9.53323
9.15331
8.76804
8.3803
7.98988
7.5951
7.19647
6.80111
6.41668
6.04264
)
;

boundaryField
{
    top
    {
        type            fixedValue;
        value           uniform 0;
    }
    bottom
    {
        type            fixedValue;
        value           uniform 43.8;
    }
    frontAndBack
    {
        type            empty;
    }
    left_cyc
    {
        type            cyclic;
    }
    right_cyc
    {
        type            cyclic;
    }
    procBoundary1to0
    {
        type            processor;
        value           nonuniform List<scalar> 
16
(
40.6615
35.5876
32.3979
30.772
30.1605
30.1409
30.532
31.1096
31.7235
32.2779
32.6669
32.5428
32.5428
31.1211
24.6299
10.7712
)
;
    }
    procBoundary1to2
    {
        type            processor;
        value           nonuniform List<scalar> 
16
(
37.8138
28.9349
23.7973
22.8752
23.9944
25.5444
26.92
27.9273
28.8932
28.8932
29.0739
28.4437
26.4002
22.1371
15.2319
5.68138
)
;
    }
}


// ************************************************************************* //
