/*--------------------------------*- C++ -*----------------------------------*\
| =========                 |                                                 |
| \\      /  F ield         | OpenFOAM: The Open Source CFD Toolbox           |
|  \\    /   O peration     | Version:  2.3.0                                 |
|   \\  /    A nd           | Web:      www.OpenFOAM.org                      |
|    \\/     M anipulation  |                                                 |
\*---------------------------------------------------------------------------*/
FoamFile
{
    version     2.0;
    format      ascii;
    class       volVectorField;
    location    "16000";
    object      U;
}
// * * * * * * * * * * * * * * * * * * * * * * * * * * * * * * * * * * * * * //

dimensions      [0 1 -1 0 0 0 0];

internalField   nonuniform List<vector> 
191
(
(-60.6627 0 0.853721)
(-61.0733 0 -1.55177)
(-57.6839 0 -2.42212)
(-53.252 0 -2.16188)
(-49.5022 0 -1.38318)
(-47.1283 0 -0.522875)
(-46.1844 0 0.196124)
(-46.4171 0 0.716346)
(-47.4902 0 1.07141)
(-49.1246 0 1.35332)
(-51.1732 0 1.64761)
(-53.5941 0 2.03462)
(-56.4353 0 2.60538)
(-94.0114 0 7.50003)
(-98.0249 0 -1.69201)
(-96.4173 0 -5.85447)
(-92.489 0 -6.41641)
(-88.2434 0 -5.03776)
(-84.7258 0 -2.98406)
(-82.2995 0 -1.00485)
(-80.9343 0 0.563009)
(-80.4082 0 1.64934)
(-80.4186 0 2.36435)
(-80.6412 0 2.85155)
(-80.7677 0 3.22888)
(-80.4807 0 3.58165)
(-90.5571 0 18.1171)
(-96.6718 0 0.906547)
(-97.5804 0 -7.55422)
(-95.7875 0 -9.91392)
(-92.9002 0 -8.82252)
(-89.86 0 -6.28733)
(-87.1278 0 -3.55166)
(-84.8579 0 -1.24103)
(-83.0225 0 0.412252)
(-81.4605 0 1.39176)
(-79.8997 0 1.77723)
(-77.9822 0 1.64118)
(-75.2694 0 1.01621)
(-71.404 0 28.6992)
(-78.6249 0 5.39747)
(-81.7681 0 -6.73557)
(-82.3603 0 -11.1007)
(-81.4916 0 -10.9445)
(-79.8754 0 -8.70685)
(-77.9478 0 -5.92825)
(-75.9559 0 -3.43832)
(-74.0049 0 -1.61391)
(-72.0855 0 -0.598792)
(-70.065 0 -0.436687)
(-67.6832 0 -1.16943)
(-64.5571 0 -2.85793)
(-46.2757 0 38.5877)
(-53.5731 0 11.1664)
(-58.2177 0 -3.86534)
(-60.8379 0 -10.1652)
(-62.0028 0 -11.2418)
(-62.1513 0 -9.75113)
(-61.6119 0 -7.38994)
(-60.6297 0 -5.10953)
(-59.3736 0 -3.39448)
(-57.9329 0 -2.49588)
(-56.3003 0 -2.58227)
(-54.3486 0 -3.82712)
(-51.8157 0 -6.41972)
(-19.5606 0 46.6256)
(-25.8006 0 17.2295)
(-30.8968 0 0.401199)
(-34.7495 0 -7.41362)
(-37.4537 0 -9.70166)
(-39.1702 0 -9.14944)
(-40.0697 0 -7.48878)
(-40.3215 0 -5.70849)
(-40.0835 0 -4.34138)
(-39.4886 0 -3.70425)
(-38.6194 0 -4.05919)
(-37.4742 0 -5.70068)
(-35.9356 0 -8.95185)
(6.2862 0 51.8499)
(2.00293 0 22.4695)
(-2.56154 0 5.02968)
(-6.74772 0 -3.66397)
(-10.2538 0 -6.8711)
(-12.9999 0 -7.17725)
(-15.003 0 -6.27369)
(-16.3302 0 -5.12529)
(-17.0824 0 -4.25364)
(-17.3853 0 -3.98468)
(-17.3659 0 -4.62233)
(-17.1118 0 -6.54155)
(-16.6288 0 -10.1777)
(29.5745 0 53.6376)
(27.8473 0 26.0811)
(24.4481 0 9.16064)
(20.5691 0 0.279667)
(16.8678 0 -3.45703)
(13.6559 0 -4.41238)
(11.0437 0 -4.16953)
(9.04503 0 -3.63717)
(7.61178 0 -3.29155)
(6.64133 0 -3.42464)
(5.99193 0 -4.33646)
(5.52343 0 -6.44098)
(5.13902 0 -10.2463)
(48.8141 0 51.6406)
(49.9633 0 27.5948)
(48.0941 0 12.3137)
(44.882 0 3.9307)
(41.3526 0 0.0519957)
(38.067 0 -1.34944)
(35.276 0 -1.6663)
(33.057 0 -1.70167)
(31.3873 0 -1.86015)
(30.1646 0 -2.37383)
(29.2184 0 -3.50941)
(28.3564 0 -5.68922)
(62.4877 0 45.9546)
(66.3792 0 26.8091)
(66.169 0 14.238)
(63.8504 0 7.02046)
(60.7669 0 3.35939)
(57.7043 0 1.66998)
(55.0534 0 0.845836)
(52.9586 0 0.252346)
(51.4177 0 -0.405154)
(50.3126 0 -1.26637)
(49.4143 0 -2.5364)
(48.4495 0 -4.62624)
(68.7628 0 37.4256)
(74.6859 0 24.0166)
(75.9749 0 14.9139)
(74.7034 0 9.38142)
(72.3607 0 6.23135)
(69.8494 0 4.38816)
(67.6301 0 3.10014)
(65.8836 0 1.95588)
(64.6307 0 0.807764)
(63.7583 0 -0.348691)
(62.99 0 -1.61423)
(61.9805 0 -3.38968)
(65.1106 0 26.7125)
(71.8229 0 19.176)
(74.2334 0 13.839)
(74.1862 0 10.3087)
(73.0188 0 7.95357)
(71.5307 0 6.20217)
(70.1113 0 4.65729)
(68.8991 0 3.11783)
(67.9159 0 1.57474)
(67.0892 0 0.199197)
(66.2144 0 -0.918388)
(65.0049 0 -2.15987)
(38.6052 0 23.4744)
(49.1062 0 20.1733)
(55.4189 0 17.1648)
(58.8459 0 14.5609)
(60.5448 0 12.3079)
(61.3135 0 10.3025)
(61.5882 0 8.44579)
(61.541 0 6.66636)
(61.1988 0 4.93222)
(60.57 0 3.27893)
(59.6905 0 1.8704)
(58.7134 0 0.81831)
(57.7282 0 -0.0857631)
(19.5125 0 8.83508)
(26.9333 0 8.33474)
(33.2787 0 7.65735)
(38.6827 0 6.88313)
(43.2675 0 6.07505)
(47.125 0 5.26834)
(50.3119 0 4.47227)
(52.8528 0 3.67532)
(54.7459 0 2.85393)
(55.9731 0 2.00808)
(56.5139 0 1.23563)
(56.4866 0 0.613855)
(56.047 0 0.0428498)
(16.9218 0 4.02981)
(24.0168 0 3.94761)
(30.3793 0 3.83558)
(35.9655 0 3.70279)
(40.784 0 3.55696)
(44.8686 0 3.40214)
(48.2574 0 3.23865)
(50.982 0 3.06357)
(53.062 0 2.87232)
(54.5103 0 2.66405)
(55.3706 0 2.44602)
(55.7486 0 2.212)
(55.721 0 1.93392)
)
;

boundaryField
{
    top
    {
        type            directionMixed;
        refValue        uniform (0 0 0);
        refGradient     uniform (0 0 0);
        valueFraction   uniform (0 0 0 0 0 1);
        value           nonuniform List<vector> 
13
(
(16.9218 0 0)
(24.0168 0 0)
(30.3793 0 0)
(35.9655 0 0)
(40.784 0 0)
(44.8686 0 0)
(48.2574 0 0)
(50.982 0 0)
(53.062 0 0)
(54.5103 0 0)
(55.3706 0 0)
(55.7486 0 0)
(55.721 0 0)
)
;
    }
    bottom
    {
        type            fixedValue;
        value           uniform (0 0 0);
    }
    frontAndBack
    {
        type            empty;
    }
    left_cyc
    {
        type            cyclic;
    }
    right_cyc
    {
        type            cyclic;
    }
    procBoundary1to0
    {
        type            processor;
        value           nonuniform List<vector> 
16
(
(-52.9421 0 4.88703)
(-80.0233 0 22.1485)
(-75.7421 0 45.1124)
(-58.0472 0 64.7291)
(-35.6298 0 80.1041)
(-12.5581 0 90.043)
(9.00337 0 94.03)
(27.6202 0 91.9078)
(42.2448 0 83.9094)
(52.0144 0 70.8697)
(55.8735 0 54.4376)
(52.1019 0 36.0685)
(52.1019 0 36.0685)
(23.1272 0 26.5979)
(10.9641 0 9.1011)
(9.22814 0 4.07596)
)
;
    }
    procBoundary1to2
    {
        type            processor;
        value           nonuniform List<vector> 
16
(
(-59.8363 0 3.47211)
(-79.4234 0 3.9595)
(-71.2446 0 -0.092679)
(-60.2002 0 -5.53939)
(-48.3172 0 -10.4789)
(-33.7585 0 -14.0376)
(-15.8177 0 -15.8705)
(4.7933 0 -16.1719)
(27.403 0 -9.44667)
(27.403 0 -9.44667)
(47.1537 0 -8.05523)
(60.3888 0 -6.17521)
(63.0829 0 -4.03773)
(56.4307 0 -1.03229)
(55.2033 0 -0.546763)
(55.3077 0 1.60737)
)
;
    }
}


// ************************************************************************* //
