/*--------------------------------*- C++ -*----------------------------------*\
| =========                 |                                                 |
| \\      /  F ield         | OpenFOAM: The Open Source CFD Toolbox           |
|  \\    /   O peration     | Version:  2.3.0                                 |
|   \\  /    A nd           | Web:      www.OpenFOAM.org                      |
|    \\/     M anipulation  |                                                 |
\*---------------------------------------------------------------------------*/
FoamFile
{
    version     2.0;
    format      ascii;
    class       volScalarField;
    location    "12000";
    object      p_rgh;
}
// * * * * * * * * * * * * * * * * * * * * * * * * * * * * * * * * * * * * * //

dimensions      [0 2 -2 0 0 0 0];

internalField   nonuniform List<scalar> 
191
(
-1668.34
-1646.84
-1620.4
-1586.74
-1542.25
-1482.74
-1412.54
-1332.45
-1238.63
-1174.97
-1190.58
-1272.75
-1363.64
-1630.17
-1608.6
-1583.11
-1552.43
-1515.35
-1473.39
-1429.1
-1395.13
-1395.07
-1392.35
-1393.7
-1393.03
-1404.09
-1587.78
-1569.38
-1549.67
-1528.7
-1498.91
-1463.93
-1424.61
-1371.1
-1347.99
-1338.88
-1341.33
-1353.71
-1388.88
-1575.97
-1561.99
-1545.3
-1524.15
-1486.77
-1432.7
-1378.54
-1337.53
-1304.68
-1285.14
-1290.02
-1315.74
-1351.89
-1594.53
-1581.38
-1562.38
-1535.18
-1492.38
-1428.33
-1346.01
-1288.34
-1247.46
-1223.93
-1229.69
-1260.86
-1628.45
-1614.47
-1591.81
-1557.18
-1505.71
-1432.2
-1335.13
-1258.74
-1200.52
-1168.11
-1175.88
-1219.02
-1665.7
-1650.09
-1623.4
-1581.54
-1519.93
-1436.19
-1332
-1234.66
-1153.87
-1110.03
-1120.39
-1179.74
-1697.97
-1679.53
-1648.12
-1599.17
-1527.3
-1433.73
-1328.61
-1211.1
-1105.71
-1048.28
-1061.78
-1140.47
-1732.81
-1718.61
-1695.25
-1658.21
-1602.87
-1522.43
-1420.58
-1316.21
-1179.55
-1050.6
-979.161
-996.16
-1094.43
-1740.69
-1720.16
-1689.58
-1645.21
-1582.97
-1495.49
-1389.13
-1285.26
-1129.96
-981.358
-898.438
-918.369
-1031.17
-1712.13
-1683.48
-1644.48
-1592.63
-1524.44
-1431.93
-1316.54
-1209.95
-1048.45
-891.899
-802.93
-824.695
-942.487
-1609.6
-1572.97
-1526.44
-1466.9
-1388.9
-1292.41
-1182.21
-1077.41
-923.931
-779.233
-692.285
-714.206
-826.413
-1373.24
-1331.63
-1280.73
-1217.37
-1136.03
-1044.32
-966.847
-883.94
-766.304
-651.255
-576.811
-596.048
-689.556
-945.47
-901.701
-853.352
-804.14
-755.267
-707.329
-664.721
-608.836
-530.513
-451.15
-397.379
-411.547
-478.043
-284.824
-272.541
-269.52
-279.341
-306.382
-352.365
-407.64
-457.281
-486.188
-495.953
-493.186
-494.802
-494.253
)
;

boundaryField
{
    top
    {
        type            fixedValue;
        value           uniform 0;
    }
    bottom
    {
        type            fixedFluxPressure;
        gradient        uniform 0;
        value           nonuniform List<scalar> 
13
(
-1668.34
-1646.84
-1620.4
-1586.74
-1542.25
-1482.74
-1412.54
-1332.45
-1238.63
-1174.97
-1190.58
-1272.75
-1363.64
)
;
    }
    frontAndBack
    {
        type            empty;
    }
    left_cyc
    {
        type            cyclic;
    }
    right_cyc
    {
        type            cyclic;
    }
    procBoundary2to1
    {
        type            processor;
        value           nonuniform List<scalar> 
16
(
-1686.45
-1648.99
-1605.06
-1588.53
-1604.31
-1637.13
-1674.34
-1708.1
-1708.1
-1741.79
-1754.74
-1733.45
-1639.41
-1409.43
-986.076
-304.335
)
;
    }
    procBoundary2to3
    {
        type            processor;
        value           nonuniform List<scalar> 
16
(
-1438.59
-1445.84
-1440.88
-1394.34
-1307.9
-1307.9
-1285.58
-1269.76
-1255.16
-1232.81
-1187.05
-1107.67
-981.044
-809.006
-559.096
-477.812
)
;
    }
}


// ************************************************************************* //
