/*--------------------------------*- C++ -*----------------------------------*\
| =========                 |                                                 |
| \\      /  F ield         | OpenFOAM: The Open Source CFD Toolbox           |
|  \\    /   O peration     | Version:  2.3.0                                 |
|   \\  /    A nd           | Web:      www.OpenFOAM.org                      |
|    \\/     M anipulation  |                                                 |
\*---------------------------------------------------------------------------*/
FoamFile
{
    version     2.0;
    format      ascii;
    class       volVectorField;
    location    "12000";
    object      U;
}
// * * * * * * * * * * * * * * * * * * * * * * * * * * * * * * * * * * * * * //

dimensions      [0 1 -1 0 0 0 0];

internalField   nonuniform List<vector> 
191
(
(-59.8172 0 3.46667)
(-63.9977 0 4.71587)
(-69.1207 0 6.24009)
(-75.0051 0 7.28894)
(-79.7225 0 5.65795)
(-78.1789 0 -0.565067)
(-67.972 0 -9.4259)
(-51.0762 0 -18.3277)
(-29.3482 0 -24.5782)
(-7.17313 0 -25.7085)
(15.0573 0 -25.5448)
(37.2022 0 -23.0128)
(57.849 0 -15.2098)
(-79.431 0 3.95746)
(-77.1857 0 4.28706)
(-73.2032 0 4.14622)
(-67.0326 0 2.25912)
(-57.8982 0 -4.0834)
(-45.7096 0 -14.9638)
(-32.4151 0 -22.2095)
(-21.151 0 -24.2772)
(-12.0761 0 -25.9805)
(-3.07266 0 -26.8603)
(6.1239 0 -26.6799)
(15.1139 0 -25.4545)
(24.6334 0 -23.7544)
(-71.2683 0 -0.085861)
(-65.3955 0 -1.70737)
(-57.2999 0 -4.0027)
(-47.3302 0 -7.50754)
(-36.1155 0 -13.4856)
(-28.5648 0 -22.3432)
(-22.5871 0 -29.4278)
(-16.23 0 -33.1953)
(-9.35191 0 -35.0953)
(-2.35508 0 -35.8876)
(4.69671 0 -35.7352)
(11.6768 0 -34.6083)
(18.4064 0 -32.211)
(-60.2242 0 -5.52357)
(-54.1367 0 -9.10865)
(-46.0287 0 -13.3173)
(-36.5207 0 -17.7381)
(-26.3041 0 -22.3901)
(-20.4117 0 -28.2833)
(-16.2322 0 -34.3447)
(-11.8846 0 -38.3124)
(-6.99755 0 -40.8025)
(-1.78399 0 -41.9574)
(3.531 0 -41.7192)
(8.64629 0 -40.1022)
(13.3381 0 -37.1573)
(-48.3348 0 -10.4554)
(-43.4367 0 -15.811)
(-36.8121 0 -21.7561)
(-28.9397 0 -26.8946)
(-20.3056 0 -29.8698)
(-14.3187 0 -32.9519)
(-11.0653 0 -38.1938)
(-8.02998 0 -42.3061)
(-4.72577 0 -45.0836)
(-1.21411 0 -46.3955)
(2.37578 0 -46.1194)
(5.8217 0 -44.2863)
(-33.7676 0 -14.0089)
(-30.6197 0 -20.7527)
(-26.1708 0 -28.1905)
(-20.5937 0 -34.3361)
(-14.2156 0 -36.8546)
(-8.73769 0 -37.4351)
(-6.5277 0 -40.9441)
(-4.66416 0 -44.7613)
(-2.75752 0 -47.6835)
(-0.717422 0 -49.1339)
(1.37652 0 -48.8229)
(3.37735 0 -46.8191)
(-15.8188 0 -15.8393)
(-14.4905 0 -23.4682)
(-12.4209 0 -31.9625)
(-9.64445 0 -39.0007)
(-6.20997 0 -41.6924)
(-3.16787 0 -40.4752)
(-2.31642 0 -42.5324)
(-1.67688 0 -46.014)
(-1.04083 0 -48.987)
(-0.282476 0 -50.5274)
(0.516408 0 -50.1924)
(1.23752 0 -48.0828)
(4.79806 0 -16.1404)
(4.48395 0 -24.1162)
(4.1918 0 -33.0399)
(3.79371 0 -40.4702)
(3.65919 0 -43.3097)
(2.74898 0 -41.1582)
(1.87783 0 -42.5743)
(1.1409 0 -46.0086)
(0.559772 0 -49.0816)
(0.120969 0 -50.702)
(-0.276568 0 -50.3453)
(-0.766482 0 -48.128)
(27.4096 0 -9.42599)
(26.1802 0 -15.1778)
(24.4487 0 -22.8547)
(21.9212 0 -31.3258)
(18.2822 0 -38.2596)
(14.3063 0 -40.8075)
(8.74311 0 -38.8294)
(6.15698 0 -40.7264)
(4.02246 0 -44.6825)
(2.20894 0 -47.9891)
(0.532896 0 -49.6915)
(-1.10784 0 -49.3167)
(-2.84249 0 -46.9753)
(47.1622 0 -8.03696)
(45.22 0 -13.1568)
(42.2356 0 -19.8169)
(37.7179 0 -26.8797)
(31.2854 0 -32.3485)
(23.7829 0 -34.1586)
(14.2635 0 -33.6611)
(10.5637 0 -37.3552)
(7.2302 0 -42.0933)
(4.07782 0 -45.6356)
(0.992626 0 -47.3786)
(-2.09879 0 -46.9931)
(-5.23247 0 -44.5614)
(60.3994 0 -6.16061)
(57.8053 0 -10.237)
(53.7226 0 -15.4396)
(47.6203 0 -20.6973)
(39.2846 0 -24.3323)
(29.0869 0 -24.9865)
(20.0111 0 -25.9452)
(15.496 0 -32.8958)
(11.0511 0 -38.2484)
(6.33218 0 -41.8069)
(1.54381 0 -43.492)
(-3.30653 0 -43.1131)
(-8.08048 0 -40.7258)
(63.0962 0 -4.02814)
(59.958 0 -6.71166)
(55.1087 0 -9.96548)
(48.3088 0 -12.5118)
(40.4824 0 -12.979)
(31.5066 0 -14.6206)
(26.2916 0 -20.4755)
(21.3913 0 -27.7656)
(15.4264 0 -32.9225)
(8.93565 0 -36.1724)
(2.18032 0 -37.6916)
(-4.6694 0 -37.3471)
(-11.3371 0 -35.1849)
(56.4414 0 -1.02829)
(54.4254 0 -2.0785)
(51.2937 0 -3.3666)
(46.5953 0 -5.12778)
(41.6297 0 -7.43608)
(37.5845 0 -10.7438)
(33.289 0 -15.9663)
(27.2973 0 -21.7345)
(19.7704 0 -26.0031)
(11.5044 0 -28.7576)
(2.80672 0 -30.0495)
(-6.00912 0 -29.757)
(-14.5803 0 -27.9219)
(55.2118 0 -0.544369)
(53.9103 0 -1.15623)
(52.1079 0 -1.82031)
(49.7131 0 -2.69024)
(46.7378 0 -4.09351)
(43.153 0 -6.50757)
(38.3964 0 -9.89009)
(31.6158 0 -13.5353)
(23.0947 0 -16.3862)
(13.5128 0 -18.2821)
(3.30498 0 -19.1744)
(-7.06137 0 -18.9714)
(-17.0912 0 -17.7029)
(55.3143 0 1.60912)
(54.5387 0 1.22039)
(53.4352 0 0.703364)
(51.967 0 -0.107808)
(49.9427 0 -1.42631)
(46.881 0 -3.43204)
(42.0524 0 -6.03447)
(34.9219 0 -8.70911)
(25.7442 0 -10.8717)
(15.1529 0 -12.3658)
(3.71776 0 -13.0788)
(-7.92817 0 -12.9174)
(-19.124 0 -11.909)
)
;

boundaryField
{
    top
    {
        type            directionMixed;
        refValue        uniform (0 0 0);
        refGradient     uniform (0 0 0);
        valueFraction   uniform (0 0 0 0 0 1);
        value           nonuniform List<vector> 
13
(
(55.3143 0 0)
(54.5387 0 0)
(53.4352 0 0)
(51.967 0 0)
(49.9427 0 0)
(46.881 0 0)
(42.0524 0 0)
(34.9219 0 0)
(25.7442 0 0)
(15.1529 0 0)
(3.71776 0 0)
(-7.92817 0 0)
(-19.124 0 0)
)
;
    }
    bottom
    {
        type            fixedValue;
        value           uniform (0 0 0);
    }
    frontAndBack
    {
        type            empty;
    }
    left_cyc
    {
        type            cyclic;
    }
    right_cyc
    {
        type            cyclic;
    }
    procBoundary2to1
    {
        type            processor;
        value           nonuniform List<vector> 
16
(
(-56.4196 0 2.6018)
(-80.4834 0 3.57984)
(-75.2851 0 1.02075)
(-64.5738 0 -2.84674)
(-51.8279 0 -6.40304)
(-35.9415 0 -8.93158)
(-16.629 0 -10.1559)
(5.14309 0 -10.2244)
(5.14309 0 -10.2244)
(28.3618 0 -5.6765)
(48.4556 0 -4.61478)
(61.9877 0 -3.38041)
(65.0142 0 -2.15379)
(57.7368 0 -0.0821593)
(56.0538 0 0.0451043)
(55.7261 0 1.93545)
)
;
    }
    procBoundary2to3
    {
        type            processor;
        value           nonuniform List<vector> 
16
(
(72.5208 0 -6.18791)
(37.0382 0 -20.7754)
(24.591 0 -27.4616)
(17.5303 0 -32.5345)
(9.0085 0 -41.0284)
(9.0085 0 -41.0284)
(5.21076 0 -43.5288)
(1.8155 0 -44.8775)
(-1.42009 0 -44.8674)
(-4.73237 0 -43.3879)
(-8.40791 0 -40.4724)
(-12.7506 0 -36.4373)
(-17.7073 0 -31.259)
(-22.6299 0 -24.643)
(-26.3435 0 -15.4595)
(-29.2664 0 -10.1621)
)
;
    }
}


// ************************************************************************* //
