/*--------------------------------*- C++ -*----------------------------------*\
| =========                 |                                                 |
| \\      /  F ield         | OpenFOAM: The Open Source CFD Toolbox           |
|  \\    /   O peration     | Version:  2.3.0                                 |
|   \\  /    A nd           | Web:      www.OpenFOAM.org                      |
|    \\/     M anipulation  |                                                 |
\*---------------------------------------------------------------------------*/
FoamFile
{
    version     2.0;
    format      ascii;
    class       volScalarField;
    location    "7000";
    object      NUEff;
}
// * * * * * * * * * * * * * * * * * * * * * * * * * * * * * * * * * * * * * //

dimensions      [0 2 -1 0 0 0 0];

internalField   nonuniform List<scalar> 
765
(
0.285697
0.274724
0.258032
0.239307
0.221122
0.204852
0.191237
0.181453
0.173705
0.167496
0.162746
0.159567
0.158227
0.159074
0.161845
0.166234
0.172091
0.179442
0.188692
0.201387
0.217073
0.234899
0.253694
0.271199
0.283944
0.288008
0.281303
0.266923
0.24879
0.230093
0.212762
0.197789
0.186141
0.177414
0.170452
0.164962
0.160967
0.158652
0.158365
0.160207
0.163803
0.168929
0.175516
0.18375
0.194435
0.208726
0.22554
0.244024
0.262533
0.278176
0.28711
0.964073
0.962013
0.957956
0.951168
0.939913
0.919933
0.878962
0.772645
0.503953
0.297071
0.225113
0.196898
0.187548
0.193344
0.216045
0.27284
0.435566
0.724354
0.861557
0.912834
0.936232
0.949021
0.956655
0.961269
0.963774
0.964467
0.963299
0.96029
0.955008
0.946316
0.931538
0.903607
0.839033
0.659133
0.375763
0.252613
0.208072
0.190418
0.188466
0.201796
0.237197
0.330851
0.583198
0.810457
0.892599
0.926195
0.943317
0.953195
0.959189
0.962703
0.964313
0.985532
0.984727
0.983201
0.980811
0.977223
0.971733
0.962786
0.946456
0.91113
0.806391
0.48066
0.285263
0.243703
0.268262
0.408113
0.753301
0.896534
0.940602
0.959823
0.970023
0.976142
0.980096
0.98273
0.984442
0.985415
0.98569
0.985228
0.98407
0.982141
0.979214
0.974806
0.96788
0.956004
0.932772
0.875349
0.673381
0.350548
0.255383
0.247334
0.311595
0.576391
0.846671
0.92321
0.951629
0.965498
0.97335
0.978264
0.981505
0.983656
0.984994
0.985627
0.991204
0.990634
0.989572
0.987957
0.985632
0.982253
0.977084
0.968382
0.951924
0.914795
0.802833
0.503645
0.362332
0.445787
0.748607
0.899273
0.945942
0.965481
0.975475
0.981246
0.984954
0.987486
0.989249
0.990434
0.991121
0.991315
0.990988
0.990173
0.988848
0.986908
0.984122
0.97999
0.973413
0.961687
0.937796
0.876501
0.670972
0.401165
0.374124
0.583541
0.845587
0.927679
0.957235
0.971066
0.978614
0.983228
0.986294
0.988419
0.989885
0.990822
0.991271
0.993496
0.992981
0.992029
0.990612
0.988635
0.985869
0.9818
0.97521
0.963478
0.939819
0.882735
0.731442
0.573188
0.681716
0.858803
0.930884
0.959443
0.973093
0.980577
0.985067
0.988072
0.990205
0.991742
0.9928
0.99342
0.993595
0.993299
0.992565
0.991387
0.98971
0.987383
0.984066
0.978982
0.970333
0.95407
0.91848
0.82464
0.630282
0.591864
0.781724
0.902805
0.947641
0.967166
0.977208
0.982985
0.986654
0.98919
0.991013
0.992308
0.993151
0.993556
0.994623
0.994095
0.993119
0.991683
0.989725
0.987071
0.983308
0.977437
0.967478
0.94881
0.909705
0.827593
0.744153
0.802679
0.895206
0.942195
0.964173
0.975597
0.982188
0.986314
0.989175
0.991274
0.992824
0.993907
0.994544
0.994721
0.99442
0.993665
0.992463
0.99078
0.988509
0.985381
0.980755
0.973225
0.959842
0.93332
0.875786
0.775944
0.754873
0.853006
0.922631
0.954786
0.970546
0.979184
0.984386
0.987813
0.990267
0.992085
0.993403
0.994268
0.994683
0.99529
0.994718
0.993654
0.992089
0.989976
0.987175
0.983336
0.977628
0.968429
0.952305
0.922269
0.870757
0.827529
0.857167
0.912202
0.946894
0.965474
0.975884
0.982212
0.986387
0.989387
0.991642
0.99333
0.994512
0.995203
0.995394
0.995069
0.994248
0.992935
0.991107
0.988679
0.985428
0.98081
0.973669
0.961665
0.939841
0.899414
0.843188
0.832675
0.885385
0.931682
0.957316
0.971205
0.979294
0.984419
0.987948
0.990556
0.992525
0.993963
0.994906
0.995355
0.99578
0.995154
0.99398
0.992243
0.989891
0.986799
0.982667
0.976877
0.968092
0.953829
0.930214
0.896259
0.872045
0.888311
0.923009
0.949311
0.965377
0.975164
0.981498
0.985936
0.989235
0.991743
0.993619
0.994926
0.995684
0.995891
0.995537
0.994634
0.99318
0.991145
0.98845
0.984895
0.980061
0.97302
0.961939
0.943587
0.91425
0.880403
0.874704
0.905182
0.937229
0.958114
0.97068
0.978531
0.983812
0.987646
0.990534
0.992726
0.994322
0.99536
0.99585
0.996215
0.99554
0.994273
0.992387
0.989818
0.986451
0.982066
0.976237
0.967956
0.955619
0.937483
0.915104
0.901052
0.91035
0.932409
0.951944
0.965507
0.974568
0.980859
0.98552
0.989098
0.99184
0.993881
0.995293
0.99611
0.996334
0.995951
0.994977
0.993403
0.991185
0.988238
0.984404
0.979395
0.972516
0.962468
0.947417
0.926459
0.905714
0.902484
0.920597
0.942589
0.959186
0.970324
0.977862
0.983256
0.987363
0.990519
0.992912
0.994642
0.995762
0.996291
0.996664
0.995971
0.994678
0.992751
0.990119
0.98667
0.982265
0.976669
0.96925
0.959189
0.946095
0.932031
0.924069
0.929276
0.942723
0.956382
0.967158
0.97512
0.981076
0.98572
0.989376
0.99219
0.994276
0.995716
0.996554
0.996786
0.99639
0.995394
0.993788
0.991518
0.988492
0.984586
0.979651
0.973248
0.964623
0.953022
0.938887
0.92662
0.924821
0.935273
0.949584
0.961975
0.971301
0.978188
0.983432
0.987596
0.990836
0.993287
0.995053
0.996197
0.996742
0.99716
0.996499
0.99528
0.99348
0.991036
0.987863
0.983891
0.979046
0.973052
0.965686
0.957204
0.949181
0.945018
0.947715
0.955184
0.963765
0.971445
0.977747
0.982835
0.986992
0.990347
0.992956
0.994902
0.996257
0.997054
0.997278
0.996897
0.995953
0.994446
0.99233
0.98953
0.98596
0.981587
0.976208
0.969547
0.961533
0.952948
0.946309
0.945382
0.950926
0.959342
0.967634
0.974652
0.980331
0.984928
0.988709
0.991699
0.993979
0.995632
0.996714
0.997236
0.997714
0.997141
0.996109
0.994617
0.992637
0.990131
0.987087
0.983523
0.979408
0.974818
0.970106
0.966122
0.964198
0.965434
0.969061
0.973696
0.978359
0.982597
0.98629
0.989451
0.992085
0.994187
0.995792
0.996934
0.997621
0.997818
0.997484
0.996675
0.995412
0.993678
0.991437
0.988656
0.985362
0.981525
0.977153
0.97243
0.967931
0.964778
0.964354
0.966946
0.971235
0.975979
0.98047
0.984449
0.987877
0.990795
0.99317
0.995027
0.996405
0.997326
0.997781
0.998322
0.99789
0.997134
0.996082
0.994746
0.993127
0.99124
0.98912
0.986833
0.984496
0.98232
0.980638
0.979868
0.980359
0.981864
0.983957
0.986277
0.988588
0.990753
0.992698
0.994383
0.995787
0.996907
0.997736
0.998251
0.998402
0.998147
0.997545
0.996637
0.995441
0.993962
0.992205
0.990198
0.987985
0.985655
0.983364
0.981382
0.980096
0.979928
0.980972
0.98282
0.985065
0.987406
0.989661
0.991728
0.993552
0.995101
0.996368
0.997348
0.998028
0.998374
0.998972
0.998711
0.998275
0.997701
0.997014
0.996228
0.99535
0.994393
0.993422
0.992498
0.9917
0.991121
0.990866
0.991028
0.991539
0.992295
0.993195
0.994161
0.995125
0.996026
0.996833
0.997545
0.998148
0.998621
0.998928
0.999021
0.998865
0.99851
0.998
0.997367
0.996629
0.995798
0.994873
0.993903
0.992947
0.992075
0.991373
0.990941
0.990885
0.991233
0.991878
0.992717
0.99366
0.994634
0.995579
0.996432
0.997194
0.997854
0.998397
0.998794
0.999004
0.999645
0.999562
0.999431
0.99927
0.999092
0.998902
0.998692
0.99846
0.998233
0.998028
0.99786
0.997743
0.997692
0.997724
0.997827
0.997985
0.998182
0.998405
0.998637
0.998854
0.999048
0.999229
0.999394
0.999534
0.999631
0.999661
0.999611
0.999501
0.999352
0.999182
0.998998
0.998801
0.998576
0.998344
0.998127
0.997938
0.997793
0.997707
0.997696
0.997765
0.997897
0.998076
0.998288
0.998518
0.998749
0.998951
0.999138
0.999312
0.999467
0.999588
0.999656
)
;

boundaryField
{
    top
    {
        type            calculated;
        value           uniform 1;
    }
    bottom
    {
        type            calculated;
        value           uniform 0.148957;
    }
    frontAndBack
    {
        type            empty;
    }
    left_cyc
    {
        type            cyclic;
    }
    right_cyc
    {
        type            cyclic;
    }
}


// ************************************************************************* //
