/*--------------------------------*- C++ -*----------------------------------*\
| =========                 |                                                 |
| \\      /  F ield         | OpenFOAM: The Open Source CFD Toolbox           |
|  \\    /   O peration     | Version:  2.3.0                                 |
|   \\  /    A nd           | Web:      www.OpenFOAM.org                      |
|    \\/     M anipulation  |                                                 |
\*---------------------------------------------------------------------------*/
FoamFile
{
    version     2.0;
    format      ascii;
    class       volScalarField;
    location    "7000";
    object      NUEff;
}
// * * * * * * * * * * * * * * * * * * * * * * * * * * * * * * * * * * * * * //

dimensions      [0 2 -1 0 0 0 0];

internalField   nonuniform List<scalar> 
3060
(
0.175085
0.174899
0.174559
0.174078
0.173468
0.172744
0.171917
0.170999
0.17
0.168927
0.167786
0.166584
0.16533
0.164052
0.162787
0.161541
0.160313
0.159112
0.157954
0.156858
0.15585
0.154953
0.154196
0.153606
0.153211
0.153037
0.153102
0.153398
0.153903
0.154589
0.15543
0.156396
0.157464
0.158608
0.159806
0.16104
0.162299
0.163578
0.164878
0.166166
0.167403
0.168575
0.169673
0.170692
0.171621
0.172451
0.173171
0.173768
0.174228
0.174538
0.174687
0.174664
0.174473
0.174123
0.173626
0.172996
0.172247
0.17139
0.170436
0.169397
0.168278
0.167088
0.165836
0.164539
0.163243
0.161971
0.160718
0.159492
0.158306
0.157179
0.156135
0.155199
0.154396
0.153753
0.1533
0.153062
0.15306
0.153294
0.153742
0.154378
0.155174
0.156102
0.157136
0.15825
0.159422
0.160632
0.161865
0.163114
0.164381
0.16566
0.166902
0.168089
0.169213
0.170267
0.171246
0.172141
0.172943
0.173639
0.174216
0.174662
0.174963
0.175107
0.633574
0.626166
0.612299
0.591973
0.565303
0.532783
0.495541
0.455414
0.414702
0.375623
0.339821
0.308162
0.280852
0.257685
0.238495
0.222912
0.210035
0.199329
0.190436
0.183091
0.177087
0.172265
0.168515
0.165773
0.164015
0.163257
0.163538
0.164838
0.167131
0.170425
0.174768
0.180256
0.187033
0.195295
0.205299
0.217383
0.232037
0.250041
0.272085
0.298226
0.328716
0.363431
0.401605
0.441685
0.481462
0.518559
0.550985
0.57745
0.597322
0.61038
0.61653
0.615604
0.607657
0.592827
0.571217
0.543127
0.509339
0.471334
0.431246
0.391468
0.354072
0.320408
0.291052
0.26601
0.244961
0.227964
0.214039
0.20253
0.193003
0.185145
0.178717
0.173537
0.169473
0.166442
0.164405
0.163366
0.163357
0.164377
0.16639
0.16939
0.173411
0.178528
0.184865
0.192592
0.201932
0.213169
0.226696
0.243104
0.263367
0.287557
0.315983
0.34876
0.385528
0.425221
0.46601
0.505598
0.541763
0.57284
0.597887
0.616535
0.628721
0.634442
0.940476
0.939753
0.938386
0.936334
0.933516
0.929801
0.924987
0.91876
0.910635
0.899837
0.885079
0.864125
0.832882
0.783626
0.70303
0.583447
0.45034
0.348589
0.284484
0.244829
0.219372
0.202439
0.191008
0.183452
0.178916
0.177022
0.177718
0.181006
0.187106
0.196643
0.210862
0.232097
0.264735
0.317018
0.402313
0.527607
0.660304
0.757695
0.81747
0.854475
0.878655
0.895309
0.90727
0.916128
0.922823
0.927932
0.931821
0.934724
0.936791
0.93811
0.938723
0.938631
0.937837
0.936331
0.934058
0.930917
0.926739
0.921262
0.914073
0.904521
0.891535
0.873277
0.846432
0.804756
0.736824
0.628586
0.4924
0.376307
0.300938
0.254823
0.225729
0.206624
0.193786
0.185228
0.179898
0.17729
0.177269
0.179832
0.185099
0.193556
0.206218
0.224998
0.253454
0.298267
0.371053
0.483405
0.618063
0.728087
0.798859
0.842352
0.870356
0.889401
0.902963
0.912968
0.920539
0.926361
0.930864
0.93433
0.936938
0.938806
0.940003
0.94056
0.971815
0.97152
0.970967
0.970146
0.969037
0.967607
0.965804
0.963553
0.960743
0.957211
0.952709
0.946856
0.939032
0.928185
0.912404
0.888081
0.847277
0.771589
0.629308
0.447154
0.325523
0.262791
0.229198
0.210283
0.200008
0.195921
0.197404
0.204631
0.219099
0.24489
0.291834
0.382914
0.546541
0.719486
0.82104
0.873903
0.903958
0.922791
0.935372
0.944252
0.95078
0.955729
0.959563
0.962578
0.964967
0.96686
0.968343
0.969476
0.970296
0.970825
0.971073
0.971035
0.970715
0.970112
0.969214
0.967995
0.966412
0.964401
0.961864
0.958659
0.95457
0.949267
0.942221
0.932548
0.918678
0.89759
0.863146
0.800912
0.680888
0.498014
0.353079
0.276684
0.236724
0.214489
0.202153
0.196488
0.19645
0.202024
0.214207
0.236134
0.275379
0.349966
0.491433
0.673771
0.796327
0.860243
0.895573
0.917164
0.931386
0.941305
0.948537
0.953991
0.958211
0.961536
0.964187
0.966313
0.968013
0.969355
0.970387
0.971136
0.971622
0.971849
0.982594
0.982408
0.98206
0.981547
0.980858
0.979977
0.97888
0.977529
0.975874
0.973838
0.971312
0.968135
0.96406
0.958702
0.951427
0.941136
0.925743
0.900946
0.856712
0.767617
0.59253
0.402691
0.300889
0.253494
0.231053
0.222728
0.225696
0.240828
0.274492
0.345886
0.49674
0.700055
0.825033
0.884937
0.916638
0.935474
0.947673
0.956085
0.962162
0.966712
0.970213
0.972964
0.975159
0.976925
0.978352
0.9795
0.980411
0.981113
0.981625
0.981957
0.982112
0.982089
0.981888
0.98151
0.98095
0.980196
0.979227
0.978012
0.976503
0.974636
0.972312
0.969389
0.96565
0.96076
0.954174
0.944959
0.9314
0.910045
0.873115
0.801
0.651723
0.447915
0.321775
0.263261
0.235518
0.223852
0.223788
0.23528
0.262665
0.320248
0.443995
0.646238
0.797515
0.871062
0.908688
0.930412
0.944191
0.953551
0.960247
0.965224
0.969035
0.972024
0.974409
0.976338
0.977908
0.979188
0.980226
0.981055
0.981697
0.982167
0.982472
0.982616
0.987806
0.987664
0.9874
0.98701
0.986491
0.985831
0.985014
0.984019
0.982813
0.981348
0.979559
0.977348
0.974572
0.971013
0.966332
0.959954
0.950897
0.937357
0.915637
0.87722
0.800237
0.640619
0.440225
0.327121
0.278842
0.262306
0.268081
0.299144
0.376017
0.54178
0.739562
0.849209
0.901295
0.929104
0.945724
0.956507
0.963929
0.969269
0.973266
0.976344
0.978767
0.980707
0.98228
0.983564
0.984613
0.985466
0.986147
0.986676
0.987064
0.987316
0.987434
0.987417
0.987263
0.986977
0.986553
0.985986
0.985262
0.984362
0.983256
0.981903
0.980244
0.978191
0.975618
0.972332
0.968034
0.96224
0.954103
0.942119
0.923297
0.890971
0.828353
0.69543
0.489205
0.349421
0.287955
0.264472
0.264369
0.287532
0.348202
0.486073
0.691693
0.82612
0.889636
0.922398
0.941454
0.953581
0.961813
0.967676
0.972027
0.975357
0.97797
0.98006
0.981757
0.983149
0.984297
0.985243
0.986017
0.986639
0.987124
0.987481
0.987713
0.987823
0.990736
0.990616
0.990391
0.990062
0.989624
0.98907
0.988391
0.987569
0.986581
0.985395
0.983961
0.982211
0.980043
0.977308
0.973774
0.969051
0.962535
0.953172
0.938986
0.915897
0.874498
0.791521
0.629587
0.449268
0.354532
0.322884
0.333761
0.394255
0.537324
0.726901
0.843606
0.900158
0.930029
0.947615
0.958864
0.96651
0.971949
0.975956
0.979013
0.981407
0.983319
0.98487
0.986142
0.987191
0.988057
0.988766
0.989336
0.989782
0.990109
0.990323
0.990424
0.990408
0.990278
0.990035
0.989678
0.989201
0.988596
0.987849
0.986938
0.985836
0.984498
0.982862
0.980839
0.978294
0.975021
0.970697
0.964779
0.95637
0.943823
0.923828
0.888977
0.820996
0.682072
0.490955
0.372228
0.326931
0.326771
0.371515
0.489002
0.679401
0.819255
0.887923
0.923118
0.943299
0.955958
0.964441
0.970413
0.974778
0.978082
0.980653
0.982701
0.984361
0.985725
0.986856
0.987798
0.988581
0.989226
0.989749
0.990158
0.99046
0.990657
0.99075
0.992525
0.992414
0.992209
0.991909
0.991511
0.991011
0.990401
0.989668
0.988796
0.987757
0.986515
0.985013
0.983174
0.980877
0.977944
0.974078
0.96884
0.961499
0.950756
0.934133
0.90647
0.856162
0.758788
0.601426
0.467652
0.41493
0.433238
0.528738
0.689738
0.818484
0.88706
0.923264
0.944142
0.957204
0.965909
0.972
0.976425
0.979737
0.982296
0.984322
0.985959
0.987301
0.988412
0.989338
0.990108
0.990744
0.991259
0.991663
0.991962
0.992157
0.992249
0.992235
0.992116
0.991894
0.991569
0.991137
0.990592
0.989923
0.989114
0.988144
0.986977
0.985566
0.983839
0.981691
0.978961
0.9754
0.970608
0.963954
0.954333
0.939682
0.915806
0.873411
0.791814
0.646787
0.495634
0.421747
0.421516
0.494661
0.645035
0.790362
0.872483
0.915182
0.939226
0.953976
0.963662
0.970362
0.975188
0.978778
0.981525
0.98369
0.985432
0.98686
0.988045
0.989037
0.989871
0.990571
0.991151
0.991624
0.991996
0.992272
0.992452
0.992538
0.993675
0.993568
0.99337
0.99308
0.992698
0.992221
0.991641
0.990952
0.990137
0.989175
0.988036
0.986674
0.985019
0.982973
0.980383
0.977006
0.972494
0.966282
0.957409
0.944146
0.923177
0.887802
0.824915
0.719587
0.599242
0.536519
0.559407
0.65988
0.780755
0.862854
0.909113
0.935718
0.95204
0.962684
0.969984
0.975197
0.979044
0.98196
0.984234
0.986053
0.987536
0.988764
0.989791
0.990655
0.99138
0.991982
0.992474
0.992861
0.993148
0.993336
0.993424
0.993411
0.993297
0.993083
0.992771
0.992357
0.991837
0.991204
0.990446
0.989542
0.988467
0.987179
0.985618
0.983695
0.981275
0.978149
0.973998
0.968329
0.960314
0.948484
0.930074
0.899544
0.845742
0.752017
0.628431
0.545172
0.544908
0.627536
0.750905
0.844894
0.898955
0.929645
0.948153
0.960044
0.9681
0.973799
0.977974
0.981121
0.98355
0.985482
0.987053
0.988352
0.989441
0.990362
0.991142
0.991802
0.992355
0.992807
0.993165
0.99343
0.993605
0.993687
0.994445
0.994338
0.994138
0.993848
0.993465
0.992989
0.992416
0.991737
0.990942
0.990013
0.988923
0.987631
0.986078
0.984175
0.981783
0.978699
0.974626
0.9691
0.961354
0.950081
0.93294
0.905652
0.86086
0.79064
0.706024
0.654739
0.674269
0.750144
0.831109
0.887393
0.921848
0.943081
0.956736
0.96593
0.972377
0.977058
0.980559
0.983243
0.985354
0.987058
0.988461
0.989635
0.990626
0.991467
0.992178
0.992774
0.993263
0.99365
0.993937
0.994126
0.994214
0.994201
0.994086
0.993872
0.993559
0.993146
0.992631
0.992006
0.991262
0.990385
0.98935
0.988123
0.986649
0.984852
0.982612
0.979742
0.975977
0.970906
0.963862
0.953718
0.938475
0.914488
0.875265
0.812088
0.72778
0.662244
0.662017
0.727135
0.81137
0.874691
0.914058
0.938144
0.95345
0.963637
0.970709
0.9758
0.979581
0.982463
0.98471
0.986512
0.98799
0.989224
0.990269
0.991161
0.991924
0.992575
0.993122
0.993574
0.993932
0.994199
0.994375
0.994457
0.994982
0.994871
0.994665
0.994364
0.99397
0.99348
0.992893
0.992203
0.991401
0.990472
0.989393
0.988126
0.986618
0.984786
0.982505
0.979594
0.975794
0.970704
0.963688
0.953706
0.939017
0.91673
0.882562
0.833092
0.776115
0.740973
0.754522
0.805785
0.861163
0.902492
0.929811
0.947642
0.95957
0.96782
0.97372
0.978067
0.981358
0.98391
0.985936
0.987588
0.988961
0.990121
0.99111
0.991956
0.992678
0.993286
0.993788
0.994186
0.994482
0.994677
0.994768
0.994754
0.994636
0.994415
0.994093
0.993668
0.99314
0.992503
0.99175
0.990869
0.989838
0.988628
0.98719
0.985453
0.983308
0.980587
0.977058
0.972365
0.965949
0.9569
0.943703
0.923817
0.893284
0.847859
0.790789
0.746214
0.746035
0.790318
0.847332
0.892836
0.923462
0.943417
0.956662
0.965742
0.972179
0.976885
0.980423
0.983151
0.9853
0.987037
0.988476
0.98969
0.990727
0.991622
0.992393
0.993056
0.993617
0.994082
0.994452
0.994728
0.994909
0.994995
0.995375
0.995259
0.995041
0.994724
0.994308
0.993794
0.993179
0.992461
0.99163
0.990676
0.989577
0.9883
0.986796
0.984986
0.982755
0.97994
0.976306
0.971502
0.964983
0.955902
0.942929
0.924065
0.89682
0.860201
0.820765
0.79725
0.806306
0.841093
0.880681
0.912523
0.93505
0.950512
0.961227
0.968825
0.974357
0.978493
0.981663
0.984151
0.986147
0.98779
0.989171
0.990348
0.991362
0.992236
0.992986
0.993621
0.994146
0.994564
0.994876
0.99508
0.995176
0.995162
0.995038
0.994805
0.994467
0.994021
0.993468
0.992803
0.992022
0.991114
0.990061
0.988835
0.987393
0.985669
0.983561
0.980917
0.977528
0.973079
0.967088
0.958803
0.947041
0.929993
0.905216
0.870902
0.830791
0.80076
0.80061
0.830406
0.870459
0.904821
0.929665
0.946769
0.958569
0.96688
0.972888
0.977346
0.980739
0.983383
0.985492
0.987213
0.988652
0.989879
0.990937
0.991858
0.992658
0.993349
0.993938
0.994426
0.994816
0.995107
0.995299
0.995389
0.99568
0.995556
0.995325
0.994987
0.994544
0.993996
0.993343
0.992582
0.991706
0.990707
0.989564
0.98825
0.986716
0.98489
0.982665
0.979891
0.976355
0.97174
0.965577
0.95717
0.945494
0.929172
0.906835
0.878752
0.850452
0.834319
0.840518
0.864902
0.894284
0.919602
0.938632
0.952309
0.962107
0.969225
0.974503
0.978507
0.981616
0.984087
0.986094
0.987764
0.989181
0.990402
0.991461
0.992379
0.993171
0.993844
0.994402
0.994846
0.995177
0.995394
0.995495
0.99548
0.995348
0.995102
0.994742
0.994269
0.993682
0.992978
0.992154
0.991201
0.990103
0.988836
0.987359
0.985611
0.983498
0.980881
0.977569
0.973277
0.967585
0.959866
0.949193
0.934272
0.913639
0.886833
0.857564
0.836728
0.836591
0.857217
0.886421
0.913255
0.933941
0.94891
0.959618
0.96736
0.973065
0.977362
0.980675
0.983289
0.985398
0.987139
0.98861
0.989877
0.99098
0.991946
0.992791
0.993523
0.994149
0.99467
0.995085
0.995395
0.995599
0.995695
0.995934
0.995802
0.995554
0.995193
0.994719
0.994132
0.993433
0.992619
0.991686
0.990624
0.989419
0.988043
0.986453
0.984582
0.98233
0.97956
0.976072
0.971585
0.965694
0.957827
0.947207
0.932915
0.914303
0.892265
0.871361
0.859942
0.86434
0.881978
0.904364
0.924892
0.941189
0.953419
0.962471
0.96921
0.974305
0.978231
0.981321
0.98381
0.985858
0.987582
0.98906
0.990343
0.991463
0.992439
0.993283
0.994001
0.994597
0.995071
0.995423
0.995654
0.995762
0.995746
0.995606
0.995344
0.99496
0.994455
0.993828
0.993078
0.9922
0.991188
0.990028
0.988698
0.987163
0.985364
0.983213
0.980587
0.977306
0.973114
0.967645
0.960379
0.950593
0.937383
0.919944
0.898555
0.876592
0.861662
0.861527
0.876254
0.898145
0.919548
0.937027
0.95028
0.960099
0.967387
0.972867
0.977061
0.980339
0.982959
0.985101
0.986891
0.98842
0.989748
0.990914
0.99194
0.992842
0.993626
0.994296
0.994853
0.995298
0.99563
0.995847
0.995949
0.996158
0.996018
0.995754
0.995369
0.994861
0.994233
0.993484
0.992611
0.991612
0.990478
0.989195
0.98774
0.986074
0.984134
0.981832
0.979038
0.97557
0.971171
0.965505
0.958113
0.948423
0.935862
0.920257
0.902747
0.886965
0.878653
0.881876
0.894978
0.912347
0.929133
0.943153
0.954126
0.962519
0.968931
0.973884
0.977764
0.980863
0.983394
0.985507
0.987306
0.988862
0.990222
0.991414
0.992456
0.993358
0.994125
0.99476
0.995265
0.99564
0.995885
0.995999
0.995982
0.995834
0.995555
0.995147
0.994608
0.993939
0.993138
0.992201
0.991121
0.989887
0.98848
0.986866
0.984995
0.982785
0.980123
0.976845
0.972718
0.967429
0.960558
0.951554
0.939821
0.925004
0.907752
0.89093
0.879924
0.879792
0.890594
0.907327
0.924574
0.939423
0.951194
0.960229
0.967121
0.972421
0.976548
0.97982
0.982472
0.984671
0.986531
0.988137
0.989544
0.990787
0.991885
0.99285
0.993691
0.994408
0.995005
0.995481
0.995835
0.996066
0.996175
0.996369
0.99622
0.995941
0.995532
0.994993
0.994324
0.993524
0.992592
0.991524
0.990311
0.988942
0.987397
0.985641
0.983618
0.98125
0.978418
0.974958
0.97065
0.965209
0.958276
0.949451
0.938424
0.925313
0.911296
0.899215
0.89305
0.89547
0.905378
0.919007
0.932805
0.944872
0.954701
0.962469
0.968563
0.97337
0.977209
0.980329
0.982916
0.985107
0.986993
0.988637
0.990082
0.991353
0.992463
0.993422
0.994237
0.994911
0.995446
0.995843
0.996102
0.996223
0.996205
0.996048
0.995754
0.995321
0.994751
0.99404
0.993188
0.99219
0.99104
0.989726
0.988233
0.98653
0.984573
0.98229
0.979579
0.976293
0.97223
0.967123
0.960634
0.952366
0.941957
0.929349
0.915342
0.902287
0.894014
0.893886
0.90195
0.914897
0.928879
0.941506
0.951946
0.960242
0.96675
0.971866
0.975929
0.979207
0.981905
0.984175
0.986121
0.987818
0.989314
0.990641
0.991815
0.992848
0.993745
0.994511
0.995146
0.995651
0.996026
0.996272
0.996386
0.996575
0.996419
0.996126
0.995696
0.995128
0.994423
0.993578
0.99259
0.991456
0.990169
0.988718
0.987084
0.985237
0.98313
0.980695
0.977826
0.974379
0.970168
0.964963
0.958496
0.950509
0.940882
0.929901
0.918666
0.90936
0.904744
0.906589
0.914158
0.924901
0.936238
0.946582
0.955337
0.962486
0.968251
0.972904
0.976696
0.979833
0.982476
0.984743
0.986715
0.988446
0.989971
0.991314
0.992487
0.993499
0.994358
0.995066
0.995628
0.996044
0.996315
0.996441
0.996423
0.996259
0.99595
0.995497
0.994898
0.994151
0.993253
0.992199
0.990983
0.989595
0.988019
0.98623
0.984187
0.981832
0.979075
0.975785
0.971791
0.966876
0.960778
0.953228
0.944044
0.933352
0.921971
0.911777
0.905489
0.905363
0.911439
0.921507
0.932841
0.943535
0.95274
0.960312
0.966426
0.971348
0.97534
0.978621
0.981366
0.983706
0.98574
0.987528
0.989112
0.99052
0.991766
0.992861
0.993811
0.99462
0.995289
0.995821
0.996215
0.996473
0.996593
0.996783
0.996621
0.996317
0.995871
0.995282
0.994548
0.993668
0.992637
0.99145
0.990101
0.988578
0.986866
0.98494
0.982762
0.980274
0.977383
0.97397
0.969883
0.964946
0.958973
0.951822
0.943505
0.934388
0.925429
0.918269
0.91481
0.916227
0.922024
0.930476
0.939733
0.94852
0.956239
0.962754
0.968158
0.972629
0.976349
0.979484
0.982165
0.984493
0.986538
0.988342
0.989935
0.991336
0.992559
0.993613
0.994505
0.995239
0.99582
0.99625
0.996531
0.996662
0.996643
0.996473
0.996154
0.995684
0.995064
0.99429
0.993357
0.99226
0.990992
0.989543
0.987897
0.986034
0.98392
0.981508
0.978721
0.975449
0.97155
0.966856
0.961179
0.954356
0.946332
0.937342
0.928143
0.920189
0.915392
0.915268
0.91985
0.927662
0.936793
0.945766
0.953796
0.960634
0.966321
0.97102
0.974915
0.97818
0.980955
0.983355
0.985464
0.987331
0.988992
0.990468
0.991774
0.99292
0.993912
0.994754
0.995449
0.996001
0.99641
0.996677
0.996802
0.996998
0.996832
0.996522
0.996066
0.995465
0.994716
0.993815
0.992758
0.991538
0.990148
0.988578
0.986814
0.984836
0.982615
0.980105
0.977229
0.973891
0.969976
0.96536
0.959929
0.953631
0.946563
0.939104
0.932045
0.926585
0.924012
0.925101
0.929518
0.93611
0.943575
0.95093
0.95763
0.963475
0.968468
0.972705
0.976309
0.979402
0.982086
0.984443
0.986531
0.988381
0.990016
0.991453
0.992705
0.993782
0.994692
0.99544
0.996031
0.99647
0.996756
0.99689
0.99687
0.996696
0.996371
0.995893
0.995262
0.994472
0.99352
0.992399
0.9911
0.989613
0.987924
0.986015
0.98386
0.981425
0.978644
0.97543
0.971674
0.967253
0.962046
0.955974
0.949074
0.941621
0.93427
0.928113
0.924469
0.924349
0.927778
0.933781
0.941044
0.948459
0.955349
0.961424
0.966634
0.971056
0.974809
0.978017
0.98079
0.983218
0.985372
0.987293
0.989005
0.990527
0.991871
0.993048
0.994064
0.994926
0.995636
0.996199
0.996616
0.99689
0.997017
0.997222
0.997055
0.996744
0.996288
0.995686
0.994936
0.994034
0.992973
0.991748
0.990349
0.988768
0.986993
0.985007
0.982794
0.980314
0.97751
0.974312
0.970641
0.966418
0.961591
0.956172
0.950302
0.944331
0.938877
0.934784
0.932901
0.933732
0.937053
0.94211
0.948015
0.954041
0.959727
0.964856
0.969369
0.9733
0.976721
0.979709
0.98234
0.984675
0.986759
0.988611
0.99025
0.991691
0.992944
0.994021
0.99493
0.995677
0.996267
0.996705
0.996991
0.997125
0.997105
0.996932
0.996606
0.996129
0.995499
0.994711
0.99376
0.992638
0.991337
0.989847
0.988154
0.986243
0.984096
0.98169
0.978973
0.97588
0.972335
0.968259
0.963587
0.958303
0.9525
0.94645
0.940685
0.935992
0.933258
0.933143
0.935669
0.940202
0.945863
0.951856
0.957632
0.962905
0.967572
0.971645
0.975186
0.978274
0.980988
0.983393
0.985545
0.987475
0.989198
0.990731
0.992083
0.993265
0.994284
0.995146
0.995857
0.99642
0.996839
0.997113
0.997241
0.997455
0.997291
0.996986
0.996539
0.99595
0.995217
0.994336
0.9933
0.992102
0.990735
0.98919
0.987457
0.985526
0.983386
0.98101
0.978359
0.975386
0.972044
0.968298
0.96414
0.959622
0.954895
0.950255
0.946155
0.943163
0.941819
0.942442
0.944886
0.948672
0.953219
0.958015
0.962697
0.967061
0.971019
0.974559
0.977709
0.980512
0.983014
0.985257
0.987272
0.989072
0.990667
0.99207
0.993291
0.99434
0.995225
0.995954
0.99653
0.996958
0.997239
0.997371
0.997351
0.997181
0.996862
0.996396
0.99578
0.995012
0.994085
0.992992
0.991725
0.990274
0.988627
0.986773
0.9847
0.982394
0.979818
0.976929
0.973682
0.970035
0.965968
0.96151
0.956772
0.952
0.947597
0.944103
0.942094
0.941989
0.943804
0.94714
0.951431
0.956131
0.960825
0.965259
0.969312
0.972951
0.976193
0.979078
0.981654
0.983965
0.986049
0.987928
0.989611
0.991108
0.99243
0.993585
0.99458
0.995422
0.996117
0.996669
0.997079
0.997348
0.997475
0.997699
0.997541
0.997248
0.996821
0.99626
0.995562
0.994725
0.993744
0.992611
0.991321
0.989865
0.988237
0.986431
0.984444
0.982257
0.979849
0.977194
0.974274
0.971083
0.967644
0.964025
0.960365
0.956891
0.953915
0.951799
0.950871
0.951327
0.953072
0.955817
0.959198
0.962875
0.966584
0.970154
0.973489
0.976552
0.97934
0.981866
0.984153
0.986223
0.988098
0.989781
0.991279
0.992599
0.993751
0.994742
0.995581
0.996273
0.996822
0.997231
0.997499
0.997626
0.997607
0.997443
0.997138
0.996693
0.996108
0.995379
0.994501
0.993469
0.992275
0.99091
0.989365
0.987634
0.985709
0.983584
0.981237
0.978645
0.975787
0.972651
0.96925
0.965632
0.961911
0.958282
0.955031
0.952512
0.951078
0.950986
0.952248
0.954622
0.957761
0.96131
0.964977
0.968559
0.971938
0.97506
0.977909
0.980498
0.982847
0.98498
0.98692
0.988679
0.990261
0.991673
0.992921
0.994014
0.994957
0.995757
0.996419
0.996945
0.997337
0.997596
0.997718
0.997952
0.997805
0.997531
0.997133
0.996613
0.99597
0.995201
0.994304
0.993272
0.992102
0.990788
0.989327
0.987716
0.985957
0.984041
0.98196
0.979706
0.97728
0.974695
0.971988
0.969226
0.966521
0.964033
0.96196
0.96052
0.959904
0.960225
0.961428
0.963341
0.965752
0.968448
0.971253
0.974036
0.976712
0.979234
0.981582
0.983749
0.98574
0.987563
0.989228
0.990733
0.992081
0.993275
0.994321
0.995227
0.995996
0.996633
0.997141
0.997521
0.997772
0.99789
0.997872
0.997719
0.997435
0.997022
0.996481
0.99581
0.995006
0.994065
0.992981
0.991748
0.990361
0.988815
0.987109
0.985243
0.983206
0.980992
0.978598
0.976033
0.973323
0.970525
0.967734
0.965093
0.96279
0.961041
0.960054
0.959979
0.960824
0.962448
0.964649
0.967211
0.969944
0.972701
0.975381
0.977927
0.980309
0.982518
0.984556
0.98643
0.98815
0.989722
0.991145
0.992421
0.993554
0.99455
0.995414
0.99615
0.996761
0.997249
0.997614
0.997855
0.99797
0.998214
0.99808
0.997832
0.997474
0.997008
0.996435
0.995755
0.994967
0.994067
0.993054
0.991925
0.990679
0.989317
0.987845
0.98626
0.984562
0.982758
0.980857
0.978881
0.976867
0.974871
0.972973
0.971275
0.969896
0.968958
0.968566
0.968783
0.969576
0.970853
0.972493
0.974374
0.976386
0.978439
0.980469
0.98243
0.984296
0.986052
0.987691
0.989211
0.990613
0.991892
0.993047
0.994079
0.99499
0.995785
0.996465
0.997032
0.997486
0.997828
0.998055
0.998162
0.998146
0.998007
0.997751
0.99738
0.996896
0.9963
0.995591
0.994766
0.993824
0.992761
0.991574
0.990264
0.988831
0.98728
0.98561
0.983824
0.981931
0.979949
0.977908
0.975858
0.973871
0.972041
0.970483
0.969321
0.968669
0.968612
0.969154
0.970218
0.971691
0.973452
0.975384
0.977392
0.9794
0.981359
0.983237
0.985015
0.986683
0.98824
0.989683
0.991015
0.99223
0.993329
0.994312
0.995183
0.995943
0.996595
0.99714
0.997577
0.997907
0.998126
0.99823
0.998482
0.998365
0.998149
0.997838
0.997438
0.996949
0.996373
0.995712
0.994965
0.994132
0.993214
0.992212
0.991129
0.98997
0.988739
0.987441
0.986087
0.98469
0.983272
0.981863
0.980503
0.979243
0.978142
0.977268
0.976684
0.976444
0.976584
0.977084
0.977896
0.978958
0.980202
0.981565
0.982992
0.984439
0.985871
0.987263
0.988599
0.989867
0.991059
0.992171
0.993197
0.994134
0.994981
0.995737
0.996403
0.996978
0.997462
0.997853
0.998149
0.998346
0.998441
0.998426
0.998305
0.998082
0.997761
0.997345
0.996838
0.99624
0.995551
0.994771
0.993901
0.992941
0.991893
0.99076
0.989547
0.98826
0.986908
0.985503
0.984065
0.982619
0.981204
0.979866
0.978663
0.97766
0.976923
0.976512
0.976471
0.976805
0.97747
0.97841
0.979558
0.980849
0.982227
0.983641
0.985056
0.986444
0.987785
0.989066
0.99028
0.991419
0.992482
0.993462
0.994357
0.995168
0.995892
0.996531
0.997084
0.99755
0.997928
0.998214
0.998405
0.998496
0.998756
0.998658
0.998478
0.998221
0.997893
0.997497
0.997035
0.996511
0.995926
0.995283
0.994583
0.993829
0.993024
0.992172
0.99128
0.990355
0.989407
0.988449
0.987499
0.986575
0.985704
0.984915
0.98424
0.983713
0.983365
0.983225
0.983311
0.983611
0.984102
0.984753
0.98553
0.986399
0.98733
0.988295
0.989272
0.990242
0.99119
0.992106
0.99298
0.993804
0.994576
0.995289
0.995943
0.996534
0.997062
0.997523
0.997915
0.998236
0.99848
0.998644
0.998723
0.998711
0.99861
0.998425
0.99816
0.997821
0.99741
0.996932
0.996388
0.99578
0.995111
0.994382
0.993597
0.992759
0.991873
0.990948
0.989992
0.989019
0.988044
0.987085
0.986167
0.985319
0.984571
0.983959
0.983514
0.983267
0.983241
0.983437
0.983834
0.984402
0.98511
0.985924
0.986811
0.987744
0.988699
0.989655
0.990598
0.991516
0.992398
0.993238
0.99403
0.994771
0.995456
0.996084
0.996653
0.997161
0.997606
0.997985
0.998295
0.998532
0.998691
0.998768
0.999033
0.998955
0.998815
0.998617
0.998365
0.998065
0.99772
0.997333
0.996908
0.996448
0.995954
0.995431
0.994879
0.994301
0.993704
0.993096
0.992484
0.991877
0.991286
0.990724
0.990204
0.989741
0.989352
0.989053
0.988858
0.98878
0.988829
0.988999
0.989279
0.989654
0.990108
0.990625
0.99119
0.991787
0.992404
0.993028
0.99365
0.994261
0.994852
0.995417
0.995952
0.996455
0.996922
0.997352
0.997741
0.998086
0.998384
0.998629
0.998819
0.998947
0.999008
0.998999
0.99892
0.998775
0.998571
0.998312
0.998002
0.997645
0.997245
0.996805
0.996328
0.995817
0.995274
0.994702
0.994105
0.99349
0.992867
0.992243
0.99163
0.99104
0.990486
0.989984
0.989549
0.989197
0.988944
0.988805
0.988789
0.988898
0.989121
0.989445
0.989855
0.990334
0.990867
0.991438
0.992034
0.992643
0.993255
0.993861
0.994454
0.995025
0.99557
0.996086
0.996571
0.997022
0.997438
0.997814
0.998148
0.998436
0.998674
0.998857
0.998982
0.999042
0.999311
0.999256
0.999156
0.999017
0.998843
0.998637
0.998405
0.998148
0.997871
0.997575
0.997263
0.996937
0.996599
0.996247
0.995889
0.995529
0.995173
0.994826
0.994495
0.994184
0.993902
0.993655
0.99345
0.993294
0.993193
0.993153
0.993179
0.993267
0.993413
0.993611
0.993853
0.994133
0.994444
0.994778
0.99513
0.995492
0.995859
0.996225
0.996584
0.996931
0.997263
0.997581
0.997881
0.998162
0.99842
0.998653
0.998857
0.999027
0.99916
0.99925
0.999294
0.999287
0.999231
0.999129
0.998986
0.998807
0.998595
0.998356
0.998091
0.997805
0.9975
0.997178
0.996842
0.996492
0.99613
0.995763
0.995397
0.995037
0.99469
0.994361
0.994058
0.993786
0.993555
0.99337
0.993238
0.993166
0.993157
0.993213
0.993329
0.993499
0.993715
0.993972
0.994263
0.994579
0.994915
0.995265
0.995623
0.995982
0.996339
0.996688
0.997023
0.997346
0.997653
0.997945
0.998217
0.998468
0.998694
0.998892
0.999057
0.999186
0.999274
0.999317
0.999588
0.999555
0.999497
0.999416
0.999316
0.9992
0.99907
0.99893
0.99878
0.998624
0.998462
0.998296
0.998125
0.997948
0.99777
0.997593
0.997421
0.997256
0.9971
0.996957
0.996828
0.996717
0.996626
0.996557
0.996512
0.996495
0.996506
0.996545
0.99661
0.996698
0.996807
0.996934
0.997078
0.997234
0.997401
0.997575
0.997755
0.997937
0.998118
0.998293
0.998463
0.998627
0.998786
0.998937
0.999079
0.999209
0.999324
0.999422
0.999499
0.999552
0.999578
0.999574
0.999541
0.999481
0.999399
0.999296
0.999177
0.999043
0.998899
0.998746
0.998585
0.998419
0.998248
0.998071
0.99789
0.997708
0.99753
0.997357
0.997192
0.997039
0.9969
0.996777
0.996673
0.996591
0.996533
0.996501
0.996497
0.996521
0.996572
0.996647
0.996744
0.99686
0.996993
0.99714
0.997298
0.997465
0.997639
0.997816
0.997994
0.998169
0.998339
0.998505
0.998665
0.99882
0.998967
0.999105
0.999232
0.999344
0.999439
0.999515
0.999566
0.999592
0.999863
0.999852
0.999833
0.999807
0.999776
0.99974
0.9997
0.999658
0.999614
0.999569
0.999524
0.999477
0.99943
0.999381
0.999332
0.999284
0.999237
0.999193
0.999152
0.999115
0.999082
0.999053
0.99903
0.999013
0.999002
0.998998
0.999
0.99901
0.999026
0.999049
0.999076
0.999109
0.999146
0.999188
0.999232
0.999279
0.999328
0.999378
0.999429
0.999477
0.999524
0.99957
0.999616
0.999661
0.999703
0.999743
0.999778
0.999809
0.999834
0.999851
0.99986
0.999858
0.999848
0.999828
0.999802
0.99977
0.999733
0.999692
0.999649
0.999604
0.999558
0.999512
0.999464
0.999416
0.999365
0.999315
0.999267
0.99922
0.999177
0.999136
0.9991
0.999069
0.999042
0.999022
0.999007
0.998999
0.998998
0.999004
0.999017
0.999036
0.99906
0.99909
0.999124
0.999163
0.999205
0.999249
0.999296
0.999345
0.999394
0.999443
0.999489
0.999536
0.999581
0.999626
0.999669
0.999711
0.99975
0.999785
0.999815
0.999839
0.999856
0.999864
)
;

boundaryField
{
    top
    {
        type            calculated;
        value           uniform 1;
    }
    bottom
    {
        type            calculated;
        value           uniform 0.148957;
    }
    frontAndBack
    {
        type            empty;
    }
    left_cyc
    {
        type            cyclic;
    }
    right_cyc
    {
        type            cyclic;
    }
}


// ************************************************************************* //
