/*--------------------------------*- C++ -*----------------------------------*\
| =========                 |                                                 |
| \\      /  F ield         | OpenFOAM: The Open Source CFD Toolbox           |
|  \\    /   O peration     | Version:  2.3.0                                 |
|   \\  /    A nd           | Web:      www.OpenFOAM.org                      |
|    \\/     M anipulation  |                                                 |
\*---------------------------------------------------------------------------*/
FoamFile
{
    version     2.0;
    format      ascii;
    class       volScalarField;
    location    "7000";
    object      p;
}
// * * * * * * * * * * * * * * * * * * * * * * * * * * * * * * * * * * * * * //

dimensions      [0 2 -2 0 0 0 0];

internalField   nonuniform List<scalar> 
3060
(
0
-3.03597e-05
-8.72651e-05
-0.000170259
-0.000278867
-0.000412712
-0.000571542
-0.000755093
-0.000962801
-0.00119348
-0.00144504
-0.00171435
-0.00199697
-0.00228693
-0.00257648
-0.00285614
-0.00311612
-0.00334741
-0.00354219
-0.00369612
-0.00381044
-0.00388951
-0.00394025
-0.00397031
-0.00398607
-0.00399166
-0.00398875
-0.00397667
-0.00395239
-0.00391043
-0.00384348
-0.00374395
-0.00360624
-0.00342744
-0.00320945
-0.00295904
-0.00268513
-0.00239779
-0.00210717
-0.0018221
-0.0015494
-0.00129426
-0.00106038
-0.000850258
-0.000665389
-0.000506518
-0.00037398
-0.000268014
-0.000188923
-0.000137087
-0.000112862
-0.000116468
-0.000147865
-0.000206789
-0.000292868
-0.000405736
-0.000545112
-0.000710756
-0.000902259
-0.00111871
-0.00135839
-0.00161849
-0.00189495
-0.00218218
-0.00247289
-0.00275776
-0.0030265
-0.00326931
-0.00347765
-0.00364573
-0.00377316
-0.00386358
-0.0039233
-0.00396002
-0.00398071
-0.00399022
-0.00399096
-0.00398299
-0.00396401
-0.00392927
-0.00387192
-0.00378428
-0.00366
-0.00349536
-0.00329049
-0.00305093
-0.00278493
-0.00250176
-0.00221125
-0.00192253
-0.00164286
-0.00137778
-0.00113138
-0.000906509
-0.000704992
-0.00052783
-0.000375475
-0.000248165
-0.000146179
-6.99248e-05
-1.98863e-05
3.50569e-06
-0.326612
-0.326638
-0.326687
-0.326758
-0.326852
-0.326969
-0.327108
-0.32727
-0.327453
-0.327656
-0.327877
-0.328112
-0.328357
-0.328605
-0.32885
-0.329086
-0.329312
-0.329521
-0.329701
-0.329843
-0.329948
-0.330021
-0.330068
-0.330097
-0.330112
-0.330118
-0.330115
-0.330103
-0.33008
-0.330041
-0.329979
-0.329888
-0.329761
-0.329596
-0.329397
-0.329177
-0.328945
-0.328704
-0.328457
-0.328212
-0.327975
-0.327752
-0.327547
-0.327362
-0.3272
-0.32706
-0.326945
-0.326853
-0.326785
-0.326741
-0.32672
-0.326723
-0.32675
-0.3268
-0.326874
-0.326972
-0.327094
-0.32724
-0.327408
-0.327598
-0.327808
-0.328035
-0.328275
-0.328521
-0.328767
-0.329006
-0.329235
-0.329451
-0.329642
-0.329798
-0.329914
-0.329997
-0.330052
-0.330087
-0.330107
-0.330116
-0.330117
-0.330109
-0.330091
-0.330058
-0.330004
-0.329924
-0.32981
-0.329657
-0.329468
-0.329254
-0.329026
-0.328787
-0.328541
-0.328293
-0.32805
-0.327818
-0.327602
-0.327404
-0.327226
-0.32707
-0.326936
-0.326825
-0.326737
-0.326672
-0.326629
-0.326609
-0.653309
-0.653334
-0.653381
-0.65345
-0.65354
-0.65365
-0.653778
-0.653923
-0.654081
-0.654251
-0.654432
-0.654621
-0.654818
-0.655021
-0.65523
-0.655437
-0.655632
-0.655802
-0.655941
-0.656055
-0.656144
-0.656205
-0.656242
-0.656263
-0.656274
-0.656277
-0.656275
-0.656267
-0.65625
-0.656221
-0.656171
-0.656094
-0.65599
-0.655862
-0.655706
-0.655522
-0.655319
-0.655113
-0.65491
-0.654713
-0.654525
-0.654345
-0.654175
-0.654017
-0.653874
-0.653748
-0.65364
-0.653553
-0.653487
-0.653444
-0.653424
-0.653427
-0.653453
-0.653502
-0.653573
-0.653666
-0.653779
-0.65391
-0.654057
-0.654218
-0.65439
-0.654573
-0.654763
-0.654962
-0.655166
-0.655373
-0.655572
-0.65575
-0.655898
-0.656019
-0.656116
-0.656186
-0.65623
-0.656256
-0.65627
-0.656276
-0.656277
-0.656271
-0.656258
-0.656234
-0.656192
-0.656124
-0.656028
-0.655908
-0.655761
-0.655584
-0.655384
-0.655175
-0.654968
-0.654766
-0.654571
-0.654384
-0.654206
-0.654039
-0.653884
-0.653743
-0.65362
-0.653515
-0.65343
-0.653367
-0.653325
-0.653306
-0.979835
-0.97986
-0.979906
-0.979973
-0.980059
-0.980164
-0.980285
-0.98042
-0.980567
-0.980723
-0.980886
-0.981054
-0.981225
-0.981398
-0.981574
-0.981747
-0.981911
-0.982061
-0.982192
-0.982295
-0.982364
-0.98241
-0.982436
-0.982447
-0.982451
-0.982452
-0.982451
-0.982448
-0.98244
-0.982422
-0.982384
-0.982327
-0.982241
-0.982122
-0.98198
-0.981824
-0.981656
-0.981483
-0.981311
-0.981141
-0.980976
-0.980815
-0.980661
-0.980515
-0.980381
-0.980262
-0.98016
-0.980076
-0.980013
-0.979971
-0.979952
-0.979955
-0.97998
-0.980027
-0.980096
-0.980184
-0.980291
-0.980415
-0.980552
-0.9807
-0.980856
-0.981018
-0.981185
-0.981355
-0.981528
-0.9817
-0.981866
-0.982019
-0.982155
-0.982267
-0.982344
-0.982396
-0.982428
-0.982443
-0.982449
-0.982452
-0.982452
-0.98245
-0.982445
-0.982431
-0.9824
-0.982348
-0.982272
-0.98216
-0.982023
-0.981869
-0.981703
-0.981528
-0.981353
-0.98118
-0.98101
-0.980843
-0.980682
-0.980528
-0.980384
-0.980252
-0.980135
-0.980035
-0.979953
-0.979892
-0.979851
-0.979833
-1.30636
-1.30638
-1.30642
-1.30648
-1.30656
-1.30666
-1.30676
-1.30689
-1.30702
-1.30716
-1.30731
-1.30746
-1.30761
-1.30777
-1.30792
-1.30807
-1.3082
-1.30832
-1.30843
-1.30853
-1.3086
-1.30863
-1.30864
-1.30864
-1.30864
-1.30864
-1.30864
-1.30864
-1.30864
-1.30864
-1.30861
-1.30857
-1.30848
-1.30838
-1.30826
-1.30813
-1.30799
-1.30784
-1.30769
-1.30754
-1.30739
-1.30724
-1.3071
-1.30697
-1.30685
-1.30675
-1.30666
-1.30658
-1.30652
-1.30649
-1.30647
-1.30647
-1.3065
-1.30654
-1.3066
-1.30668
-1.30677
-1.30688
-1.30701
-1.30714
-1.30728
-1.30743
-1.30758
-1.30773
-1.30788
-1.30803
-1.30817
-1.30829
-1.3084
-1.30851
-1.30858
-1.30862
-1.30864
-1.30864
-1.30864
-1.30864
-1.30864
-1.30864
-1.30864
-1.30864
-1.30862
-1.30858
-1.30851
-1.3084
-1.30829
-1.30817
-1.30803
-1.30788
-1.30773
-1.30757
-1.30742
-1.30727
-1.30712
-1.30698
-1.30685
-1.30673
-1.30663
-1.30654
-1.30647
-1.30641
-1.30638
-1.30636
-1.63294
-1.63296
-1.633
-1.63305
-1.63312
-1.63321
-1.63331
-1.63342
-1.63353
-1.63366
-1.63379
-1.63392
-1.63406
-1.63419
-1.63432
-1.63445
-1.63456
-1.63466
-1.63474
-1.63481
-1.63486
-1.63487
-1.63487
-1.63485
-1.63484
-1.63483
-1.63483
-1.63484
-1.63486
-1.63487
-1.63487
-1.63484
-1.63478
-1.6347
-1.63461
-1.63451
-1.63439
-1.63426
-1.63413
-1.634
-1.63386
-1.63374
-1.63361
-1.6335
-1.63339
-1.63329
-1.63321
-1.63314
-1.63309
-1.63306
-1.63304
-1.63305
-1.63307
-1.63311
-1.63316
-1.63323
-1.63332
-1.63342
-1.63352
-1.63364
-1.63377
-1.6339
-1.63403
-1.63416
-1.63429
-1.63442
-1.63453
-1.63464
-1.63473
-1.6348
-1.63485
-1.63487
-1.63487
-1.63485
-1.63484
-1.63483
-1.63483
-1.63484
-1.63485
-1.63487
-1.63487
-1.63485
-1.63479
-1.63472
-1.63464
-1.63453
-1.63442
-1.63429
-1.63416
-1.63402
-1.63389
-1.63375
-1.63363
-1.6335
-1.63339
-1.63328
-1.63319
-1.6331
-1.63304
-1.63299
-1.63296
-1.63294
-1.95956
-1.95957
-1.95961
-1.95966
-1.95972
-1.95979
-1.95988
-1.95998
-1.96008
-1.96019
-1.96031
-1.96042
-1.96054
-1.96066
-1.96077
-1.96087
-1.96096
-1.96105
-1.96111
-1.96116
-1.96118
-1.96117
-1.96113
-1.96109
-1.96105
-1.96104
-1.96105
-1.96107
-1.96111
-1.96116
-1.96118
-1.96118
-1.96114
-1.96108
-1.96101
-1.96092
-1.96082
-1.96071
-1.9606
-1.96049
-1.96037
-1.96026
-1.96015
-1.96005
-1.95996
-1.95987
-1.9598
-1.95974
-1.95969
-1.95966
-1.95965
-1.95965
-1.95967
-1.9597
-1.95975
-1.95982
-1.95989
-1.95998
-1.96008
-1.96018
-1.96029
-1.9604
-1.96052
-1.96063
-1.96074
-1.96085
-1.96094
-1.96103
-1.9611
-1.96115
-1.96118
-1.96118
-1.96115
-1.9611
-1.96106
-1.96104
-1.96104
-1.96106
-1.9611
-1.96114
-1.96118
-1.96118
-1.96115
-1.9611
-1.96103
-1.96094
-1.96084
-1.96074
-1.96063
-1.96051
-1.96039
-1.96028
-1.96016
-1.96005
-1.95995
-1.95986
-1.95977
-1.9597
-1.95964
-1.9596
-1.95957
-1.95955
-2.28619
-2.28621
-2.28624
-2.28628
-2.28634
-2.28641
-2.28648
-2.28657
-2.28666
-2.28676
-2.28686
-2.28696
-2.28706
-2.28715
-2.28725
-2.28733
-2.28741
-2.28747
-2.28752
-2.28755
-2.28756
-2.28753
-2.28746
-2.28738
-2.28732
-2.2873
-2.28731
-2.28735
-2.28743
-2.28751
-2.28755
-2.28756
-2.28754
-2.2875
-2.28744
-2.28737
-2.28729
-2.2872
-2.28711
-2.28701
-2.28692
-2.28682
-2.28672
-2.28663
-2.28655
-2.28648
-2.28641
-2.28636
-2.28632
-2.28629
-2.28628
-2.28628
-2.2863
-2.28633
-2.28637
-2.28643
-2.28649
-2.28657
-2.28666
-2.28675
-2.28684
-2.28694
-2.28704
-2.28713
-2.28723
-2.28731
-2.28739
-2.28746
-2.28751
-2.28755
-2.28756
-2.28755
-2.28749
-2.28741
-2.28734
-2.2873
-2.2873
-2.28733
-2.2874
-2.28749
-2.28754
-2.28756
-2.28754
-2.28751
-2.28745
-2.28739
-2.28731
-2.28722
-2.28713
-2.28703
-2.28693
-2.28683
-2.28673
-2.28664
-2.28655
-2.28646
-2.28639
-2.28632
-2.28627
-2.28623
-2.2862
-2.28619
-2.61285
-2.61286
-2.61289
-2.61293
-2.61298
-2.61304
-2.61311
-2.61318
-2.61326
-2.61335
-2.61343
-2.61352
-2.6136
-2.61368
-2.61375
-2.61382
-2.61388
-2.61393
-2.61396
-2.61397
-2.61397
-2.61394
-2.61387
-2.61376
-2.61368
-2.61364
-2.61365
-2.61372
-2.61382
-2.61391
-2.61396
-2.61398
-2.61397
-2.61395
-2.61391
-2.61385
-2.61379
-2.61372
-2.61364
-2.61356
-2.61348
-2.6134
-2.61331
-2.61324
-2.61316
-2.6131
-2.61304
-2.61299
-2.61296
-2.61293
-2.61292
-2.61292
-2.61294
-2.61296
-2.613
-2.61305
-2.61311
-2.61318
-2.61326
-2.61334
-2.61342
-2.6135
-2.61358
-2.61366
-2.61374
-2.61381
-2.61387
-2.61392
-2.61395
-2.61397
-2.61398
-2.61395
-2.61389
-2.6138
-2.6137
-2.61364
-2.61364
-2.6137
-2.61379
-2.61389
-2.61395
-2.61397
-2.61397
-2.61395
-2.61392
-2.61387
-2.6138
-2.61374
-2.61366
-2.61358
-2.61349
-2.61341
-2.61332
-2.61324
-2.61316
-2.61309
-2.61302
-2.61296
-2.61292
-2.61288
-2.61286
-2.61285
-2.93951
-2.93952
-2.93955
-2.93958
-2.93963
-2.93968
-2.93974
-2.93981
-2.93988
-2.93995
-2.94002
-2.94009
-2.94016
-2.94022
-2.94028
-2.94034
-2.94038
-2.94041
-2.94043
-2.94043
-2.94042
-2.94038
-2.94031
-2.94022
-2.94013
-2.94008
-2.9401
-2.94018
-2.94028
-2.94036
-2.94041
-2.94043
-2.94043
-2.94042
-2.9404
-2.94036
-2.94031
-2.94026
-2.94019
-2.94013
-2.94006
-2.93999
-2.93992
-2.93985
-2.93979
-2.93973
-2.93968
-2.93964
-2.93961
-2.93959
-2.93958
-2.93958
-2.93959
-2.93961
-2.93965
-2.93969
-2.93975
-2.93981
-2.93987
-2.93994
-2.94001
-2.94008
-2.94015
-2.94021
-2.94027
-2.94032
-2.94037
-2.9404
-2.94043
-2.94043
-2.94043
-2.9404
-2.94034
-2.94025
-2.94015
-2.94009
-2.94009
-2.94015
-2.94025
-2.94033
-2.94039
-2.94042
-2.94043
-2.94042
-2.9404
-2.94037
-2.94032
-2.94027
-2.94021
-2.94014
-2.94007
-2.94
-2.93993
-2.93986
-2.93979
-2.93973
-2.93967
-2.93962
-2.93957
-2.93954
-2.93952
-2.93951
-3.26618
-3.26619
-3.26622
-3.26625
-3.26629
-3.26633
-3.26638
-3.26644
-3.2665
-3.26656
-3.26662
-3.26668
-3.26673
-3.26678
-3.26683
-3.26687
-3.2669
-3.26691
-3.26692
-3.26691
-3.26689
-3.26685
-3.2668
-3.26672
-3.26665
-3.2666
-3.26662
-3.26669
-3.26677
-3.26683
-3.26688
-3.26691
-3.26692
-3.26692
-3.26691
-3.26688
-3.26685
-3.26681
-3.26676
-3.26671
-3.26665
-3.26659
-3.26654
-3.26648
-3.26642
-3.26637
-3.26633
-3.26629
-3.26626
-3.26625
-3.26624
-3.26624
-3.26625
-3.26627
-3.2663
-3.26634
-3.26639
-3.26644
-3.26649
-3.26655
-3.26661
-3.26667
-3.26672
-3.26677
-3.26682
-3.26686
-3.26689
-3.26691
-3.26692
-3.26692
-3.2669
-3.26687
-3.26682
-3.26675
-3.26667
-3.26661
-3.26661
-3.26666
-3.26674
-3.26681
-3.26687
-3.2669
-3.26692
-3.26692
-3.26691
-3.26689
-3.26686
-3.26682
-3.26677
-3.26672
-3.26666
-3.26661
-3.26655
-3.26648
-3.26643
-3.26637
-3.26632
-3.26627
-3.26624
-3.26621
-3.26619
-3.26618
-3.59286
-3.59287
-3.59289
-3.59291
-3.59295
-3.59299
-3.59303
-3.59308
-3.59313
-3.59318
-3.59323
-3.59327
-3.59332
-3.59335
-3.59339
-3.59341
-3.59343
-3.59343
-3.59343
-3.59342
-3.59339
-3.59335
-3.5933
-3.59324
-3.59319
-3.59316
-3.59317
-3.59322
-3.59328
-3.59333
-3.59338
-3.59341
-3.59343
-3.59343
-3.59343
-3.59342
-3.5934
-3.59337
-3.59333
-3.59329
-3.59325
-3.5932
-3.59316
-3.59311
-3.59306
-3.59302
-3.59298
-3.59295
-3.59292
-3.59291
-3.5929
-3.5929
-3.59291
-3.59293
-3.59296
-3.59299
-3.59303
-3.59307
-3.59312
-3.59317
-3.59322
-3.59326
-3.59331
-3.59334
-3.59338
-3.5934
-3.59342
-3.59343
-3.59343
-3.59342
-3.5934
-3.59337
-3.59332
-3.59326
-3.5932
-3.59316
-3.59316
-3.5932
-3.59326
-3.59332
-3.59336
-3.5934
-3.59342
-3.59343
-3.59343
-3.59342
-3.59341
-3.59338
-3.59335
-3.59331
-3.59326
-3.59322
-3.59317
-3.59312
-3.59307
-3.59302
-3.59298
-3.59294
-3.5929
-3.59288
-3.59286
-3.59285
-3.91953
-3.91954
-3.91956
-3.91958
-3.91961
-3.91964
-3.91968
-3.91972
-3.91976
-3.9198
-3.91984
-3.91987
-3.91991
-3.91993
-3.91995
-3.91996
-3.91997
-3.91997
-3.91996
-3.91994
-3.91991
-3.91987
-3.91982
-3.91978
-3.91974
-3.91971
-3.91972
-3.91976
-3.9198
-3.91985
-3.91989
-3.91992
-3.91995
-3.91996
-3.91997
-3.91997
-3.91996
-3.91994
-3.91992
-3.91989
-3.91985
-3.91982
-3.91978
-3.91974
-3.9197
-3.91967
-3.91964
-3.91961
-3.91959
-3.91957
-3.91957
-3.91957
-3.91958
-3.91959
-3.91961
-3.91964
-3.91968
-3.91971
-3.91975
-3.91979
-3.91983
-3.91986
-3.91989
-3.91992
-3.91994
-3.91996
-3.91997
-3.91997
-3.91996
-3.91994
-3.91992
-3.91988
-3.91984
-3.91979
-3.91975
-3.91972
-3.91972
-3.91974
-3.91979
-3.91984
-3.91988
-3.91991
-3.91994
-3.91996
-3.91997
-3.91997
-3.91996
-3.91995
-3.91993
-3.9199
-3.91987
-3.91983
-3.91979
-3.91975
-3.91971
-3.91967
-3.91963
-3.9196
-3.91957
-3.91955
-3.91954
-3.91953
-4.24621
-4.24622
-4.24623
-4.24625
-4.24627
-4.2463
-4.24633
-4.24636
-4.24639
-4.24642
-4.24645
-4.24648
-4.2465
-4.24651
-4.24652
-4.24652
-4.24652
-4.24651
-4.24649
-4.24646
-4.24643
-4.2464
-4.24636
-4.24632
-4.24629
-4.24627
-4.24628
-4.2463
-4.24634
-4.24638
-4.24642
-4.24645
-4.24648
-4.2465
-4.24651
-4.24652
-4.24652
-4.24651
-4.2465
-4.24648
-4.24646
-4.24643
-4.2464
-4.24637
-4.24635
-4.24632
-4.24629
-4.24627
-4.24625
-4.24624
-4.24623
-4.24623
-4.24624
-4.24626
-4.24627
-4.2463
-4.24632
-4.24635
-4.24638
-4.24641
-4.24644
-4.24647
-4.24649
-4.2465
-4.24652
-4.24652
-4.24652
-4.24651
-4.24649
-4.24647
-4.24644
-4.24641
-4.24637
-4.24633
-4.24629
-4.24627
-4.24627
-4.24629
-4.24633
-4.24637
-4.24641
-4.24644
-4.24647
-4.24649
-4.24651
-4.24652
-4.24652
-4.24652
-4.24651
-4.24649
-4.24647
-4.24645
-4.24642
-4.24639
-4.24635
-4.24632
-4.24629
-4.24627
-4.24624
-4.24623
-4.24621
-4.24621
-4.57289
-4.57289
-4.5729
-4.57292
-4.57294
-4.57296
-4.57298
-4.573
-4.57303
-4.57305
-4.57307
-4.57308
-4.57309
-4.57309
-4.57309
-4.57309
-4.57307
-4.57305
-4.57303
-4.573
-4.57297
-4.57293
-4.57289
-4.57286
-4.57284
-4.57282
-4.57283
-4.57285
-4.57288
-4.57291
-4.57295
-4.57298
-4.57301
-4.57304
-4.57306
-4.57308
-4.57309
-4.57309
-4.57309
-4.57308
-4.57307
-4.57305
-4.57303
-4.57301
-4.57299
-4.57297
-4.57295
-4.57293
-4.57292
-4.57291
-4.5729
-4.5729
-4.57291
-4.57292
-4.57293
-4.57295
-4.57297
-4.57299
-4.57302
-4.57304
-4.57305
-4.57307
-4.57308
-4.57309
-4.57309
-4.57308
-4.57307
-4.57306
-4.57303
-4.57301
-4.57297
-4.57294
-4.5729
-4.57287
-4.57284
-4.57283
-4.57282
-4.57284
-4.57287
-4.5729
-4.57294
-4.57297
-4.57301
-4.57304
-4.57306
-4.57308
-4.57309
-4.57309
-4.57309
-4.57309
-4.57308
-4.57306
-4.57304
-4.57302
-4.573
-4.57298
-4.57295
-4.57293
-4.57291
-4.5729
-4.57289
-4.57289
-4.89957
-4.89957
-4.89958
-4.89959
-4.8996
-4.89962
-4.89963
-4.89965
-4.89966
-4.89967
-4.89968
-4.89968
-4.89968
-4.89968
-4.89967
-4.89965
-4.89963
-4.8996
-4.89957
-4.89954
-4.8995
-4.89947
-4.89943
-4.8994
-4.89938
-4.89937
-4.89938
-4.89939
-4.89942
-4.89945
-4.89949
-4.89952
-4.89956
-4.89959
-4.89961
-4.89964
-4.89965
-4.89967
-4.89967
-4.89968
-4.89967
-4.89967
-4.89966
-4.89965
-4.89963
-4.89962
-4.89961
-4.89959
-4.89958
-4.89958
-4.89958
-4.89958
-4.89958
-4.89959
-4.8996
-4.89961
-4.89962
-4.89964
-4.89965
-4.89966
-4.89967
-4.89967
-4.89968
-4.89967
-4.89966
-4.89965
-4.89963
-4.89961
-4.89958
-4.89955
-4.89951
-4.89948
-4.89944
-4.89941
-4.89939
-4.89937
-4.89937
-4.89939
-4.89941
-4.89944
-4.89948
-4.89951
-4.89955
-4.89958
-4.89961
-4.89964
-4.89966
-4.89967
-4.89968
-4.89968
-4.89968
-4.89968
-4.89967
-4.89966
-4.89964
-4.89963
-4.89961
-4.8996
-4.89959
-4.89958
-4.89957
-4.89957
-5.22625
-5.22626
-5.22626
-5.22627
-5.22627
-5.22628
-5.22628
-5.22629
-5.22629
-5.22629
-5.22629
-5.22629
-5.22628
-5.22626
-5.22624
-5.22622
-5.22619
-5.22615
-5.22612
-5.22608
-5.22604
-5.22601
-5.22597
-5.22595
-5.22593
-5.22592
-5.22592
-5.22594
-5.22596
-5.22599
-5.22603
-5.22606
-5.2261
-5.22614
-5.22617
-5.2262
-5.22622
-5.22625
-5.22626
-5.22627
-5.22628
-5.22628
-5.22629
-5.22628
-5.22628
-5.22627
-5.22627
-5.22626
-5.22626
-5.22625
-5.22625
-5.22625
-5.22625
-5.22626
-5.22626
-5.22627
-5.22627
-5.22628
-5.22628
-5.22629
-5.22628
-5.22628
-5.22627
-5.22626
-5.22624
-5.22622
-5.22619
-5.22616
-5.22613
-5.22609
-5.22605
-5.22602
-5.22598
-5.22595
-5.22593
-5.22592
-5.22592
-5.22593
-5.22595
-5.22598
-5.22602
-5.22605
-5.22609
-5.22613
-5.22616
-5.2262
-5.22622
-5.22625
-5.22626
-5.22628
-5.22629
-5.22629
-5.22629
-5.22629
-5.22629
-5.22628
-5.22628
-5.22627
-5.22626
-5.22626
-5.22625
-5.22625
-5.55294
-5.55294
-5.55294
-5.55294
-5.55294
-5.55294
-5.55294
-5.55294
-5.55293
-5.55292
-5.55291
-5.55289
-5.55287
-5.55284
-5.55282
-5.55278
-5.55275
-5.55271
-5.55267
-5.55263
-5.55259
-5.55255
-5.55252
-5.55249
-5.55247
-5.55246
-5.55247
-5.55248
-5.5525
-5.55253
-5.55257
-5.55261
-5.55265
-5.55269
-5.55273
-5.55276
-5.5528
-5.55283
-5.55285
-5.55287
-5.55289
-5.55291
-5.55292
-5.55292
-5.55293
-5.55293
-5.55293
-5.55293
-5.55293
-5.55293
-5.55293
-5.55293
-5.55293
-5.55293
-5.55293
-5.55293
-5.55293
-5.55293
-5.55292
-5.55291
-5.5529
-5.55289
-5.55287
-5.55285
-5.55282
-5.55279
-5.55275
-5.55272
-5.55268
-5.55264
-5.5526
-5.55256
-5.55252
-5.5525
-5.55248
-5.55247
-5.55247
-5.55248
-5.5525
-5.55252
-5.55256
-5.5526
-5.55264
-5.55268
-5.55272
-5.55276
-5.55279
-5.55282
-5.55285
-5.55287
-5.55289
-5.55291
-5.55292
-5.55293
-5.55294
-5.55294
-5.55294
-5.55294
-5.55294
-5.55294
-5.55294
-5.55294
-5.87964
-5.87964
-5.87964
-5.87963
-5.87962
-5.87961
-5.8796
-5.87959
-5.87957
-5.87955
-5.87952
-5.8795
-5.87946
-5.87943
-5.87939
-5.87935
-5.87931
-5.87926
-5.87922
-5.87917
-5.87913
-5.87909
-5.87906
-5.87903
-5.87902
-5.87901
-5.87901
-5.87902
-5.87904
-5.87907
-5.87911
-5.87915
-5.8792
-5.87924
-5.87928
-5.87933
-5.87937
-5.87941
-5.87944
-5.87948
-5.8795
-5.87953
-5.87955
-5.87957
-5.87958
-5.8796
-5.87961
-5.87961
-5.87962
-5.87962
-5.87962
-5.87962
-5.87962
-5.87962
-5.87961
-5.8796
-5.87959
-5.87958
-5.87956
-5.87955
-5.87952
-5.8795
-5.87947
-5.87943
-5.8794
-5.87936
-5.87932
-5.87927
-5.87923
-5.87918
-5.87914
-5.8791
-5.87907
-5.87904
-5.87902
-5.87901
-5.87901
-5.87902
-5.87904
-5.87907
-5.8791
-5.87914
-5.87918
-5.87923
-5.87927
-5.87932
-5.87936
-5.8794
-5.87944
-5.87947
-5.8795
-5.87953
-5.87955
-5.87957
-5.87959
-5.8796
-5.87962
-5.87962
-5.87963
-5.87964
-5.87964
-5.87964
-6.20635
-6.20634
-6.20634
-6.20632
-6.20631
-6.20629
-6.20627
-6.20624
-6.20621
-6.20618
-6.20614
-6.20611
-6.20606
-6.20602
-6.20597
-6.20592
-6.20587
-6.20582
-6.20577
-6.20572
-6.20568
-6.20563
-6.2056
-6.20557
-6.20556
-6.20555
-6.20555
-6.20557
-6.20559
-6.20562
-6.20566
-6.2057
-6.20575
-6.2058
-6.20585
-6.2059
-6.20595
-6.20599
-6.20604
-6.20608
-6.20612
-6.20616
-6.20619
-6.20622
-6.20625
-6.20627
-6.20629
-6.2063
-6.20631
-6.20632
-6.20632
-6.20632
-6.20632
-6.20631
-6.2063
-6.20628
-6.20626
-6.20624
-6.20621
-6.20618
-6.20615
-6.20611
-6.20607
-6.20603
-6.20598
-6.20593
-6.20588
-6.20583
-6.20578
-6.20573
-6.20569
-6.20565
-6.20561
-6.20558
-6.20556
-6.20555
-6.20555
-6.20556
-6.20558
-6.20561
-6.20564
-6.20569
-6.20573
-6.20578
-6.20583
-6.20588
-6.20593
-6.20598
-6.20603
-6.20607
-6.20612
-6.20615
-6.20619
-6.20622
-6.20625
-6.20627
-6.2063
-6.20631
-6.20633
-6.20634
-6.20635
-6.20635
-6.53307
-6.53306
-6.53305
-6.53303
-6.53301
-6.53298
-6.53295
-6.53291
-6.53287
-6.53282
-6.53277
-6.53272
-6.53267
-6.53261
-6.53256
-6.5325
-6.53244
-6.53238
-6.53233
-6.53227
-6.53223
-6.53218
-6.53215
-6.53212
-6.5321
-6.5321
-6.5321
-6.53211
-6.53213
-6.53217
-6.53221
-6.53225
-6.5323
-6.53236
-6.53241
-6.53247
-6.53253
-6.53259
-6.53264
-6.5327
-6.53275
-6.5328
-6.53284
-6.53288
-6.53292
-6.53295
-6.53298
-6.533
-6.53302
-6.53303
-6.53304
-6.53304
-6.53303
-6.53302
-6.533
-6.53298
-6.53295
-6.53291
-6.53287
-6.53283
-6.53279
-6.53274
-6.53268
-6.53263
-6.53257
-6.53252
-6.53246
-6.5324
-6.53234
-6.53229
-6.53224
-6.53219
-6.53216
-6.53213
-6.53211
-6.5321
-6.5321
-6.53211
-6.53213
-6.53216
-6.53219
-6.53224
-6.53229
-6.53234
-6.5324
-6.53246
-6.53251
-6.53257
-6.53263
-6.53268
-6.53274
-6.53279
-6.53283
-6.53288
-6.53292
-6.53296
-6.53299
-6.53301
-6.53304
-6.53305
-6.53306
-6.53307
-6.8598
-6.85979
-6.85978
-6.85975
-6.85972
-6.85968
-6.85964
-6.85959
-6.85954
-6.85948
-6.85942
-6.85935
-6.85929
-6.85922
-6.85915
-6.85908
-6.85902
-6.85895
-6.85889
-6.85883
-6.85878
-6.85874
-6.8587
-6.85867
-6.85865
-6.85865
-6.85865
-6.85866
-6.85869
-6.85872
-6.85876
-6.85881
-6.85887
-6.85893
-6.85899
-6.85906
-6.85912
-6.85919
-6.85926
-6.85932
-6.85939
-6.85945
-6.85951
-6.85956
-6.85961
-6.85965
-6.85969
-6.85972
-6.85975
-6.85976
-6.85977
-6.85977
-6.85976
-6.85974
-6.85972
-6.85968
-6.85964
-6.8596
-6.85955
-6.85949
-6.85943
-6.85937
-6.85931
-6.85924
-6.85917
-6.85911
-6.85904
-6.85897
-6.85891
-6.85885
-6.8588
-6.85875
-6.85871
-6.85868
-6.85866
-6.85865
-6.85865
-6.85866
-6.85868
-6.85871
-6.85875
-6.85879
-6.85885
-6.85891
-6.85897
-6.85903
-6.8591
-6.85917
-6.85924
-6.8593
-6.85937
-6.85943
-6.85949
-6.85955
-6.8596
-6.85965
-6.85969
-6.85973
-6.85976
-6.85978
-6.8598
-6.8598
-7.18656
-7.18655
-7.18652
-7.18649
-7.18645
-7.1864
-7.18635
-7.18629
-7.18622
-7.18615
-7.18607
-7.186
-7.18592
-7.18584
-7.18576
-7.18568
-7.18561
-7.18554
-7.18547
-7.18541
-7.18535
-7.1853
-7.18526
-7.18523
-7.18522
-7.18521
-7.18521
-7.18523
-7.18525
-7.18529
-7.18533
-7.18538
-7.18544
-7.18551
-7.18558
-7.18566
-7.18573
-7.18581
-7.18589
-7.18597
-7.18604
-7.18612
-7.18619
-7.18626
-7.18632
-7.18637
-7.18642
-7.18646
-7.18649
-7.18651
-7.18652
-7.18652
-7.1865
-7.18648
-7.18645
-7.18641
-7.18636
-7.1863
-7.18624
-7.18617
-7.1861
-7.18602
-7.18595
-7.18587
-7.18579
-7.18571
-7.18564
-7.18556
-7.18549
-7.18543
-7.18537
-7.18532
-7.18528
-7.18524
-7.18522
-7.18521
-7.18521
-7.18522
-7.18524
-7.18527
-7.18531
-7.18536
-7.18542
-7.18549
-7.18555
-7.18563
-7.1857
-7.18578
-7.18586
-7.18594
-7.18602
-7.18609
-7.18617
-7.18624
-7.1863
-7.18636
-7.18642
-7.18646
-7.1865
-7.18653
-7.18655
-7.18656
-7.51333
-7.51332
-7.51329
-7.51325
-7.51321
-7.51315
-7.51308
-7.51301
-7.51293
-7.51284
-7.51275
-7.51266
-7.51257
-7.51248
-7.51239
-7.5123
-7.51222
-7.51214
-7.51206
-7.512
-7.51194
-7.51188
-7.51184
-7.51181
-7.51179
-7.51178
-7.51179
-7.5118
-7.51183
-7.51187
-7.51192
-7.51197
-7.51204
-7.51211
-7.51219
-7.51227
-7.51236
-7.51245
-7.51254
-7.51263
-7.51272
-7.51281
-7.51289
-7.51297
-7.51305
-7.51311
-7.51317
-7.51322
-7.51325
-7.51328
-7.51329
-7.51329
-7.51327
-7.51324
-7.51321
-7.51316
-7.5131
-7.51303
-7.51295
-7.51287
-7.51279
-7.5127
-7.51261
-7.51252
-7.51243
-7.51234
-7.51225
-7.51217
-7.51209
-7.51202
-7.51196
-7.5119
-7.51186
-7.51182
-7.5118
-7.51179
-7.51178
-7.5118
-7.51182
-7.51185
-7.5119
-7.51195
-7.51201
-7.51208
-7.51216
-7.51224
-7.51233
-7.51241
-7.5125
-7.5126
-7.51269
-7.51278
-7.51286
-7.51295
-7.51303
-7.5131
-7.51316
-7.51322
-7.51327
-7.5133
-7.51332
-7.51334
-7.84013
-7.84012
-7.84009
-7.84004
-7.83998
-7.83992
-7.83984
-7.83975
-7.83966
-7.83956
-7.83946
-7.83936
-7.83925
-7.83915
-7.83905
-7.83895
-7.83886
-7.83877
-7.83869
-7.83861
-7.83855
-7.83849
-7.83845
-7.83841
-7.83839
-7.83838
-7.83839
-7.8384
-7.83843
-7.83847
-7.83853
-7.83859
-7.83866
-7.83874
-7.83883
-7.83892
-7.83902
-7.83912
-7.83922
-7.83932
-7.83943
-7.83953
-7.83963
-7.83972
-7.8398
-7.83988
-7.83995
-7.84
-7.84004
-7.84007
-7.84008
-7.84008
-7.84007
-7.84003
-7.83999
-7.83993
-7.83986
-7.83978
-7.8397
-7.8396
-7.8395
-7.8394
-7.8393
-7.83919
-7.83909
-7.83899
-7.8389
-7.8388
-7.83872
-7.83864
-7.83857
-7.83851
-7.83846
-7.83843
-7.8384
-7.83839
-7.83838
-7.8384
-7.83842
-7.83846
-7.8385
-7.83856
-7.83863
-7.83871
-7.83879
-7.83888
-7.83898
-7.83907
-7.83918
-7.83928
-7.83938
-7.83949
-7.83959
-7.83968
-7.83978
-7.83986
-7.83994
-7.84
-7.84006
-7.8401
-7.84012
-7.84014
-8.16696
-8.16694
-8.16691
-8.16686
-8.16679
-8.16672
-8.16663
-8.16653
-8.16643
-8.16631
-8.1662
-8.16609
-8.16597
-8.16585
-8.16574
-8.16563
-8.16553
-8.16543
-8.16534
-8.16526
-8.16519
-8.16513
-8.16508
-8.16505
-8.16503
-8.16502
-8.16502
-8.16504
-8.16507
-8.16512
-8.16517
-8.16524
-8.16532
-8.16541
-8.1655
-8.1656
-8.16571
-8.16582
-8.16594
-8.16605
-8.16617
-8.16628
-8.16639
-8.1665
-8.16659
-8.16668
-8.16675
-8.16682
-8.16686
-8.1669
-8.16691
-8.16691
-8.16689
-8.16685
-8.1668
-8.16674
-8.16666
-8.16657
-8.16647
-8.16636
-8.16625
-8.16614
-8.16602
-8.16591
-8.16579
-8.16568
-8.16558
-8.16548
-8.16538
-8.1653
-8.16522
-8.16516
-8.1651
-8.16506
-8.16503
-8.16502
-8.16502
-8.16503
-8.16506
-8.1651
-8.16515
-8.16521
-8.16528
-8.16537
-8.16546
-8.16556
-8.16566
-8.16577
-8.16588
-8.166
-8.16612
-8.16623
-8.16634
-8.16645
-8.16656
-8.16665
-8.16674
-8.16681
-8.16687
-8.16692
-8.16695
-8.16697
-8.49382
-8.4938
-8.49376
-8.49371
-8.49364
-8.49355
-8.49345
-8.49334
-8.49323
-8.49311
-8.49298
-8.49286
-8.49273
-8.4926
-8.49248
-8.49236
-8.49225
-8.49214
-8.49205
-8.49196
-8.49188
-8.49182
-8.49177
-8.49173
-8.49171
-8.4917
-8.4917
-8.49172
-8.49176
-8.4918
-8.49186
-8.49194
-8.49202
-8.49212
-8.49222
-8.49233
-8.49245
-8.49257
-8.4927
-8.49282
-8.49295
-8.49307
-8.4932
-8.49331
-8.49342
-8.49351
-8.49359
-8.49366
-8.49372
-8.49375
-8.49377
-8.49376
-8.49374
-8.4937
-8.49365
-8.49357
-8.49349
-8.49339
-8.49328
-8.49316
-8.49304
-8.49292
-8.49279
-8.49266
-8.49254
-8.49242
-8.4923
-8.49219
-8.49209
-8.492
-8.49192
-8.49185
-8.49179
-8.49175
-8.49172
-8.4917
-8.4917
-8.49171
-8.49174
-8.49178
-8.49184
-8.4919
-8.49198
-8.49207
-8.49217
-8.49228
-8.49239
-8.49251
-8.49264
-8.49276
-8.49289
-8.49302
-8.49314
-8.49326
-8.49337
-8.49348
-8.49357
-8.49366
-8.49372
-8.49377
-8.49381
-8.49383
-8.82072
-8.82069
-8.82065
-8.82059
-8.82051
-8.82042
-8.82032
-8.8202
-8.82008
-8.81995
-8.81981
-8.81968
-8.81954
-8.8194
-8.81927
-8.81915
-8.81903
-8.81891
-8.81881
-8.81872
-8.81864
-8.81857
-8.81851
-8.81847
-8.81845
-8.81844
-8.81844
-8.81846
-8.8185
-8.81855
-8.81862
-8.81869
-8.81878
-8.81889
-8.819
-8.81912
-8.81924
-8.81937
-8.81951
-8.81964
-8.81978
-8.81991
-8.82004
-8.82017
-8.82028
-8.82038
-8.82047
-8.82055
-8.8206
-8.82064
-8.82066
-8.82066
-8.82063
-8.82059
-8.82053
-8.82045
-8.82036
-8.82025
-8.82013
-8.82001
-8.81988
-8.81974
-8.81961
-8.81947
-8.81934
-8.81921
-8.81908
-8.81897
-8.81886
-8.81876
-8.81867
-8.8186
-8.81854
-8.81849
-8.81846
-8.81844
-8.81844
-8.81845
-8.81848
-8.81853
-8.81858
-8.81866
-8.81874
-8.81884
-8.81894
-8.81906
-8.81918
-8.81931
-8.81944
-8.81958
-8.81971
-8.81985
-8.81998
-8.82011
-8.82023
-8.82035
-8.82045
-8.82054
-8.82061
-8.82066
-8.8207
-8.82072
-9.14764
-9.14762
-9.14758
-9.14751
-9.14743
-9.14733
-9.14722
-9.1471
-9.14697
-9.14684
-9.1467
-9.14655
-9.14641
-9.14627
-9.14613
-9.146
-9.14587
-9.14575
-9.14564
-9.14555
-9.14546
-9.14539
-9.14533
-9.14529
-9.14526
-9.14525
-9.14526
-9.14528
-9.14532
-9.14537
-9.14544
-9.14552
-9.14562
-9.14572
-9.14584
-9.14596
-9.1461
-9.14623
-9.14638
-9.14652
-9.14666
-9.1468
-9.14694
-9.14707
-9.14719
-9.14729
-9.14739
-9.14747
-9.14753
-9.14757
-9.14759
-9.14758
-9.14756
-9.14751
-9.14745
-9.14737
-9.14727
-9.14716
-9.14703
-9.1469
-9.14677
-9.14663
-9.14648
-9.14634
-9.1462
-9.14606
-9.14593
-9.14581
-9.14569
-9.14559
-9.1455
-9.14542
-9.14536
-9.14531
-9.14527
-9.14526
-9.14525
-9.14527
-9.1453
-9.14535
-9.14541
-9.14548
-9.14557
-9.14567
-9.14578
-9.1459
-9.14603
-9.14616
-9.1463
-9.14645
-9.14659
-9.14673
-9.14687
-9.14701
-9.14714
-9.14725
-9.14736
-9.14745
-9.14753
-9.14759
-9.14763
-9.14765
-9.47461
-9.47459
-9.47454
-9.47448
-9.47439
-9.47429
-9.47418
-9.47405
-9.47392
-9.47378
-9.47364
-9.47349
-9.47334
-9.4732
-9.47305
-9.47292
-9.47279
-9.47267
-9.47256
-9.47246
-9.47237
-9.47229
-9.47224
-9.47219
-9.47216
-9.47215
-9.47216
-9.47218
-9.47222
-9.47228
-9.47235
-9.47243
-9.47253
-9.47264
-9.47276
-9.47289
-9.47302
-9.47316
-9.47331
-9.47346
-9.4736
-9.47375
-9.47389
-9.47402
-9.47414
-9.47425
-9.47435
-9.47443
-9.47449
-9.47453
-9.47455
-9.47455
-9.47452
-9.47448
-9.47441
-9.47433
-9.47423
-9.47411
-9.47399
-9.47385
-9.47371
-9.47356
-9.47342
-9.47327
-9.47313
-9.47299
-9.47285
-9.47273
-9.47261
-9.4725
-9.47241
-9.47233
-9.47226
-9.47221
-9.47218
-9.47216
-9.47216
-9.47217
-9.4722
-9.47225
-9.47231
-9.47239
-9.47248
-9.47258
-9.4727
-9.47282
-9.47295
-9.47309
-9.47323
-9.47338
-9.47353
-9.47367
-9.47382
-9.47396
-9.47409
-9.47421
-9.47432
-9.47442
-9.47449
-9.47456
-9.4746
-9.47461
)
;

boundaryField
{
    top
    {
        type            calculated;
        value           nonuniform List<scalar> 
102
(
-9.63811
-9.63808
-9.63804
-9.63797
-9.63788
-9.63778
-9.63767
-9.63754
-9.63741
-9.63727
-9.63712
-9.63697
-9.63683
-9.63668
-9.63653
-9.6364
-9.63627
-9.63614
-9.63603
-9.63593
-9.63584
-9.63577
-9.63571
-9.63566
-9.63564
-9.63562
-9.63563
-9.63565
-9.63569
-9.63575
-9.63582
-9.63591
-9.636
-9.63611
-9.63623
-9.63636
-9.6365
-9.63664
-9.63679
-9.63694
-9.63709
-9.63723
-9.63737
-9.63751
-9.63763
-9.63774
-9.63784
-9.63792
-9.63799
-9.63803
-9.63805
-9.63804
-9.63802
-9.63797
-9.6379
-9.63782
-9.63772
-9.6376
-9.63747
-9.63734
-9.6372
-9.63705
-9.6369
-9.63675
-9.63661
-9.63647
-9.63633
-9.6362
-9.63608
-9.63598
-9.63588
-9.6358
-9.63573
-9.63568
-9.63565
-9.63563
-9.63563
-9.63564
-9.63567
-9.63572
-9.63578
-9.63586
-9.63595
-9.63606
-9.63617
-9.6363
-9.63643
-9.63657
-9.63672
-9.63686
-9.63701
-9.63716
-9.63731
-9.63745
-9.63758
-9.6377
-9.63781
-9.63791
-9.63799
-9.63805
-9.63809
-9.63811
)
;
    }
    bottom
    {
        type            calculated;
        value           nonuniform List<scalar> 
102
(
0.16311
0.163079
0.163022
0.162939
0.16283
0.162695
0.162536
0.162352
0.162143
0.161912
0.161659
0.161389
0.161105
0.160814