/*--------------------------------*- C++ -*----------------------------------*\
| =========                 |                                                 |
| \\      /  F ield         | OpenFOAM: The Open Source CFD Toolbox           |
|  \\    /   O peration     | Version:  2.3.0                                 |
|   \\  /    A nd           | Web:      www.OpenFOAM.org                      |
|    \\/     M anipulation  |                                                 |
\*---------------------------------------------------------------------------*/
FoamFile
{
    version     2.0;
    format      ascii;
    class       volScalarField;
    location    "7000";
    object      p;
}
// * * * * * * * * * * * * * * * * * * * * * * * * * * * * * * * * * * * * * //

dimensions      [0 2 -2 0 0 0 0];

internalField   nonuniform List<scalar> 
3060
(
0
-3.03597
-8.72651
-17.0259
-27.8867
-41.2712
-57.1542
-75.5093
-96.2801
-119.348
-144.504
-171.435
-199.697
-228.693
-257.648
-285.614
-311.612
-334.741
-354.219
-369.612
-381.044
-388.951
-394.025
-397.031
-398.607
-399.166
-398.875
-397.667
-395.239
-391.043
-384.348
-374.395
-360.624
-342.744
-320.945
-295.904
-268.513
-239.779
-210.717
-182.21
-154.94
-129.426
-106.038
-85.0258
-66.5389
-50.6518
-37.398
-26.8014
-18.8923
-13.7087
-11.2862
-11.6468
-14.7865
-20.6789
-29.2868
-40.5736
-54.5112
-71.0756
-90.2259
-111.871
-135.839
-161.849
-189.495
-218.218
-247.289
-275.776
-302.65
-326.931
-347.765
-364.573
-377.316
-386.358
-392.33
-396.002
-398.071
-399.022
-399.096
-398.299
-396.401
-392.927
-387.192
-378.428
-366
-349.536
-329.049
-305.093
-278.493
-250.176
-221.125
-192.253
-164.286
-137.778
-113.138
-90.6509
-70.4992
-52.783
-37.5475
-24.8165
-14.6179
-6.99248
-1.98863
0.350569
38.4334
35.8609
31.0151
23.8949
14.4942
2.80862
-11.1509
-27.3399
-45.6642
-65.9696
-88.0316
-111.53
-136.009
-160.841
-185.318
-208.934
-231.484
-252.382
-270.413
-284.638
-295.13
-302.399
-307.126
-309.992
-311.539
-312.103
-311.822
-310.639
-308.309
-304.379
-298.211
-289.101
-276.457
-259.928
-240.045
-218.046
-194.839
-170.71
-146.032
-121.506
-97.835
-75.554
-55.0411
-36.5615
-20.2964
-6.35751
5.20245
14.3719
21.1599
25.5791
27.6356
27.33
24.6623
19.6312
12.2283
2.44054
-9.73757
-24.2859
-41.1377
-60.1644
-81.1648
-103.848
-127.8
-152.44
-177.035
-200.94
-223.876
-245.444
-264.566
-280.091
-291.773
-300.055
-305.575
-309.035
-311.033
-311.966
-312.032
-311.233
-309.384
-306.094
-300.775
-292.729
-281.313
-266.065
-247.168
-225.739
-202.887
-179.028
-154.395
-129.584
-105.306
-82.1425
-60.5102
-40.7009
-22.9191
-7.30274
6.06814
17.1596
25.9665
32.4946
36.7492
38.7297
68.4846
65.9573
61.2185
54.3121
45.3108
34.3271
21.5204
7.09009
-8.74609
-25.7811
-43.8365
-62.7648
-82.446
-102.784
-123.619
-144.39
-163.892
-180.864
-194.773
-206.15
-215.1
-221.153
-224.835
-226.93
-228.008
-228.385
-228.186
-227.361
-225.688
-222.719
-217.746
-210.015
-199.607
-186.88
-171.291
-152.842
-132.603
-111.915
-91.6227
-71.9859
-53.1066
-35.1043
-18.1339
-2.38352
11.9294
24.5757
35.3438
44.0637
50.6151
54.921
56.9352
56.6354
54.0251
49.1328
42.0113
32.7479
21.4754
8.37608
-6.33103
-22.4172
-39.6716
-57.9147
-77
-96.8184
-117.251
-137.934
-157.843
-175.625
-190.417
-202.515
-212.297
-219.263
-223.639
-226.214
-227.634
-228.283
-228.336
-227.795
-226.493
-224.052
-219.833
-213.04
-203.404
-191.427
-176.746
-159.022
-139.055
-118.173
-97.4388
-77.2609
-57.7661
-39.0521
-21.2464
-4.50443
10.9872
25.0163
37.367
47.8486
56.314
62.6622
66.8291
68.7762
115.482
113.026
108.433
101.767
93.1241
82.6455
70.5188
56.9761
42.2764
26.6784
10.4136
-6.3332
-23.4349
-40.8178
-58.3682
-75.6898
-92.0573
-107.032
-120.224
-130.48
-137.338
-141.986
-144.573
-145.679
-146.085
-146.183
-146.104
-145.799
-145.019
-143.177
-139.424
-133.679
-125.098
-113.145
-99.0189
-83.3818
-66.5658
-49.2596
-32.0489
-15.1241
1.4428
17.5345
32.9683
47.5069
60.8796
72.8117
83.0546
91.4059
97.7151
101.879
103.831
103.54
101.011
96.2849
89.4357
80.5784
69.8769
57.5465
43.8452
29.0498
13.4248
-2.80484
-19.4726
-36.4777
-53.7422
-70.9978
-87.5609
-102.833
-116.496
-127.664
-135.369
-140.587
-143.797
-145.283
-145.899
-146.132
-146.169
-146.01
-145.474
-144.076
-140.959
-135.804
-128.164
-117.014
-103.288
-87.9294
-71.25
-53.8006
-36.2722
-18.9572
-1.93948
14.6965
30.8079
46.1962
60.6207
73.8196
85.5385
95.5557
103.696
109.831
113.873
115.766
162.579
160.369
156.24
150.256
142.513
133.138
122.292
110.161
96.9507
82.8705
68.1252
52.9126
37.432
21.9087
6.64959
-7.88174
-21.1947
-33.333
-44.6604
-54.3408
-60.9368
-64.29
-65.4488
-65.5381
-65.2668
-65.0881
-65.1298
-65.3483
-65.4823
-64.9195
-62.7905
-57.8425
-49.5752
-38.8934
-27.2256
-14.5483
-0.589017
14.2902
29.5506
44.8253
59.8612
74.4442
88.3658
101.411
113.36
123.996
133.121
140.568
146.202
149.924
151.671
151.411
149.148
144.924
138.811
130.915
121.381
110.385
98.1319
84.8388
70.7258
56.0056
40.8865
25.5884
10.3846
-4.31374
-17.9523
-30.3221
-41.7865
-52.0063
-59.4415
-63.5579
-65.1603
-65.4769
-65.2724
-65.0881
-65.1078
-65.3302
-65.569
-65.274
-63.6777
-59.5481
-52.082
-41.804
-30.2646
-17.863
-4.20684
10.5692
25.9349
41.4723
56.9033
72.0134
86.605
100.479
113.429
125.245
135.726
144.69
151.987
157.496
161.131
162.835
204.098
202.086
198.332
192.903
185.897
177.443
167.693
156.827
145.035
132.516
119.468
106.086
92.5691
79.1337
66.0415
53.6311
42.3053
32.3675
24.0363
17.4872
12.8166
11.0465
11.7086
13.3764
14.7004
15.227
15.0423
14.0969
12.4117
11.0242
11.3769
14.6958
20.4323
27.9421
37.1599
47.8416
59.7309
72.4353
85.57
98.8398
112.007
124.858
137.188
148.788
159.45
168.972
177.168
183.877
188.965
192.333
193.915
193.679
191.631
187.81
182.292
175.185
166.629
156.793
145.869
134.06
121.575
108.622
95.4076
82.1482
69.093
56.5586
44.9489
34.6267
25.8251
18.7875
13.5495
11.0363
11.2874
12.8893
14.4342
15.1673
15.1677
14.4438
12.9338
11.3944
11.2272
13.7883
19.0318
26.0339
34.8065
45.1254
56.7691
69.3956
82.6068
96.0866
109.588
122.902
135.832
148.18
159.751
170.345
179.774
187.865
194.472
199.473
202.779
204.33
242.52
240.703
237.316
232.428
226.137
218.568
209.869
200.208
189.763
178.722
167.273
155.605
143.915
132.412
121.334
110.952
101.57
93.4539
86.8733
82.2266
80.0065
80.9937
84.8916
89.3333
92.609
93.9248
93.4362
90.9771
86.8285
82.2157
79.6201
80.4352
84.0687
89.821
97.2604
106.057
115.95
126.637
137.82
149.241
160.674
171.908
182.743
192.981
202.426
210.89
218.198
224.197
228.757
231.782
233.204
232.992
231.151
227.722
222.778
216.428
208.805
200.07
190.402
179.99
169.033
157.728
146.278
134.895
123.814
113.302
103.666
95.1968
88.1558
82.9119
79.9186
79.9778
83.3448
88.0211
91.8251
93.7438
93.7746
91.9381
88.2579
83.7256
80.4154
80.3089
83.2309
88.4187
95.4312
103.9
113.569
124.161
135.375
146.948
158.652
170.281
181.642
192.546
202.804
212.232
220.653
227.903
233.839
238.345
241.329
242.73
278.433
276.794
273.744
269.352
263.717
256.961
249.231
240.687
231.502
221.852
211.917
201.88
191.923
182.24
173.04
164.556
157.039
150.736
145.908
142.903
142.186
144.677
151.213
159.404
165.507
168.161
167.117
162.428
154.726
146.819
142.427
141.84
143.892
147.942
153.599
160.563
168.579
177.39
186.746
196.422
206.21
215.917
225.349
234.318
242.639
250.131
256.628
261.98
266.06
268.771
270.048
269.857
268.206
265.133
260.713
255.052
248.283
240.56
232.054
222.947
213.426
203.68
193.901
184.288
175.052
166.421
158.653
152.003
146.729
143.157
141.706
143.153
148.652
156.922
163.988
167.753
167.83
164.241
157.37
149.202
143.657
142.119
143.493
147.008
152.248
158.891
166.684
175.378
184.724
194.497
204.493
214.521
224.398
233.944
242.98
251.328
258.82
265.297
270.62
274.671
277.359
278.622
312.703
311.23
308.493
304.561
299.533
293.531
286.698
279.19
271.173
262.816
254.291
245.767
237.417
229.416
221.947
215.21
209.413
204.773
201.529
199.985
200.538
203.84
210.882
220.917
229.629
233.623
232.033
225.129
214.988
206.17
201.27
199.587
200.255
202.777
206.813
212.091
218.385
225.475
233.151
241.217
249.486
257.777
265.911
273.709
280.993
287.59
293.34
298.096
301.733
304.156
305.298
305.128
303.65
300.906
296.969
291.943
285.96
279.169
271.736
263.834
255.642
247.339
239.106
231.123
223.581
216.676
210.623
205.644
201.972
199.894
199.778
202.19
208.108
217.699
227.378
232.992
233.116
227.748
218.245
208.671
202.672
200.17
200.21
202.228
205.861
210.823
216.885
223.833
231.458
239.566
247.978
256.518
265.015
273.3
281.201
288.548
295.18
300.941
305.695
309.324
311.737
312.874
345.914
344.596
342.149
338.645
334.18
328.877
322.876
316.328
309.393
302.234
295.013
287.89
281.02
274.562
268.675
263.527
259.289
256.139
254.275
253.935
255.422
259.155
265.719
275
284.041
288.619
286.768
279.225
269.424
261.445
256.504
254.08
253.656
254.878
257.479
261.24
265.973
271.499
277.64
284.229
291.1
298.087
305.024
311.741
318.069
323.841
328.902
333.108
336.337
338.494
339.511
339.36
338.043
335.602
332.11
327.671
322.412
316.48
310.036
303.246
296.28
289.307
282.494
276.005
270.008
264.67
260.171
256.692
254.425
253.602
254.505
257.524
263.224
271.927
281.59
287.878
288.022
281.983
272.442
263.723
257.946
254.847
253.869
254.63
256.849
260.3
264.791
270.147
276.198
282.778
289.728
296.892
304.112
311.227
318.077
324.497
330.331
335.429
339.654
342.891
345.05
346.067
378.515
377.342
375.171
372.071
368.138
363.492
358.27
352.62
346.694
340.649
334.635
328.801
323.29
318.24
313.788
310.071
307.223
305.381
304.688
305.309
307.437
311.294
317.106
324.687
332.203
336.244
334.583
328.134
320.163
313.444
308.737
305.88
304.631
304.776
306.137
308.557
311.894
316.009
320.757
325.998
331.587
337.373
343.203
348.917
354.355
359.359
363.776
367.467
370.312
372.218
373.119
372.985
371.82
369.664
366.59
362.699
358.117
352.986
347.461
341.702
335.869
330.119
324.607
319.48
314.882
310.956
307.843
305.683
304.621
304.819
306.463
309.775
315.002
322.191
330.109
335.573
335.704
330.448
322.616
315.409
310.12
306.734
305.018
304.755
305.761
307.878
310.965
314.886
319.506
324.689
330.297
336.191
342.227
348.256
354.125
359.678
364.764
369.236
372.963
375.83
377.746
378.651
410.786
409.756
407.853
405.143
401.723
397.708
393.231
388.432
383.46
378.458
373.57
368.93
364.668
360.903
357.75
355.315
353.698
352.992
353.287
354.674
357.241
361.058
366.117
372.105
377.779
380.832
379.569
374.711
368.599
363.043
358.676
355.583
353.709
352.968
353.266
354.51
356.604
359.448
362.933
366.941
371.348
376.019
380.815
385.588
390.185
394.458
398.26
401.457
403.934
405.598
406.386
406.269
405.25
403.369
400.696
397.331
393.394
389.023
384.366
379.573
374.796
370.18
365.865
361.981
358.651
355.991
354.108
353.1
353.062
354.088
356.27
359.691
364.385
370.185
376.197
380.321
380.423
376.459
370.512
364.697
359.951
356.462
354.21
353.115
353.089
354.041
355.879
358.51
361.833
365.738
370.11
374.826
379.757
384.765
389.706
394.434
398.804
402.676
405.922
408.429
410.111
410.906
442.883
441.996
440.359
438.04
435.127
431.734
427.985
424.014
419.958
415.952
412.126
408.604
405.499
402.913
400.938
399.654
399.127
399.408
400.539
402.546
405.432
409.156
413.58
418.338
422.547
424.742
423.838
420.303
415.625
410.996
406.961
403.728
401.368
399.891
399.277
399.489
400.475
402.174
404.505
407.376
410.681
414.304
418.118
421.989
425.775
429.336
432.536
435.247
437.358
438.782
439.458
439.358
438.485
436.876
434.6
431.752
428.446
424.814
420.992
417.124
413.347
409.794
406.591
403.85
401.674
400.154
399.362
399.36
400.195
401.9
404.489
407.94
412.157
416.873
421.396
424.377
424.451
421.587
417.111
412.383
408.119
404.604
401.945
400.167
399.26
399.193
399.923
401.393
403.535
406.265
409.488
413.1
416.984
421.016
425.063
428.989
432.658
435.937
438.705
440.855
442.301
442.987
474.858
474.117
472.756
470.835
468.44
465.676
462.658
459.509
456.354
453.317
450.514
448.054
446.035
444.542
443.647
443.403
443.845
444.991
446.84
449.365
452.505
456.148
460.091
463.976
467.17
468.764
468.116
465.506
461.833
457.882
454.111
450.775
448.017
445.915
444.509
443.808
443.8
444.454
445.72
447.527
449.79
452.408
455.271
458.256
461.239
464.089
466.682
468.899
470.639
471.818
472.379
472.296
471.571
470.241
468.369
466.044
463.373
460.477
457.482
454.517
451.706
449.17
447.016
445.341
444.228
443.741
443.927
444.81
446.398
448.675
451.593
455.059
458.907
462.841
466.327
468.504
468.555
466.459
463.005
459.058
455.167
451.64
448.652
446.298
444.631
443.668
443.407
443.824
444.881
446.517
448.659
451.218
454.092
457.171
460.336
463.462
466.426
469.105
471.385
473.167
474.372
474.944
506.684
506.098
505.025
503.523
501.67
499.557
497.29
494.979
492.733
490.66
488.861
487.431
486.45
485.988
486.095
486.802
488.119
490.035
492.512
495.484
498.847
502.447
506.058
509.357
511.891
513.099
512.619
510.609
507.602
504.116
500.523
497.085
493.982
491.336
489.229
487.707
486.793
486.481
486.747
487.541
488.796
490.43
492.348
494.446
496.612
498.733
500.699
502.403
503.754
504.676
505.116
505.051
504.483
503.444
501.994
500.213
498.197
496.054
493.895
491.834
489.98
488.435
487.292
486.629
486.509
486.975
488.048
489.724
491.976
494.75
497.954
501.452
505.045
508.449
511.252
512.908
512.943
511.34
508.556
505.138
501.504
497.948
494.674
491.822
489.485
487.723
486.564
486.014
486.059
486.662
487.766
489.3
491.179
493.307
495.581
497.891
500.128
502.182
503.953
505.349
506.299
506.752
538.273
537.854
537.092
536.037
534.758
533.335
531.857
530.415
529.103
528.01
527.22
526.808
526.841
527.368
528.423
530.016
532.137
534.75
537.79
541.164
544.74
548.342
551.746
554.673
556.796
557.771
557.394
555.755
553.167
549.975
546.48
542.925
539.506
536.37
533.628
531.356
529.598
528.375
527.682
527.49
527.75
528.398
529.357
530.542
531.862
533.22
534.524
535.684
536.621
537.268
537.579
537.533
537.132
536.405
535.404
534.199
532.872
531.515
530.222
529.087
528.2
527.646
527.497
527.815
528.644
530.006
531.9
534.299
537.152
540.373
543.843
547.403
550.845
553.911
556.287
557.623
557.646
556.344
553.978
550.898
547.418
543.804
540.266
536.967
534.03
531.54
529.554
528.101
527.184
526.79
526.878
527.394
528.271
529.429
530.784
532.244
533.716
535.11
536.337
537.321
537.998
538.322
569.492
569.253
568.828
568.258
567.598
566.913
566.271
565.746
565.409
565.329
565.569
566.187
567.228
568.726
570.697
573.134
576.009
579.268
582.828
586.577
590.367
594.018
597.316
600.026
601.908
602.749
602.431
601.007
598.664
595.637
592.165
588.469
584.745
581.153
577.82
574.842
572.282
570.179
568.546
567.373
566.629
566.271
566.24
566.473
566.901
567.449
568.046
568.62
569.109
569.458
569.63
569.604
569.384
568.995
568.479
567.893
567.302
566.778
566.394
566.223
566.333
566.786
567.637
568.927
570.682
572.905
575.578
578.656
582.066
585.705
589.439
593.096
596.475
599.348
601.474
602.625
602.64
601.513
599.393
596.507
593.096
589.39
585.595
581.883
578.391
575.225
572.46
570.142
568.294
566.917
565.99
565.476
565.324
565.477
565.87
566.432
567.091
567.776
568.418
568.955
569.335
569.521
600.166
600.125
600.066
600.022
600.031
600.139
600.393
600.842
601.533
602.512
603.819
605.49
607.554
610.025
612.902
616.163
619.767
623.645
627.702
631.815
635.832
639.574
642.845
645.448
647.203
647.97
647.684
646.373
644.153
641.191
637.678
633.812
629.779
625.744
621.841
618.178
614.833
611.859
609.283
607.115
605.343
603.941
602.875
602.105
601.585
601.267
601.103
601.045
601.047
601.072
601.091
601.088
601.066
601.044
601.053
601.135
601.335
601.7
602.281
603.124
604.273
605.768
607.641
609.913
612.594
615.668
619.101
622.835
626.783
630.832
634.838
638.631
642.02
644.808
646.806
647.859
647.871
646.838
644.847
642.053
638.64
634.809
630.751
626.639
622.617
618.803
615.283
612.118
609.346
606.981
605.022
603.448
602.229
601.33
600.706
600.312
600.1
600.022
600.03
600.082
600.138
600.172
630.085
630.258
630.597
631.122
631.852
632.812
634.025
635.51
637.291
639.384
641.808
644.575
647.692
651.156
654.949
659.037
663.364
667.855
672.405
676.888
681.151
685.025
688.332
690.906
692.607
693.34
693.064
691.798
689.618
686.644
683.035
678.965
674.607
670.123
665.65
661.302
657.167
653.309
649.77
646.575
643.732
641.237
639.08
637.246
635.716
634.472
633.49
632.748
632.225
631.898
631.75
631.772
631.965
632.341
632.919
633.721
634.769
636.086
637.693
639.609
641.853
644.437
647.371
650.656
654.281
658.215
662.412
666.802
671.29
675.755
680.054
684.022
687.482
690.264
692.217
693.231
693.245
692.254
690.316
687.537
684.066
680.075
675.739
671.225
666.679
662.222
657.95
653.935
650.225
646.85
643.824
641.147
638.81
636.8
635.098
633.685
632.54
631.642
630.967
630.492
630.198
630.065
659.006
659.41
660.178
661.312
662.815
664.685
666.917
669.504
672.438
675.709
679.308
683.223
687.438
691.931
696.669
701.604
706.671
711.787
716.844
721.714
726.25
730.294
733.687
736.287
737.984
738.707
738.429
737.162
734.959
731.914
728.16
723.848
719.138
714.184
709.122
704.07
699.12
694.347
689.806
685.539
681.571
677.924
674.613
671.65
669.046
666.813
664.957
663.484
662.396
661.69
661.363
661.412
661.836
662.641
663.829
665.402
667.356
669.686
672.384
675.439
678.839
682.57
686.618
690.96
695.565
700.389
705.373
710.437
715.483
720.387
725.009
729.192
732.776
735.613
737.581
738.595
738.613
737.633
735.694
732.875
729.299
725.112
720.474
715.542
710.459
705.346
700.306
695.418
690.74
686.316
682.177
678.343
674.828
671.643
668.798
666.302
664.164
662.389
660.982
659.943
659.271
658.959
686.662
687.312
688.534
690.314
692.633
695.463
698.772
702.52
706.671
711.183
716.018
721.139
726.505
732.076
737.8
743.618
749.457
755.226
760.818
766.104
770.947
775.201
778.723
781.394
783.121
783.848
783.557
782.256
779.984
776.82
772.872
768.277
763.178
757.72
752.035
746.241
740.436
734.704
729.111
723.714
718.563
713.701
709.171
705.016
701.278
698
695.22
692.973
691.285
690.177
689.66
689.737
690.408
691.667
693.502
695.89
698.803
702.204
706.053
710.31
714.93
719.872
725.091
730.544
736.178
741.936
747.746
753.522
759.16
764.538
769.52
773.961
777.718
780.66
782.686
783.728
783.754
782.764
780.786
777.884
774.159
769.739
764.767
759.388
753.739
747.942
742.101
736.301
730.612
725.09
719.783
714.732
709.977
705.555
701.505
697.867
694.68
691.979
689.798
688.162
687.088
686.587
712.764
713.671
715.365
717.817
720.986
724.816
729.245
734.204
739.622
745.43
751.558
757.941
764.515
771.215
777.976
784.724
791.379
797.844
804.009
809.753
814.944
819.448
823.142
825.919
827.702
828.446
828.134
826.772
824.393
821.063
816.875
811.949
806.415
800.407
794.052
787.468
780.758
774.012
767.31
760.727
754.332
748.197
742.392
736.992
732.071
727.703
723.96
720.905
718.593
717.066
716.35
716.456
717.384
719.117
721.626
724.864
728.776
733.294
738.346
743.858
749.756
755.966
762.416
769.037
775.757
782.502
789.188
795.723
801.999
807.897
813.287
818.033
822.009
825.101
827.22
828.312
828.35
827.334
825.288
822.264
818.349
813.653
808.306
802.441
796.186
789.662
782.975
776.216
769.464
762.79
756.26
749.937
743.886
738.173
732.867
728.039
723.759
720.095
717.108
714.85
713.358
712.66
737.008
738.176
740.352
743.49
747.525
752.376
757.949
764.147
770.867
778.007
785.469
793.16
800.988
808.868
816.715
824.445
831.965
839.175
845.964
852.213
857.8
862.602
866.509
869.428
871.292
872.06
871.719
870.273
867.752
864.211
859.734
854.424
848.401
841.789
834.71
827.281
819.61
811.796
803.933
796.112
788.426
780.973
773.854
767.173
761.038
755.556
750.828
746.949
744
742.044
741.125
741.262
742.452
744.669
747.866
751.973
756.905
762.566
768.853
775.657
782.873
790.396
798.126
805.967
813.826
821.612
829.23
836.578
843.548
850.02
855.87
860.975
865.219
868.502
870.748
871.909
871.962
870.907
868.765
865.582
861.433
856.416
850.645
844.244
837.335
830.034
822.45
814.681
806.817
798.943
791.141
783.501
776.114
769.073
762.479
756.434
751.04
746.393
742.584
739.691
737.774
736.873
759.081
760.509
763.164
766.983
771.879
777.745
784.46
791.896
799.92
808.402
817.214
826.234
835.345
844.439
853.414
862.169
870.603
878.608
886.073
892.881
898.916
904.066
908.231
911.327
913.295
914.097
913.72
912.169
909.47
905.674
900.854
895.104
888.535
881.261
873.402
865.076
856.395
847.469
838.406
829.315
820.313
811.524
803.078
795.112
787.762
781.166
775.456
770.756
767.173
764.791
763.67
763.837
765.288
767.987
771.868
776.84
782.791
789.594
797.117
805.221
813.768
822.624
831.661
840.756
849.794
858.667
867.267
875.483
883.202
890.304
896.673
902.191
906.754
910.272
912.677
913.925
913.996
912.889
910.624
907.244
902.815
897.425
891.178
884.188
876.572
868.444
859.917
851.095
842.079
832.971
823.872
814.895
806.157
797.782
789.898
782.637
776.131
770.506
765.881
762.357
760.017
758.916
778.669
780.346
783.462
787.937
793.662
800.507
808.326
816.961
826.255
836.048
846.186
856.521
866.911
877.225
887.343
897.149
906.53
915.372
923.559
930.976
937.51
943.056
947.521
950.829
952.922
953.766
953.348
951.671
948.762
944.667
939.455
933.214
926.044
918.059
909.376
900.113
890.393
880.334
870.061
859.699
849.392
839.288
829.544
820.324
811.794
804.12
797.463
791.972
787.777
784.984
783.668
783.864
785.567
788.73
793.271
799.077
806.012
813.922
822.646
832.018
841.87
852.041
862.377
872.728
882.959
892.942
902.556
911.68
920.194
927.979
934.918
940.903
945.833
949.626
952.219
953.571
953.662
952.491
950.078
946.464
941.71
935.898
929.125
921.497
913.128
904.135
894.632
884.734
874.554
864.207
853.819
843.522
833.459
823.781
814.643
806.205
798.625
792.058
786.647
782.516
779.768
778.474
795.465
797.373
800.916
805.997
812.49
820.243
829.085
838.838
849.317
860.341
871.731
883.315
894.932
906.429
917.666
928.515
938.847
948.54
957.474
965.531
972.6
978.579
983.377
986.923
989.16
990.053
989.589
987.771
984.627
980.201
974.56
967.789
959.986
951.261
941.734
931.528
920.772
909.599
898.149
886.566
875.014
863.665
852.7
842.307
832.678
824.002
816.465
810.24
805.479
802.307
800.81
801.033
802.969
806.562
811.714
818.294
826.142
835.082
844.926
855.485
866.567
877.985
889.561
901.124
912.517
923.596
934.222
944.265
953.597
962.094
969.64
976.128
981.461
985.56
988.364
989.832
989.944
988.7
986.119
982.242
977.129
970.859
963.523
955.227
946.085
936.213
925.734
914.772
903.454
891.912
880.289
868.739
857.428
846.528
836.221
826.688
818.112
810.672
804.532
799.841
796.716
795.243
809.182
811.294
815.211
820.825
827.993
836.543
846.286
857.022
868.55
880.666
893.173
905.883
918.615
931.197
943.475
955.303
966.542
977.058
986.723
995.416
1003.02
1009.45
1014.59
1018.38
1020.77
1021.72
1021.21
1019.24
1015.85
1011.09
1005.01
997.701
989.266
979.814
969.469
958.36
946.627
934.415
921.881
909.185
896.511
884.048
871.997
860.566
849.966
840.408
832.098
825.227
819.968
816.461
814.805
815.051
817.193
821.164
826.854
834.114
842.766
852.613
863.448
875.059
887.236
899.772
912.469
925.139
937.607
949.709
961.295
972.22
982.346
991.546
999.699
1006.7
1012.44
1016.86
1019.88
1021.47
1021.61
1020.28
1017.53
1013.37
1007.89
1001.15
993.251
984.294
974.396
963.68
952.275
940.315
927.943
915.306
902.564
889.889
877.465
865.483
854.142
843.645
834.194
825.986
819.207
814.022
810.567
808.937
819.553
821.832
826.057
832.108
839.827
849.028
859.506
871.046
883.429
896.44
909.868
923.51
937.174
950.676
963.846
976.524
988.557
999.803
1010.13
1019.4
1027.51
1034.34
1039.81
1043.84
1046.37
1047.37
1046.81
1044.71
1041.09
1036
1029.52
1021.72
1012.7
1002.6
991.523
979.619
967.036
953.932
940.476
926.847
913.24
899.859
886.916
874.635
863.242
852.962
844.018
836.619
830.951
827.168
825.382
825.648
827.958
832.24
838.372
846.189
855.498
866.087
877.732
890.205
903.282
916.741
930.373
943.975
957.358
970.343
982.766
994.469
1005.31
1015.14
1023.85
1031.32
1037.45
1042.17
1045.4
1047.1
1047.25
1045.85
1042.93
1038.52
1032.68
1025.51
1017.09
1007.53
996.958
985.494
973.279
960.458
947.185
933.624
919.948
906.343
893.004
880.136
867.951
856.667
846.501
837.666
830.364
824.775
821.047
819.288
826.359
828.761
833.21
839.58
847.7
857.373
868.382
880.501
893.501
907.156
921.248
935.567
949.913
964.097
977.936
991.258
1003.9
1015.71
1026.55
1036.28
1044.78
1051.95
1057.68
1061.9
1064.55
1065.59
1065
1062.79
1058.98
1053.64
1046.82
1038.63
1029.16
1018.54
1006.9
994.386
981.156
967.38
953.238
938.924
924.639
910.593
897.008
884.113
872.147
861.345
851.942
844.157
838.19
834.206
832.324
832.604
835.038
839.548
846.002
854.224
864.011
875.136
887.365
900.46
914.186
928.315
942.628
956.916
970.982
984.634
997.694
1010
1021.39
1031.72
1040.87
1048.71
1055.16
1060.11
1063.51
1065.3
1065.47
1064.01
1060.94
1056.32
1050.21
1042.69
1033.86
1023.83
1012.72
1000.68
987.849
974.376
960.43
946.186
931.828
917.549
903.55
890.044
877.252
865.4
854.717
845.428
837.745
831.861
827.934
826.08
829.32
831.801
836.394
842.962
851.329
861.286
872.607
885.06
898.408
912.421
926.877
941.564
956.281
970.84
985.051
998.734
1011.72
1023.86
1034.99
1044.99
1053.73
1061.1
1066.99
1071.34
1074.06
1075.13
1074.52
1072.24
1068.32
1062.82
1055.8
1047.37
1037.64
1026.72
1014.75
1001.89
988.297
974.144
959.621
944.93
930.271
915.856
901.91
888.665
876.363
865.25
855.567
847.544
841.388
837.275
835.33
835.62
838.134
842.789
849.446
857.919
867.994
879.437
892.006
905.455
919.545
934.044
948.732
963.398
977.844
991.87
1005.29
1017.94
1029.65
1040.27
1049.68
1057.75
1064.38
1069.48
1072.98
1074.83
1075.01
1073.51
1070.35
1065.6
1059.31
1051.58
1042.5
1032.19
1020.79
1008.42
995.232
981.395
967.077
952.458
937.73
923.083
908.722
894.86
881.722
869.541
858.552
848.988
841.071
835.001
830.947
829.032
)
;

boundaryField
{
    top
    {
        type            calculated;
        value           nonuniform List<scalar> 
102
(
829.59
832.103
836.754
843.403
851.866
861.934
873.375
885.955
899.434
913.58
928.17
942.991
957.845
972.545
986.895
1000.71
1013.83
1026.09
1037.34
1047.44
1056.27
1063.71
1069.67
1074.06
1076.82
1077.9
1077.28
1074.97
1071.01
1065.44
1058.36
1049.84
1040
1028.97
1016.88
1003.89
990.153
975.857
961.19
946.36
931.563
917.012
902.93
889.552
877.123
865.89
856.097
847.979
841.747
837.58
835.609
835.903
838.451
843.166
849.903
858.476
868.663
880.229
892.927
906.51
920.736
935.372
950.198
965.005
979.595
993.763
1007.32
1020.09
1031.92
1042.66
1052.17
1060.33
1067.03
1072.18
1075.72
1077.59
1077.77
1076.25
1073.07
1068.26
1061.91
1054.1
1044.92
1034.51
1022.99
1010.49
997.177
983.204
968.744
953.987
939.123
924.341
909.846
895.851
882.583
870.277
859.17
849.499
841.489
835.344
831.238
829.298
)
;
    }
    bottom
    {
        type            calculated;
        value           nonuniform List<scalar> 
102
(
-38.8622
-41.9106
-47.6239
-55.956
-66.8587
-80.294
-96.2361
-114.658
-135.504
-158.655
-183.903
-210.933
-239.302
-268.412
-297.484
-325.57
-351.691
-374.945
-394.548
-410.064
-421.615
-429.63
-434.798
-437.879
-439.507
-440.088
-439.788
-438.542
-436.049
-431.767
-424.969
-414.901
-401.008
-383.002
-361.076
-335.91
-308.395
-279.541
-250.362
-221.743
-194.37
-168.761
-145.287
-124.198
-105.642
-89.6953
-76.3907
-65.7527
-57.8122
-52.6076
-50.1751
-50.5371
-53.6898
-59.606
-68.2479
-79.5786
-93.5693
-110.196
-129.417
-151.142
-175.198
-201.305
-229.057
-257.893
-287.082
-315.691
-342.688
-367.095
-388.055
-404.989
-417.853
-427.007
-433.078
-436.831
-438.959
-439.941
-440.015
-439.188
-437.232
-433.677
-427.844
-418.969
-406.421
-389.833
-369.22
-345.139
-318.418
-289.982
-260.814
-231.83
-203.757
-177.152
-152.423
-129.855
-109.63
-91.8488
-76.5563
-63.7768
-53.5385
-45.883
-40.859
-38.5102
)
;
    }
    frontAndBack
    {
        type            empty;
    }
    left_cyc
    {
        type            cyclic;
    }
    right_cyc
    {
        type            cyclic;
    }
}


// ************************************************************************* //
