/*--------------------------------*- C++ -*----------------------------------*\
| =========                 |                                                 |
| \\      /  F ield         | OpenFOAM: The Open Source CFD Toolbox           |
|  \\    /   O peration     | Version:  2.3.0                                 |
|   \\  /    A nd           | Web:      www.OpenFOAM.org                      |
|    \\/     M anipulation  |                                                 |
\*---------------------------------------------------------------------------*/
FoamFile
{
    version     2.0;
    format      ascii;
    class       volScalarField;
    location    "7000";
    object      p;
}
// * * * * * * * * * * * * * * * * * * * * * * * * * * * * * * * * * * * * * //

dimensions      [0 2 -2 0 0 0 0];

internalField   nonuniform List<scalar> 
765
(
0
-13.6332
-38.6231
-73.7929
-117.496
-167.283
-219.364
-268.811
-311.769
-346.158
-367.443
-375.793
-377.855
-376.645
-370.285
-352.727
-320.633
-279.644
-231.417
-179.494
-128.739
-83.3036
-45.9006
-18.3241
-1.84415
2.68115
-5.03896
-24.5335
-54.8258
-94.5307
-141.665
-193.191
-244.59
-291.277
-330.056
-359.089
-372.991
-377.538
-377.921
-374.771
-363.904
-338.548
-301.938
-257.002
-206.448
-154.491
-105.93
-64.1655
-31.3986
-9.13912
1.53252
43.7093
34.9385
19.1196
-2.75831
-29.5872
-60.0922
-93.0727
-128.244
-161.243
-184.131
-198.063
-204.43
-205.365
-204.873
-200.381
-188.039
-167.612
-136.596
-101.125
-67.5824
-36.3768
-8.52666
14.6654
32.056
42.6276
45.5568
40.5616
28.1067
9.09005
-15.4429
-44.3067
-76.1905
-110.346
-145.68
-174.116
-192.081
-202.601
-205.407
-205.548
-203.894
-195.39
-179.579
-153.91
-119.389
-84.6907
-52.2454
-22.5262
3.18489
23.6558
37.8107
44.6991
134.036
127.045
114.462
97.175
76.1667
52.4148
26.8307
-0.0288931
-24.7482
-39.9634
-46.7214
-45.9348
-43.4452
-45.0577
-47.1943
-42.121
-29.2405
-6.21942
20.6981
46.6266
70.9065
92.6744
110.962
124.78
133.207
135.543
131.555
121.626
106.533
87.2291
64.701
39.9076
13.6022
-13.0551
-33.7047
-44.3372
-47.4538
-44.4443
-43.896
-46.985
-45.9009
-37.2623
-19.3055
6.65322
33.2802
58.4901
81.6578
101.841
118.055
129.329
134.824
221.698
215.814
205.255
190.896
173.787
155.078
136.041
118.04
103.532
94.5319
94.5245
103.989
110.606
106.28
96.226
93.5417
101.021
114.262
131.747
150.666
169.582
187.192
202.325
213.9
220.991
222.955
219.595
211.239
198.622
182.719
164.635
145.569
126.841
110.115
98.2835
92.8621
98.357
108.145
109.639
101.05
93.1667
96.0533
106.505
122.238
140.663
159.76
178.195
194.734
208.251
217.729
222.359
295.439
290.771
282.481
271.418
258.6
245.099
232.019
220.495
212.249
209.072
214.457
228.961
237.793
232.177
217.368
209.333
211.048
218.223
229.178
242.002
255.513
268.603
280.195
289.251
294.868
296.427
293.752
287.146
277.316
265.215
251.895
238.437
225.955
215.749
209.821
210.032
220.818
234.758
236.658
224.816
211.739
209.136
213.739
223.039
235.086
248.393
261.838
274.332
284.808
292.28
295.962
366.637
363.014
356.671
348.424
339.24
330.117
322.02
315.856
312.626
313.185
318.887
330.937
339.082
333.779
321.24
313.965
312.422
314.81
320.384
328.112
337.086
346.355
354.928
361.822
366.172
367.386
365.299
360.197
352.757
343.892
334.593
325.841
318.576
313.705
312.271
315.014
324.097
336.22
338.042
327.435
316.645
312.515
312.967
317.055
323.797
332.252
341.495
350.553
358.428
364.174
367.042
435.815
433.24
428.833
423.321
417.551
412.373
408.572
406.81
407.539
410.956
417.051
425.574
431.19
427.499
418.888
412.134
408.105
406.739
407.953
411.329
416.253
421.964
427.626
432.38
435.459
436.329
434.833
431.236
426.15
420.38
414.786
410.188
407.32
406.725
408.786
413.483
420.948
429.183
430.459
423.221
415.123
409.736
406.99
406.935
409.263
413.487
418.901
424.701
430.029
434.054
436.104
503.703
502.271
499.953
497.315
494.994
493.62
493.743
495.751
499.698
505.325
511.982
518.714
522.496
520.041
513.6
506.811
500.875
496.489
494.021
493.477
494.543
496.697
499.323
501.78
503.476
503.971
503.119
501.161
498.587
496.012
494.077
493.38
494.408
497.376
502.214
508.439
515.312
521.183
522.025
517.039
510.169
503.703
498.449
494.987
493.47
493.774
495.45
497.922
500.552
502.711
503.867
569.807
569.705
569.778
570.346
571.746
574.294
578.25
583.708
590.455
597.955
605.287
611.312
614.202
612.357
606.855
599.714
592.155
585.162
579.368
575.053
572.191
570.547
569.812
569.654
569.743
569.8
569.703
569.64
569.909
570.843
572.771
575.99
580.701
586.842
594.059
601.614
608.47
613.26
613.885
609.968
603.48
596.001
588.614
582.155
577.063
573.484
571.259
570.107
569.703
569.713
569.825
632.938
634.398
637.23
641.431
646.949
653.711
661.625
670.495
679.919
689.219
697.406
703.378
705.948
704.328
699.034
691.262
682.12
672.644
663.594
655.426
648.38
642.558
638.035
634.872
633.083
632.618
633.417
635.561
639.082
643.948
650.095
657.444
665.874
675.09
684.568
693.464
700.708
705.175
705.72
702.163
695.52
686.943
677.525
668.186
659.525
651.891
645.437
640.245
636.386
633.902
632.78
691.326
694.554
700.47
708.694
718.737
730.087
742.252
754.731
766.968
778.207
787.491
793.839
796.418
794.804
789.266
780.581
769.703
757.618
745.133
732.846
721.256
710.853
702.144
695.629
691.722
690.661
692.481
697.108
704.246
713.451
724.214
736.034
748.422
760.87
772.731
783.142
791.105
795.701
796.24
792.632
785.45
775.571
763.994
751.634
739.189
727.18
716.106
706.465
698.771
693.492
690.968
742.755
747.851
757.007
769.452
784.261
800.479
817.196
833.592
848.944
862.428
873.138
880.213
883.016
881.268
875.144
865.211
852.291
837.295
821.071
804.361
787.942
772.707
759.603
749.569
743.427
741.73
744.637
751.876
762.811
776.575
792.217
808.801
825.451
841.432
855.977
868.215
877.239
882.282
882.865
878.928
870.856
859.355
845.315
829.629
813.091
796.41
780.448
766.128
754.41
746.192
742.183
784.769
791.643
803.873
820.335
839.725
860.706
882.001
902.483
921.218
937.282
949.77
957.889
961.078
959.093
952.089
940.56
925.255
907.064
886.907
865.712
844.541
824.644
807.349
793.977
785.712
783.407
787.349
797.07
811.608
829.728
850.096
871.4
892.413
912.149
929.682
944.094
954.522
960.274
960.935
956.451
947.156
933.679
916.854
897.593
876.822
855.481
834.761
815.962
800.421
789.415
783.993
814.652
822.974
837.696
857.42
880.566
905.546
930.843
955.092
977.112
995.824
1010.26
1019.59
1023.26
1020.98
1012.93
999.632
981.845
960.511
936.685
911.52
886.326
862.591
841.889
825.812
815.819
813.016
817.805
829.54
846.998
868.665
892.944
918.279
943.215
966.502
987.016
1003.73
1015.74
1022.35
1023.11
1017.96
1007.26
991.654
972.008
949.319
924.689
899.325
874.645
852.187
833.549
820.283
813.707
830.484
839.618
855.718
877.229
902.437
929.65
957.288
983.884
1008.04
1028.54
1044.33
1054.54
1058.55
1056.06
1047.26
1032.71
1013.24
989.841
963.706
936.179
908.721
882.873
860.306
842.736
831.78
828.694
833.961
846.815
865.879
889.486
915.923
943.549
970.864
996.415
1018.9
1037.2
1050.34
1057.56
1058.39
1052.75
1041.05
1023.98
1002.44
977.545
950.536
922.859
895.984
871.524
851.186
836.668
829.443
)
;

boundaryField
{
    top
    {
        type            calculated;
        value           nonuniform List<scalar> 
51
(
832.349
841.977
858.843
881.267
907.456
935.686
964.408
992.159
1017.4
1038.85
1055.4
1066.13
1070.36
1067.72
1058.48
1043.22
1022.84
998.386
971.106
942.466
913.981
887.143
863.641
845.26
833.731
830.463
836.032
849.537
869.453
894.014
921.448
950.109
978.57
1005.25
1028.77
1047.92
1061.7
1069.3
1070.18
1064.24
1051.96
1034.07
1011.55
985.537
957.363
928.634
900.754
875.327
854.104
838.873
831.246
)
;
    }
    bottom
    {
        type            calculated;
        value           nonuniform List<scalar> 
51
(
-71.5668
-85.483
-110.969
-146.821
-191.37
-242.146
-295.311
-345.753
-389.68
-425.002
-447.123
-456.105
-458.454
-457.061
-450.137
-431.782
-398.771
-356.82
-307.604
-254.607
-202.835
-156.517
-118.391
-90.2715
-73.4542
-68.8297
-76.7155
-96.6041
-127.489
-167.96
-216.014
-268.581
-321.029
-368.701
-408.436
-438.364
-453.017
-458.044
-458.49
-454.95
-443.387
-417.162
-379.606
-333.69
-282.114
-229.094
-179.578
-137.006
-103.602
-80.8966
-69.9999
)
;
    }
    frontAndBack
    {
        type            empty;
    }
    left_cyc
    {
        type            cyclic;
    }
    right_cyc
    {
        type            cyclic;
    }
}


// ************************************************************************* //
