/*--------------------------------*- C++ -*----------------------------------*\
| =========                 |                                                 |
| \\      /  F ield         | OpenFOAM: The Open Source CFD Toolbox           |
|  \\    /   O peration     | Version:  2.3.0                                 |
|   \\  /    A nd           | Web:      www.OpenFOAM.org                      |
|    \\/     M anipulation  |                                                 |
\*---------------------------------------------------------------------------*/
FoamFile
{
    version     2.0;
    format      ascii;
    class       volScalarField;
    location    "7000";
    object      p_rgh;
}
// * * * * * * * * * * * * * * * * * * * * * * * * * * * * * * * * * * * * * //

dimensions      [0 2 -2 0 0 0 0];

internalField   nonuniform List<scalar> 
3060
(
-38.8462
-42.021
-47.963
-56.6088
-67.8861
-81.7304
-98.0944
-116.94
-138.208
-161.787
-187.476
-214.973
-243.852
-273.529
-303.218
-331.925
-358.589
-382.279
-402.223
-417.908
-429.443
-437.291
-442.204
-445.022
-446.45
-446.937
-446.662
-445.549
-443.264
-439.202
-432.549
-422.482
-408.406
-390.02
-367.603
-341.862
-313.687
-284.163
-254.372
-225.216
-197.366
-171.32
-147.433
-125.942
-106.989
-90.6472
-76.9606
-65.9747
-57.7476
-52.3428
-49.8141
-50.1916
-53.4704
-59.6131
-68.562
-80.2536
-94.6331
-111.657
-131.278
-153.408
-177.883
-204.437
-232.681
-262.075
-291.894
-321.177
-348.816
-373.771
-395.2
-412.463
-425.457
-434.565
-440.461
-443.99
-445.923
-446.797
-446.877
-446.173
-444.437
-441.15
-435.554
-426.809
-414.23
-397.419
-376.434
-351.889
-324.596
-295.531
-265.756
-236.221
-207.652
-180.59
-155.425
-132.433
-111.788
-93.5849
-77.8741
-64.6939
-54.0962
-46.1489
-40.9234
-38.4785
-66.915
-69.5236
-74.4381
-81.6663
-91.2275
-103.147
-117.442
-134.094
-153.022
-174.069
-196.994
-221.454
-246.962
-272.862
-298.437
-323.269
-347.267
-369.785
-389.433
-405.026
-416.648
-424.887
-430.447
-433.981
-435.981
-436.742
-436.37
-434.819
-431.878
-427.136
-419.992
-409.742
-395.745
-377.579
-355.97
-332.389
-307.841
-282.551
-256.776
-231.204
-206.564
-183.417
-162.166
-143.088
-126.369
-112.106
-100.326
-91.011
-84.1295
-79.6546
-77.5731
-77.8834
-80.5853
-85.6826
-93.1924
-103.144
-115.568
-130.474
-147.817
-167.481
-189.256
-212.834
-237.778
-263.48
-289.186
-314.282
-338.623
-361.823
-382.675
-399.766
-412.735
-422.107
-428.562
-432.786
-435.334
-436.565
-436.645
-435.579
-433.215
-429.21
-423.018
-413.964
-401.362
-384.666
-364.125
-341.107
-316.867
-291.838
-266.116
-240.246
-214.954
-190.853
-168.389
-147.874
-129.527
-113.485
-99.8096
-88.5071
-79.5567
-72.9335
-68.6207
-66.6137
-81.1061
-83.9244
-89.1993
-96.8777
-106.879
-119.08
-133.306
-149.335
-166.919
-185.822
-205.842
-226.816
-248.624
-271.205
-294.509
-318.069
-340.616
-360.735
-378.189
-393.378
-405.819
-414.688
-420.62
-424.488
-426.785
-427.706
-427.283
-425.504
-422.258
-417.202
-409.607
-398.581
-384.35
-367.824
-348.852
-327.224
-303.999
-280.692
-258.077
-236.264
-215.3
-195.297
-176.427
-158.903
-142.974
-128.901
-116.921
-107.219
-99.927
-95.1295
-92.8819
-93.218
-96.1311
-101.582
-109.509
-119.816
-132.36
-146.939
-163.307
-181.204
-200.387
-220.653
-241.846
-263.87
-286.68
-310.078
-333.051
-354.038
-372.322
-388.279
-401.792
-411.866
-418.713
-423.246
-426.089
-427.512
-427.586
-426.314
-423.635
-419.296
-412.69
-402.905
-389.636
-373.863
-355.76
-334.926
-311.951
-288.367
-265.243
-242.861
-221.262
-200.524
-180.778
-162.197
-144.995
-129.412
-115.694
-104.052
-94.6467
-87.5887
-82.9503
-80.7794
-61.1912
-64.1563
-69.6834
-77.6876
-88.0504
-100.613
-115.17
-131.481
-149.284
-168.33
-188.411
-209.376
-231.13
-253.604
-276.625
-299.572
-321.375
-341.467
-360.05
-376.262
-389.294
-399.761
-407.115
-411.831
-414.688
-415.886
-415.37
-413.174
-409.255
-403.12
-393.873
-381.961
-367.143
-349.44
-330.069
-309.035
-286.517
-263.559
-241.048
-219.268
-198.305
-178.254
-159.264
-141.548
-125.362
-110.981
-98.6625
-88.623
-81.0313
-76.0113
-73.6502
-74.004
-77.0613
-82.7581
-90.9982
-101.647
-114.523
-129.399
-146.008
-164.078
-183.362
-203.661
-224.842
-246.82
-269.487
-292.444
-314.663
-335.239
-354.23
-371.304
-385.285
-396.565
-404.972
-410.446
-413.893
-415.659
-415.726
-414.094
-410.792
-405.493
-397.292
-386.16
-372.344
-355.368
-336.384
-315.854
-293.651
-270.581
-247.676
-225.384
-203.83
-183.084
-163.256
-144.511
-127.072
-111.194
-97.1341
-85.1275
-75.3663
-67.9982
-63.1324
-60.8464
-30.6351
-33.6214
-39.176
-47.2023
-57.5757
-70.1422
-84.7203
-101.107
-119.089
-138.457
-159.014
-180.575
-202.952
-225.924
-249.176
-272.223
-294.531
-316.006
-336.712
-355.305
-370.391
-382.118
-390.69
-396.678
-400.427
-402.055
-401.391
-398.527
-393.537
-386.138
-375.866
-362.317
-345.221
-325.182
-303.999
-282.046
-259.248
-236.065
-213.065
-190.627
-169.007
-148.414
-129.045
-111.109
-94.8263
-80.4199
-68.1026
-58.0639
-50.4633
-45.4282
-43.0551
-43.4112
-46.4822
-52.1931
-60.4396
-71.0859
-83.9644
-98.8788
-115.612
-133.941
-153.647
-174.526
-196.379
-218.991
-242.082
-265.227
-287.831
-309.562
-330.55
-350.004
-366.154
-378.843
-388.299
-395.042
-399.462
-401.774
-401.835
-399.641
-395.341
-388.714
-379.378
-366.794
-350.779
-331.432
-310.477
-288.807
-266.27
-243.113
-219.894
-197.051
-174.867
-153.549
-133.284
-114.257
-96.67
-80.7343
-66.6619
-54.6508
-44.8759
-37.4835
-32.5908
-30.2871
1.48439
-1.61537
-7.3656
-15.6506
-26.3261
-39.222
-54.1467
-70.8952
-89.2588
-109.036
-130.037
-152.087
-175.009
-198.602
-222.602
-246.671
-270.306
-293.032
-314.417
-333.948
-351.066
-364.282
-373.584
-379.902
-384.171
-386.233
-385.412
-382.028
-376.744
-368.923
-357.603
-342.061
-323.386
-302.666
-280.378
-257.028
-233.067
-209.041
-185.351
-162.313
-140.157
-119.081
-99.2742
-80.9371
-64.2817
-49.5261
-36.8843
-26.5545
-18.7117
-13.5019
-11.0403
-11.4102
-14.5937
-20.4985
-29.0015
-39.9487
-53.1587
-68.428
-85.5408
-104.279
-124.435
-145.81
-168.215
-191.449
-215.266
-239.322
-263.173
-286.285
-308.222
-328.443
-346.475
-360.94
-371.241
-378.306
-383.096
-385.895
-385.946
-383.229
-378.484
-371.472
-361.247
-346.929
-329.053
-309.008
-287.225
-264.226
-240.431
-216.343
-192.407
-168.961
-146.247
-124.452
-103.752
-84.3244
-66.3618
-50.0686
-35.6535
-23.319
-13.2515
-5.615
-0.54625
1.84653
34.4203
31.1688
25.1526
16.5097
5.40785
-7.96142
-23.3906
-40.6655
-59.5754
-79.9217
-101.523
-124.212
-147.829
-172.198
-197.101
-222.33
-247.452
-271.993
-295.379
-316.786
-335.225
-349.344
-358.581
-364.274
-367.83
-369.676
-368.952
-366.188
-361.669
-354.326
-342.407
-325.619
-305.248
-282.501
-258.28
-233.279
-208.013
-182.962
-158.405
-134.596
-111.735
-90.0038
-69.5823
-50.6641
-33.4582
-18.185
-5.06683
5.68243
13.8673
19.3191
21.9013
21.5127
18.1754
12.0006
3.1335
-8.2497
-21.9479
-37.7439
-55.4149
-74.7429
-95.5228
-117.565
-140.691
-164.719
-189.438
-214.582
-239.822
-264.671
-288.586
-310.803
-330.385
-345.997
-356.599
-363.047
-367.04
-369.381
-369.398
-367.051
-363.026
-356.586
-346.14
-330.783
-311.45
-289.445
-265.691
-240.956
-215.769
-190.601
-165.793
-141.594
-118.2
-95.7776
-74.4864
-54.496
-35.9924
-19.178
-4.26547
8.53193
19.01
26.9826
32.2896
34.801
66.0448
62.5824
56.1927
47.0438
35.3374
21.2993
5.1677
-12.8196
-32.4367
-53.4795
-75.771
-99.1601
-123.514
-148.701
-174.568
-200.977
-227.532
-253.748
-279.005
-302.452
-322.99
-338.982
-348.693
-353.188
-355.232
-356.109
-355.856
-354.544
-351.561
-344.526
-331.12
-312.22
-289.759
-265.044
-239.037
-212.469
-185.889
-159.752
-134.275
-109.641
-86.0061
-63.5203
-42.3488
-22.681
-4.73164
11.2632
25.0568
36.4042
45.0758
50.8696
53.6203
53.2059
49.6529
43.0958
33.7098
21.7053
7.31712
-9.20814
-27.6253
-47.7032
-69.2333
-92.0334
-115.944
-140.815
-166.49
-192.775
-219.396
-245.874
-271.624
-295.853
-317.537
-335.216
-346.908
-352.588
-354.985
-356.019
-355.97
-354.824
-352.344
-346.764
-335.369
-317.999
-296.576
-272.566
-246.989
-220.635
-194.078
-167.78
-142.066
-117.079
-92.9625
-69.845
-47.8628
-27.1731
-7.96012
9.56579
25.1746
38.6271
49.6873
58.1346
63.7752
66.451
95.6365
91.8901
84.9941
75.1563
62.6258
47.6786
30.6002
11.6688
-8.86022
-30.7668
-53.8727
-78.0424
-103.176
-129.195
-156.02
-183.557
-211.448
-239.218
-266.223
-291.587
-314.171
-332.447
-344.4
-349.478
-350.65
-350.827
-350.925
-350.619
-347.847
-339.085
-323.259
-302.224
-277.778
-251.218
-223.544
-195.51
-167.672
-140.454
-114.037
-88.5286
-64.0298
-40.6572
-18.5601
2.07065
21.0026
37.9689
52.6805
64.844
74.1791
80.437
83.4147
82.9658
79.1216
72.0448
61.9512
49.0994
33.7748
16.2717
-3.12548
-24.1576
-46.6027
-70.2811
-95.0532
-120.809
-147.449
-174.861
-202.795
-230.794
-258.26
-284.377
-308.076
-327.957
-342.072
-348.996
-350.802
-350.896
-350.788
-350.512
-348.68
-341.986
-328.208
-308.633
-285.198
-259.31
-232.031
-204.176
-176.333
-148.942
-122.326
-96.532
-71.6412
-47.7373
-24.9289
-3.3623
16.7731
35.247
51.797
66.1412
77.9949
87.0877
93.18
96.0767
123.093
118.974
111.409
100.659
87.0348
70.8819
52.5532
32.3861
10.682
-12.3098
-36.4015
-61.469
-87.446
-114.309
-142.058
-170.62
-199.69
-228.823
-257.39
-284.515
-309.058
-329.585
-344.356
-352.193
-354.704
-355.164
-355.194
-354.126
-349.111
-337.349
-319.042
-295.94
-269.635
-241.405
-212.249
-182.911
-153.924
-125.665
-98.2948
-71.8447
-46.3591
-21.921
1.33146
23.1963
43.4094
61.6547
77.5814
90.8264
101.04
107.909
111.185
110.691
106.464
98.7011
87.6704
73.6959
57.1333
38.345
17.6749
-4.57302
-28.1503
-52.8715
-78.6138
-105.306
-132.906
-161.39
-190.513
-219.864
-248.862
-276.699
-302.306
-324.329
-341.089
-350.987
-354.629
-355.217
-355.1
-354.36
-350.784
-341.157
-324.716
-302.989
-277.648
-250.049
-221.26
-192.088
-163.109
-134.725
-107.214
-80.5826
-54.8392
-30.0172
-6.19745
16.4795
37.8092
57.5277
75.3224
90.8496
103.756
113.704
120.391
123.578
148.763
144.168
135.748
123.826
108.794
91.0878
71.149
49.3954
26.193
1.8354
-23.4686
-49.5992
-76.5191
-104.258
-132.888
-162.356
-192.417
-222.678
-252.542
-281.164
-307.436
-330.009
-347.38
-358.388
-363.555
-365.152
-364.731
-361.6
-353.433
-338.756
-318.193
-293.231
-265.316
-235.677
-205.28
-174.835
-144.829
-115.579
-87.2283
-59.736
-33.0948
-7.35843
17.3372
40.7666
62.6175
82.5047
99.993
114.627
125.966
133.618
137.272
136.721
132.007
123.366
111.133
95.7161
77.5625
57.126
34.8313
11.0466
-13.9375
-39.9186
-66.7831
-94.4946
-123.069
-152.549
-182.711
-213.201
-243.481
-272.777
-300.053
-324.018
-343.185
-356.157
-362.789
-365.026
-364.949
-362.648
-356.143
-343.435
-324.568
-300.891
-273.886
-244.844
-214.804
-184.544
-154.602
-125.328
-96.9382
-69.4181
-42.7041
-16.782
8.29067
32.3709
55.227
76.5451
95.9431
112.994
127.255
138.3
145.749
149.304
173.218
168.038
158.559
145.182
128.4
108.758
86.8105
63.0759
38.0049
11.9518
-14.8406
-42.2457
-70.2472
-98.9201
-128.399
-158.65
-189.504
-220.628
-251.473
-281.24
-308.867
-333.084
-352.533
-366.113
-373.745
-376.591
-375.641
-370.421
-359.577
-342.575
-320.189
-293.742
-264.574
-233.849
-202.487
-171.149
-140.26
-110.067
-80.6829
-52.0116
-24.0013
3.31373
29.7887
55.1594
79.0472
100.977
120.407
136.765
149.497
158.115
162.235
161.614
156.3
146.574
132.852
115.644
95.5116
73.0242
48.7095
23.0202
-3.69374
-31.1989
-59.3808
-88.2309
-117.82
-148.212
-179.251
-210.648
-241.921
-272.341
-300.924
-326.449
-347.555
-362.988
-372.26
-376.246
-376.226
-372.273
-363.168
-347.996
-327.181
-301.946
-273.646
-243.505
-212.518
-181.418
-150.694
-120.63
-91.3693
-62.8799
-35.0367
-7.78523
18.8314
44.6566
69.4175
92.7327
114.131
133.08
149.025
161.429
169.82
173.828
197.089
191.211
180.468
165.349
146.466
124.496
100.125
73.9969
46.6627
18.5544
-10.0364
-38.9634
-68.2195
-97.9121
-128.219
-159.142
-190.592
-222.306
-253.794
-284.302
-312.827
-338.169
-359.057
-374.412
-383.786
-387.559
-386.195
-379.446
-366.734
-348.112
-324.454
-296.995
-266.99
-235.538
-203.5
-171.482
-139.841
-108.745
-78.2473
-48.2284
-18.6024
10.6043
39.2232
66.9351
93.277
117.664
139.424
157.847
172.247
182.016
186.689
185.985
179.957
168.937
153.433
134.077
111.569
86.6137
59.8647
31.8784
3.08171
-26.2446
-55.9709
-86.104
-116.755
-148
-179.765
-211.835
-243.791
-274.961
-304.42
-331.016
-353.477
-370.621
-381.75
-387.037
-387.073
-381.905
-370.983
-354.112
-331.947
-305.653
-276.501
-245.65
-214.039
-182.353
-151.021
-120.253
-90.1131
-60.5467
-31.3822
-2.53672
25.9481
53.8885
80.9552
106.683
130.491
151.722
169.687
183.718
193.232
197.78
220.964
214.282
202.078
184.944
163.626
138.954
111.764
82.8402
52.8531
22.3259
-8.38739
-39.104
-69.8113
-100.639
-131.763
-163.265
-195.133
-227.18
-258.97
-289.801
-318.736
-344.646
-366.329
-382.711
-393.117
-397.448
-395.811
-388.122
-374.3
-354.738
-330.388
-302.423
-272.021
-240.206
-207.768
-175.265
-142.981
-111.002
-79.297
-47.7439
-16.2387
15.1842
46.315
76.7621
105.962
133.202
157.663
178.477
194.803
205.901
211.211
210.412
203.562
191.047
173.483
151.641
126.378
98.5541
68.9677
38.2954
7.05747
-24.4001
-55.9153
-87.4936
-119.266
-151.327
-183.686
-216.211
-248.552
-280.089
-309.965
-337.108
-360.322
-378.469
-390.707
-396.804
-396.891
-390.991
-379
-361.152
-338.256
-311.443
-281.911
-250.748
-218.829
-186.795
-155.008
-123.604
-92.5598
-61.7869
-31.0864
-0.363429
30.3254
60.7528
90.5196
119.061
145.672
169.551
189.855
205.769
216.58
221.749
245.344
237.763
223.925
204.536
180.494
152.794
122.439
90.3642
57.3724
24.0883
-9.0624
-41.8367
-74.1982
-106.277
-138.242
-170.259
-202.396
-234.555
-266.343
-297.083
-325.941
-351.876
-373.76
-390.543
-401.438
-406.051
-404.249
-396.062
-381.721
-361.827
-337.34
-309.371
-279.006
-247.176
-214.563
-181.745
-148.9
-116.028
-83.0171
-49.7382
-16.0928
17.8591
51.844
85.381
117.796
148.235
175.719
199.206
217.685
230.268
236.29
235.385
227.615
213.43
193.562
168.941
140.593
109.551
76.7701
43.0596
9.04292
-24.8468
-58.396
-91.5901
-124.558
-157.419
-190.268
-223.065
-255.535
-287.064
-316.906
-344.08
-367.477
-386.01
-398.792
-405.328
-405.457
-399.191
-386.71
-368.511
-345.465
-318.662
-289.219
-258.136
-226.18
-194.005
-161.893
-129.894
-97.9031
-65.7789
-33.3193
-0.435489
32.7795
66.0368
98.8575
130.567
160.323
187.167
210.088
228.107
240.37
246.233
270.627
262.068
246.457
224.629
197.644
166.673
132.892
97.3958
61.1233
24.8068
-11.0655
-46.1452
-80.355
-113.805
-146.661
-179.161
-211.439
-243.45
-274.891
-305.203
-333.613
-359.166
-380.816
-397.551
-408.536
-413.222
-411.338
-402.981
-388.553
-368.758
-344.54
-316.937
-286.943
-255.402
-222.937
-189.963
-156.613
-122.819
-88.3961
-53.2081
-17.1874
19.5708
56.6943
93.5975
129.497
163.396
194.143
220.517
241.327
255.524
262.32
261.299
252.529
236.532
214.172
186.548
154.87
120.347
84.0991
47.0735
9.98931
-26.5991
-62.4068
-97.3846
-131.631
-165.3
-198.556
-231.423
-263.698
-294.909
-324.372
-351.196
-374.364
-392.848
-405.753
-412.454
-412.621
-406.26
-393.714
-375.61
-352.843
-326.447
-297.455
-266.782
-235.141
-203.041
-170.705
-138.125
-105.131
-71.5017
-37.07
-1.76202
34.2611
70.6247
106.775
141.921
175.079
205.124
230.873
251.173
265.011
271.63
297.122
287.521
270.042
245.664
215.617
181.247
143.905
104.84
65.1277
25.6201
-13.0794
-50.5957
-86.7914
-121.717
-155.536
-188.543
-220.926
-252.7
-283.645
-313.302
-340.991
-365.855
-386.939
-403.293
-414.083
-418.693
-416.783
-408.485
-394.285
-374.912
-351.269
-324.306
-294.917
-263.84
-231.609
-198.529
-164.663
-129.886
-93.9571
-56.7269
-18.1868
21.4875
61.8723
102.291
141.82
179.312
213.45
242.831
266.082
281.983
289.609
288.463
278.626
260.719
235.755
205.007
169.868
131.728
91.8661
51.377
11.1186
-28.2935
-66.5049
-103.394
-139.002
-173.526
-207.185
-240.062
-272.034
-302.734
-331.574
-357.765
-380.391
-398.501
-411.229
-417.901
-418.105
-411.842
-399.535
-381.864
-359.702
-334.013
-305.734
-275.683
-244.483
-212.537
-179.997
-146.8
-112.725
-77.4719
-40.9261
-3.07639
35.8792
75.5091
115.144
153.871
190.563
223.936
252.631
275.318
290.821
298.249
325.089
314.424
295.069
268.156
235.083
197.365
156.509
113.904
70.7515
28.0116
-13.6145
-53.6808
-91.9773
-128.481
-163.364
-196.953
-229.48
-261.009
-291.4
-320.286
-347.091
-371.067
-391.363
-407.11
-417.515
-421.954
-420.052
-411.963
-398.195
-379.46
-356.589
-330.432
-301.768
-271.227
-239.242
-206.025
-171.578
-135.727
-98.1955
-58.8165
-17.6578
25.0214
68.7148
112.647
155.774
196.812
234.292
266.646
292.326
309.942
318.417
317.141
306.219
286.396
258.846
225.013
186.464
144.75
101.3
57.34
13.8436
-28.4831
-69.2017
-108.109
-145.175
-180.638
-214.757
-247.664
-279.306
-309.411
-337.493
-362.876
-384.756
-402.278
-414.631
-421.151
-421.391
-415.353
-403.49
-386.478
-365.14
-340.347
-312.934
-283.606
-252.889
-221.093
-188.301
-154.401
-119.132
-82.157
-43.3851
-2.88003
39.0907
82.0168
125.129
167.402
207.579
244.231
275.84
300.906
318.087
326.344
354.754
343.076
321.949
292.661
256.763
215.921
171.772
125.825
79.3862
33.5115
-11.0083
-53.6431
-94.0976
-132.263
-168.318
-202.603
-235.37
-266.727
-296.599
-324.705
-350.576
-373.578
-392.974
-407.991
-417.903
-422.112
-420.237
-412.438
-399.214
-381.224
-359.21
-333.911
-305.987
-275.954
-244.147
-210.701
-175.564
-138.536
-99.3236
-57.7457
-13.9595
31.6831
78.5831
125.868
172.39
216.75
257.352
292.484
320.444
339.681
348.966
347.564
335.609
313.98
284.006
247.292
205.557
160.492
113.647
66.3623
19.7135
-25.4992
-68.7455
-109.731
-148.34
-184.85
-219.534
-252.559
-283.928
-313.455
-340.755
-365.269
-386.312
-403.133
-415.006
-421.304
-421.584
-415.844
-404.54
-388.311
-367.901
-344.083
-317.574
-288.968
-258.689
-226.962
-193.814
-159.095
-122.525
-83.7535
-42.7093
0.456429
45.3916
91.5005
137.923
183.535
226.972
266.684
301.015
328.314
347.083
356.133
386.284
373.713
351.044
319.702
281.372
237.835
190.831
141.954
92.5891
43.8674
-3.34147
-48.4236
-90.9926
-130.844
-168.157
-203.258
-236.401
-267.718
-297.183
-324.597
-349.588
-371.638
-390.124
-404.38
-413.76
-417.716
-415.871
-408.388
-395.733
-378.497
-357.322
-332.829
-305.561
-275.925
-244.166
-210.357
-174.412
-136.124
-95.2094
-51.4823
-5.19893
43.1918
93.0004
143.269
192.767
240.009
283.303
320.831
350.765
371.416
381.415
379.902
367.038
343.837
311.768
272.571
228.085
180.105
130.276
80.0198
30.4966
-17.4074
-63.0703
-106.102
-146.296
-183.949
-219.325
-252.601
-283.825
-312.879
-339.473
-363.161
-383.376
-399.483
-410.846
-416.902
-417.225
-411.814
-401.107
-385.686
-366.209
-343.336
-317.668
-289.689
-259.726
-227.935
-194.297
-158.644
-120.7
-80.1251
-36.8733
8.80958
56.4817
105.465
154.821
203.35
249.61
291.958
328.634
357.867
378.022
387.773
419.789
406.525
382.676
349.782
309.625
264.062
214.893
163.758
112.083
61.0492
11.5843
-35.6247
-80.1036
-121.55
-160.129
-196.125
-229.771
-261.199
-290.42
-317.294
-341.54
-362.744
-380.396
-393.934
-402.803
-406.506
-404.685
-397.497
-385.371
-368.818
-348.378
-324.561
-297.797
-268.397
-236.533
-202.233
-165.401
-125.845
-83.3221
-37.6572
10.792
61.4843
113.652
166.274
218.067
267.496
312.818
352.15
383.579
405.316
415.873
414.272
400.703
376.299
342.646
301.58
255.02
204.821
152.679
100.064
48.192
-1.98311
-49.7565
-94.6397
-136.371
-175.201
-211.364
-245.03
-276.266
-305.006
-331.041
-354.028
-373.51
-388.965
-399.854
-405.683
-406.055
-400.966
-390.832
-376.168
-357.538
-335.496
-310.529
-283.02
-253.214
-221.211
-186.966
-150.316
-111.01
-68.7534
-23.5294
24.3195
74.2672
125.566
177.222
227.989
276.382
320.71
359.15
389.848
411.068
421.366
455.337
441.659
417.134
383.38
342.233
295.575
245.215
192.792
139.732
87.2275
36.2356
-12.5058
-58.4503
-101.206
-140.902
-177.756
-211.949
-243.595
-272.716
-299.217
-322.883
-343.393
-360.336
-373.25
-381.662
-385.134
-383.322
-376.383
-364.701
-348.714
-328.864
-305.56
-279.135
-249.824
-217.746
-182.908
-145.226
-104.55
-60.708
-13.5586
36.4477
88.6948
142.361
196.395
249.499
300.136
346.561
386.878
419.144
441.508
452.402
450.746
436.756
411.664
377.132
335.048
287.358
235.925
182.447
128.397
75.0115
23.2797
-26.0327
-72.3556
-115.376
-155.268
-192.207
-226.328
-257.697
-286.277
-311.919
-334.363
-353.252
-368.164
-378.654
-384.294
-384.719
-379.924
-370.297
-356.288
-338.373
-317.004
-292.571
-265.371
-235.585
-203.277
-168.4
-130.816
-90.33
-46.7194
-0.00777248
49.3761
100.838
153.586
206.602
258.632
308.19
353.588
392.987
424.503
446.339
456.968
492.953
479.222
454.669
420.943
379.878
333.33
283.058
230.648
177.478
124.708
73.2849
23.9622
-22.6699
-66.1531
-106.558
-144.005
-178.603
-210.426
-239.482
-265.697
-288.904
-308.849
-325.204
-337.59
-345.611
-348.878
-347.063
-340.322
-329.001
-313.468
-294.086
-271.178
-245.005
-215.745
-183.491
-148.254
-109.985
-68.603
-24.0276
23.8151
74.408
127.091
181.028
235.176
288.274
338.835
385.167
425.42
457.675
480.078
491.021
489.354
475.312
450.192
415.686
373.678
326.082
274.713
221.214
167.013
113.317
61.1115
11.1857
-35.8392
-79.6075
-120.19
-157.674
-192.141
-223.625
-252.099
-277.446
-299.468
-317.884
-332.358
-342.524
-348.016
-348.497
-343.958
-334.764
-321.306
-303.982
-283.158
-259.145
-232.176
-202.393
-169.846
-134.508
-96.2923
-55.0795
-10.7475
36.6272
86.5549
138.405
191.375
244.464
296.456
345.916
391.207
430.537
462.041
483.917
494.595
532.625
519.281
495.483
462.857
423.177
378.211
329.613
278.86
227.232
175.806
125.471
76.9535
30.8416
-12.3809
-52.6993
-90.1179
-124.658
-156.333
-185.119
-210.938
-233.648
-253.038
-268.839
-280.74
-288.403
-291.483
-289.664
-283.103
-272.115
-257.013
-238.095
-215.623
-189.81
-160.805
-128.696
-93.5227
-55.2906
-14.0041
30.305
77.6136
127.381
178.951
231.52
284.107
335.539
384.432
429.208
468.122
499.342
521.07
531.712
530.087
516.443
492.094
458.708
418.105
372.104
322.413
270.563
217.882
165.494
114.331
65.1571
18.5982
-24.9669
-65.4815
-102.931
-137.317
-168.63
-196.82
-221.784
-243.356
-261.311
-275.374
-285.243
-290.601
-291.134
-286.829
-278.03
-265.082
-248.318
-228.039
-204.501
-177.896
-148.35
-115.924
-80.6291
-42.4465
-1.35316
42.6531
89.4343
138.482
189.173
240.741
292.25
342.57
390.37
434.121
472.133
502.623
523.84
534.226
574.307
561.857
539.714
509.422
472.63
430.959
385.9
338.772
290.704
242.642
195.368
149.527
105.649
64.1851
25.2571
-11.0184
-44.5692
-75.3384
-103.258
-128.229
-150.11
-168.715
-183.813
-195.138
-202.396
-205.278
-203.48
-197.158
-186.603
-172.089
-153.867
-132.163
-107.161
-79.0048
-47.8001
-13.6259
23.4449
63.3178
105.844
150.877
197.914
246.363
295.51
344.49
392.27
437.625
479.144
515.248
544.254
564.486
574.423
572.903
560.173
537.516
506.51
468.847
426.192
380.084
331.888
282.778
233.743
185.606
139.049
94.6399
52.75
13.574
-22.7636
-56.1804
-86.6063
-113.958
-138.121
-158.941
-176.223
-189.734
-199.216
-204.391
-204.961
-200.91
-192.564
-180.23
-164.194
-144.715
-122.011
-96.259
-67.5868
-36.0837
-1.81188
35.1716
74.7886
116.912
161.342
207.608
255.151
303.294
351.213
397.917
442.226
482.774
518.028
546.352
566.107
575.805
617.918
606.921
587.421
560.813
528.562
492.079
452.643
411.367
369.186
326.872
285.052
244.233
204.832
167.192
131.552
98.1363
67.0998
38.563
12.6391
-10.5463
-30.8435
-48.0735
-62.0277
-72.4714
-79.1467
-81.7708
-80.0549
-74.1542
-64.3388
-50.8519
-33.9166
-13.7336
9.5217
35.6989
64.668
96.3069
130.482
167.02
205.668
246.146
288.065
330.959
374.262
417.278
459.16
498.889
535.271
566.948
592.45
610.283
619.069
617.722
606.476
586.519
559.276
526.244
488.873
448.481
406.218
363.055
319.801
277.115
235.537
195.511
157.355
121.396
87.8558
56.8925
28.6328
3.1987
-19.2757
-38.6342
-54.6945
-67.2499
-76.0722
-80.9121
-81.4899
-77.7829
-70.1009
-58.7194
-43.8904
-25.8422
-4.77588
19.1375
45.7553
74.9569
106.63
140.647
176.843
214.968
254.772
295.894
337.896
380.241
422.267
463.16
501.939
537.448
568.366
593.261
610.671
619.245
663.351
654.39
638.564
617.05
591.063
561.752
530.138
497.086
463.306
429.362
395.69
362.62
330.393
299.181
269.32
241.109
214.755
190.415
168.23
148.343
130.907
116.093
104.092
95.1107
89.3749
87.1362
88.6585
93.7945
102.3
113.96
128.576
145.966
165.963
188.413
213.169
240.084
268.989
299.664
331.791
364.967
398.993
433.591
468.389
502.896
536.488
568.39
597.665
623.228
643.877
658.371
665.539
664.437
655.271
639.068
617.028
590.394
560.341
527.919
494.022
459.386
424.597
390.115
356.285
323.363
291.565
261.318
232.905
206.532
182.358
160.529
141.192
124.505
110.638
99.7783
92.127
87.9055
87.3695
90.5443
97.1477
106.936
119.689
135.203
153.294
173.795
196.556
221.437
248.293
276.957
307.204
338.699
371.169
404.426
438.208
472.158
505.81
538.562
569.666
598.214
623.149
643.297
657.442
664.437
710.492
704.147
693.013
677.982
659.957
639.769
618.141
595.661
572.789
549.866
527.119
504.681
482.586
460.78
439.652
419.516
400.573
382.974
366.851
352.331
339.55
328.654
319.799
313.154
308.903
307.25
308.417
312.276
318.624
327.286
338.099
350.911
365.579
381.969
399.948
419.379
440.105
461.913
484.486
507.347
530.544
554.021
577.621
601.08
624.016
645.921
666.153
683.94
698.408
708.63
713.717
712.932
706.438
695.029
679.614
661.114
640.38
618.152
595.036
571.506
547.911
524.488
501.366
478.571
456.165
434.614
414.205
395.135
377.554
361.597
347.397
335.089
324.82
316.743
311.024
307.844
307.417
309.768
314.661
321.898
331.3
342.702
355.95
370.901
387.422
405.384
424.654
445.068
466.401
488.287
510.481
533.016
555.831
578.771
601.58
623.889
645.205
664.904
682.232
696.335
706.304
711.265
759.169
755.981
750.488
743.226
734.722
725.44
715.761
705.972
696.27
686.765
677.49
668.39
659.311
649.966
640.711
631.78
623.297
615.344
607.987
601.295
595.341
590.209
585.991
582.79
580.722
579.919
580.529
582.466
585.594
589.8
594.986
601.06
607.939
615.549
623.819
632.678
642.042
651.785
661.682
671.281
680.886
690.65
700.616
710.738
720.88
730.82
740.237
748.72
755.775
760.859
763.432
763.031
759.76
754.113
746.638
737.869
728.281
718.261
708.104
698.01
688.089
678.363
668.759
659.086
649.219
639.564
630.323
621.609
613.503
606.075
599.397
593.545
588.604
584.668
581.838
580.232
579.993
581.14
583.516
586.992
591.457
596.812
602.966
609.839
617.358
625.456
634.063
643.089
652.383
661.649
670.728
679.874
689.215
698.781
708.522
718.307
727.915
737.035
745.263
752.116
757.059
759.562
809.409
809.845
810.805
812.402
814.719
817.797
821.634
826.186
831.374
837.085
843.177
849.47
855.718
861.515
867.012
872.233
877.135
881.66
885.753
889.363
892.454
894.997
896.976
898.389
899.246
899.577
899.426
898.765
897.56
895.795
893.472
890.604
887.217
883.348
879.044
874.363
869.363
864.094
858.55
852.517
846.43
840.546
835.051
830.089
825.771
822.171
819.326
817.23
815.829
815.032
814.718
814.759
815.186
816.129
817.703
819.99
823.031
826.822
831.315
836.425
842.033
847.982
854.07
859.992
865.474
870.681
875.605
880.194
884.389
888.138
891.393
894.121
896.3
897.919
898.98
899.505
899.531
899.068
898.068
896.508
894.381
891.694
888.465
884.725
880.515
875.886
870.895
865.596
860.02
854.082
847.806
841.551
835.547
829.962
824.931
820.56
816.919
814.041
811.918
810.498
809.687
809.366
)
;

boundaryField
{
    top
    {
        type            fixedFluxPressure;
        gradient        nonuniform List<scalar> 
102
(
1548.24
1667.93
1880.41
2170.94
2524.22
2925.7
3362.35
3823.1
4298.97
4783.08
5270.82
5760.42
6254.8
6767.29
7277.22
7772.28
8245
8689.48
9100.42
9472.76
9801.54
10081.9
10309.2
10478.8
10586.7
10628.5
10600.5
10504.9
10345.6
10126.7
9852.34
9527.15
9155.89
8743.53
8295.27
7816.58
7313.55
6793.72
6268.72
5763.71
5264.33
4767.53
4275.41
3793.14
3328.3
2890.66
2492.14
2146.56
1869.11
1675.43
1580.09
1594.71
1716.76
1933.59
2230.17
2590.87
3000.79
3446.55
3916.82
4402.38
4896.31
5394.25
5895.44
6405.78
6930
7446.07
7943.37
8414.72
8854.19
9256.39
9616.17
9928.61
10189
10392.8
10535.9
10614.3
10624.1
10564.6
10440.3
10255.2
10013.7
9720.29
9379.69
8996.8
8576.62
8124.26
7645.16
7145.56
6634.01
6126.53
5633.25
5143.78
4656.47
4173.85
3701.11
3245.65
2817.01
2426.77
2088.4
1816.75
1627.11
1533.8
)
;
        value           nonuniform List<scalar> 
102
(
835.213
837.644
842.145
848.584
856.789
866.558
877.673
889.905
903.024
916.803
931.024
945.477
959.965
974.303
988.299
1001.77
1014.55
1026.48
1037.43
1047.24
1055.81
1063.03
1068.8
1073.04
1075.69
1076.72
1076.1
1073.85
1069.99
1064.57
1057.68
1049.39
1039.82
1029.07
1017.3
1004.64
991.256
977.323
963.029
948.579
934.169
920.005
906.308
893.309
881.242
870.349
860.862
853.006
846.981
842.956
841.053
841.338
843.799
848.355
854.872
863.171
873.044
884.265
896.595
909.798
923.638
937.887
952.327
966.755
980.974
994.782
1007.99
1020.44
1031.96
1042.41
1051.66
1059.6
1066.12
1071.13
1074.58
1076.41
1076.6
1075.15
1072.07
1067.43
1061.28
1053.7
1044.79
1034.67
1023.46
1011.29
998.314
984.689
970.586
956.191
941.693
927.281
913.154
899.526
886.616
874.654
863.869
854.487
846.725
840.777
836.805
834.93
)
;
    }
    bottom
    {
        type            fixedFluxPressure;
        gradient        nonuniform List<scalar> 
102
(
0
0
0
0
0
0
0
0
0
0
0
0
0
0
0
0
0
0
0
0
0
0
0
0
0
0
0
0
0
0
0
0
0
0
0
0
0
0
0
0
0
0
0
0
0
0
0
0
0
0
0
0
0
0
0
0
0
0
0
0
0
0
0
0
0
0
0
0
0
0
0
0
0
0
0
0
0
0
0
0
0
0
0
0
0
0
0
0
0
0
0
0
0
0
0
0
0
0
0
0
0
-1.66021e-14
)
;
        value           nonuniform List<scalar> 
102
(
-38.8462
-42.021
-47.963
-56.6088
-67.8861
-81.7304
-98.0944
-116.94
-138.208
-161.787
-187.476
-214.973
-243.852
-273.529
-303.218
-331.925
-358.589
-382.279
-402.223
-417.908
-429.443
-437.291
-442.204
-445.022
-446.45
-446.937
-446.662
-445.549
-443.264
-439.202
-432.549
-422.482
-408.406
-390.02
-367.603
-341.862
-313.687
-284.163
-254.372
-225.216
-197.366
-171.32
-147.433
-125.942
-106.989
-90.6472
-76.9606
-65.9747
-57.7476
-52.3428
-49.8141
-50.1916
-53.4704
-59.6131
-68.562
-80.2536
-94.6331
-111.657
-131.278
-153.408
-177.883
-204.437
-232.681
-262.075
-291.894
-321.177
-348.816
-373.771
-395.2
-412.463
-425.457
-434.565
-440.461
-443.99
-445.923
-446.797
-446.877
-446.173
-444.437
-441.15
-435.554
-426.809
-414.23
-397.419
-376.434
-351.889
-324.596
-295.531
-265.756
-236.221
-207.652
-180.59
-155.425
-132.433
-111.788
-93.5849
-77.8741
-64.6939
-54.0962
-46.1489
-40.9234
-38.4785
)
;
    }
    frontAndBack
    {
        type            empty;
    }