/*--------------------------------*- C++ -*----------------------------------*\
| =========                 |                                                 |
| \\      /  F ield         | OpenFOAM: The Open Source CFD Toolbox           |
|  \\    /   O peration     | Version:  2.3.0                                 |
|   \\  /    A nd           | Web:      www.OpenFOAM.org                      |
|    \\/     M anipulation  |                                                 |
\*---------------------------------------------------------------------------*/
FoamFile
{
    version     2.0;
    format      ascii;
    class       volScalarField;
    location    "7000";
    object      p_rgh;
}
// * * * * * * * * * * * * * * * * * * * * * * * * * * * * * * * * * * * * * //

dimensions      [0 2 -2 0 0 0 0];

internalField   nonuniform List<scalar> 
3060
(
-955.934
-960.131
-967.795
-978.54
-991.8
-1006.9
-1023.28
-1040.92
-1060.8
-1084.68
-1113.86
-1147.88
-1185.1
-1223.82
-1262.36
-1299.14
-1332.73
-1362.21
-1386.86
-1405.64
-1418.29
-1425.64
-1428.91
-1429.63
-1429.18
-1428.57
-1428.27
-1428.26
-1428.02
-1426.54
-1422.36
-1413.96
-1400.14
-1380.11
-1354.22
-1323.51
-1288.8
-1251.28
-1212.6
-1174.64
-1139.15
-1107.73
-1081.36
-1059.73
-1041.6
-1025.68
-1011.49
-999.29
-989.631
-983.045
-979.914
-980.423
-984.542
-992.028
-1002.45
-1015.25
-1029.92
-1046.37
-1065.32
-1088.17
-1115.99
-1148.68
-1185.02
-1223.36
-1261.91
-1298.79
-1332.49
-1361.94
-1386.31
-1404.57
-1416.79
-1423.87
-1427.14
-1428.15
-1428.24
-1428.3
-1428.71
-1429.35
-1429.59
-1428.32
-1424.05
-1415.32
-1401.03
-1380.53
-1354.43
-1323.75
-1289.14
-1251.72
-1212.96
-1174.49
-1138
-1105.17
-1077.5
-1054.94
-1035.84
-1018.6
-1002.54
-987.883
-975.26
-965.325
-958.597
-955.414
-1079.06
-1079.16
-1079.31
-1079.53
-1079.91
-1080.84
-1083.22
-1088.71
-1099.49
-1117.11
-1141.27
-1169.87
-1200.68
-1232.01
-1262.33
-1290.41
-1316.53
-1342.11
-1366.23
-1385.73
-1399.26
-1407.82
-1412.64
-1415
-1415.94
-1416.12
-1415.86
-1415.14
-1413.62
-1410.61
-1405.03
-1395.6
-1381.11
-1360.7
-1336.01
-1310.08
-1283.53
-1255.05
-1224.82
-1194.33
-1165.25
-1139.53
-1119.18
-1105.36
-1097.54
-1093.9
-1092.54
-1092.17
-1092.14
-1092.18
-1092.21
-1092.21
-1092.17
-1092.13
-1092.22
-1092.77
-1094.61
-1099.2
-1108.53
-1124.2
-1146.23
-1173.09
-1202.74
-1233.33
-1263.19
-1291.05
-1317.31
-1343.1
-1366.93
-1385.7
-1398.68
-1406.9
-1411.64
-1414.15
-1415.39
-1415.96
-1416.11
-1415.76
-1414.51
-1411.58
-1405.86
-1396.03
-1380.9
-1359.83
-1335.01
-1309.34
-1282.83
-1254.05
-1223.3
-1191.97
-1161.59
-1133.97
-1111.47
-1095.83
-1086.75
-1082.33
-1080.49
-1079.77
-1079.46
-1079.27
-1079.13
-1079.05
-1076.86
-1077.97
-1080.08
-1083.27
-1087.75
-1093.83
-1101.98
-1112.77
-1126.73
-1143.99
-1164.02
-1185.76
-1208.36
-1231.46
-1255.1
-1279.82
-1306.03
-1331.94
-1354.04
-1371.44
-1385.22
-1394.68
-1400
-1402.74
-1404.06
-1404.52
-1404.31
-1403.41
-1401.62
-1398.35
-1392.42
-1382.3
-1367.96
-1350.03
-1327.55
-1301.79
-1276.31
-1252.51
-1229.81
-1207.78
-1186.42
-1166.29
-1148.27
-1133.15
-1121.18
-1112.09
-1105.38
-1100.55
-1097.22
-1095.15
-1094.21
-1094.36
-1095.61
-1098.01
-1101.72
-1107.03
-1114.35
-1124.19
-1137.03
-1153.02
-1171.71
-1192.27
-1213.85
-1236.04
-1258.97
-1283.22
-1309.06
-1334.25
-1355.43
-1372.29
-1385.59
-1394.42
-1399.45
-1402.22
-1403.72
-1404.42
-1404.45
-1403.78
-1402.14
-1398.84
-1392.51
-1381.74
-1366.98
-1348.39
-1324.97
-1298.61
-1272.77
-1248.43
-1224.97
-1202
-1179.58
-1158.21
-1138.86
-1122.5
-1109.46
-1099.47
-1091.95
-1086.36
-1082.26
-1079.38
-1077.56
-1076.72
-1041.5
-1043.34
-1046.78
-1051.89
-1058.77
-1067.62
-1078.72
-1092.35
-1108.6
-1127.2
-1147.45
-1168.51
-1189.89
-1211.43
-1233.22
-1255.46
-1278.56
-1302.07
-1324.66
-1345.69
-1362.47
-1374.3
-1381.98
-1385.96
-1388.03
-1388.95
-1388.8
-1387.56
-1385.16
-1380.81
-1372.75
-1360.64
-1343.71
-1322.91
-1300.66
-1277.52
-1254.88
-1233.1
-1211.83
-1190.9
-1170.28
-1150.22
-1131.33
-1114.35
-1099.84
-1087.94
-1078.52
-1071.32
-1066.14
-1062.81
-1061.27
-1061.52
-1063.55
-1067.39
-1073.11
-1080.9
-1090.99
-1103.61
-1118.84
-1136.41
-1155.71
-1175.97
-1196.69
-1217.69
-1239.08
-1261.07
-1283.95
-1306.97
-1328.88
-1348.93
-1364.41
-1375.43
-1382.3
-1385.96
-1388
-1388.94
-1388.79
-1387.58
-1385.1
-1380.29
-1371.38
-1358.36
-1340.1
-1318.48
-1295.56
-1272.03
-1249.19
-1227.12
-1205.41
-1183.91
-1162.59
-1141.69
-1121.81
-1103.81
-1088.28
-1075.38
-1064.94
-1056.66
-1050.29
-1045.66
-1042.66
-1041.27
-1007.51
-1009.69
-1013.76
-1019.71
-1027.58
-1037.44
-1049.4
-1063.55
-1079.92
-1098.33
-1118.42
-1139.72
-1161.81
-1184.4
-1207.27
-1230.14
-1252.75
-1275
-1297.04
-1318.62
-1337.08
-1351.35
-1360.68
-1366
-1369.02
-1370.56
-1370.47
-1368.75
-1365.56
-1360.14
-1350.8
-1336.71
-1318.37
-1296.87
-1274.81
-1252.45
-1229.76
-1206.96
-1184.38
-1162.28
-1140.9
-1120.58
-1101.72
-1084.77
-1070
-1057.51
-1047.29
-1039.26
-1033.33
-1029.47
-1027.67
-1027.96
-1030.34
-1034.77
-1041.28
-1049.91
-1060.75
-1073.87
-1089.27
-1106.79
-1126.1
-1146.75
-1168.36
-1190.62
-1213.29
-1236.09
-1258.7
-1280.95
-1302.96
-1323.88
-1341.05
-1353.88
-1361.95
-1366.6
-1369.36
-1370.66
-1370.28
-1368.33
-1364.8
-1358.56
-1347.82
-1332.34
-1312.79
-1290.89
-1268.83
-1246.48
-1223.78
-1200.89
-1178.07
-1155.59
-1133.68
-1112.68
-1093
-1075.13
-1059.38
-1045.84
-1034.48
-1025.19
-1017.86
-1012.44
-1008.89
-1007.24
-972.548
-975.114
-979.861
-986.738
-995.707
-1006.75
-1019.85
-1034.99
-1052.07
-1070.92
-1091.25
-1112.75
-1135.15
-1158.23
-1181.84
-1205.77
-1229.72
-1253.19
-1275.55
-1296.23
-1314.88
-1329.8
-1339.66
-1345.08
-1347.97
-1349.9
-1349.88
-1347.95
-1345.18
-1340.04
-1330.51
-1315.65
-1296.78
-1275.73
-1253.05
-1229.35
-1205.31
-1181.44
-1158.07
-1135.38
-1113.56
-1092.84
-1073.53
-1055.93
-1040.29
-1026.77
-1015.47
-1006.41
-999.628
-995.166
-993.073
-993.414
-996.171
-1001.28
-1008.7
-1018.38
-1030.31
-1044.42
-1060.63
-1078.73
-1098.47
-1119.52
-1141.6
-1164.5
-1188.03
-1211.99
-1235.99
-1259.48
-1281.77
-1302.25
-1320.29
-1333.68
-1341.85
-1346.04
-1348.59
-1350.11
-1349.5
-1347.24
-1343.95
-1337.4
-1326.14
-1309.93
-1290.66
-1269.46
-1246.73
-1223.06
-1199.08
-1175.21
-1151.73
-1128.83
-1106.66
-1085.45
-1065.5
-1047.12
-1030.56
-1015.99
-1003.46
-992.995
-984.607
-978.32
-974.176
-972.229
-939.665
-942.578
-947.94
-955.642
-965.574
-977.627
-991.695
-1007.67
-1025.41
-1044.73
-1065.44
-1087.31
-1110.14
-1133.81
-1158.18
-1183.11
-1208.27
-1233.22
-1257.36
-1279.86
-1299.6
-1314.67
-1323.55
-1327.2
-1328.49
-1329.54
-1329.64
-1328.87
-1328.09
-1324.97
-1316.18
-1300.72
-1280.51
-1257.56
-1233.05
-1207.81
-1182.49
-1157.54
-1133.28
-1109.86
-1087.42
-1066.15
-1046.26
-1027.98
-1011.54
-997.114
-984.861
-974.908
-967.375
-962.376
-960.02
-960.404
-963.504
-969.217
-977.433
-988.037
-1000.91
-1015.91
-1032.88
-1051.63
-1071.93
-1093.54
-1116.27
-1139.94
-1164.4
-1189.5
-1214.86
-1239.96
-1264.14
-1286.45
-1305.6
-1319.31
-1326.26
-1328.41
-1329.03
-1329.77
-1329.24
-1328.22
-1326.52
-1321.7
-1311.06
-1294.46
-1273.82
-1250.76
-1226.32
-1201.25
-1176.12
-1151.31
-1127.13
-1103.68
-1081.1
-1059.54
-1039.19
-1020.29
-1003.03
-987.574
-974.057
-962.584
-953.263
-946.203
-941.514
-939.301
-909.503
-912.797
-918.831
-927.434
-938.414
-951.571
-966.707
-983.631
-1002.16
-1022.11
-1043.3
-1065.58
-1088.85
-1113.04
-1138.11
-1163.94
-1190.22
-1216.51
-1242.22
-1266.49
-1288.16
-1305.33
-1314.87
-1316.61
-1315.16
-1314.32
-1314.59
-1316.11
-1318.32
-1316.89
-1307.03
-1289.32
-1267.12
-1242.36
-1216.22
-1189.56
-1163.02
-1137.06
-1111.98
-1087.85
-1064.76
-1042.83
-1022.2
-1003.09
-985.685
-970.218
-956.905
-945.963
-937.602
-932.015
-929.371
-929.803
-933.278
-939.653
-948.75
-960.372
-974.304
-990.33
-1008.23
-1027.79
-1048.79
-1071.06
-1094.45
-1118.85
-1144.18
-1170.35
-1196.98
-1223.56
-1249.42
-1273.6
-1294.8
-1310.7
-1317.99
-1317.8
-1315.52
-1314.42
-1314.4
-1315.59
-1316.68
-1313.11
-1301.16
-1282.46
-1259.93
-1235.15
-1209.21
-1182.86
-1156.67
-1131.02
-1106.2
-1082.27
-1059.26
-1037.27
-1016.41
-996.839
-978.741
-962.296
-947.692
-935.123
-924.786
-916.88
-911.594
-909.091
-881.974
-885.718
-892.549
-902.221
-914.448
-928.927
-945.36
-963.47
-983.012
-1003.78
-1025.62
-1048.43
-1072.17
-1096.85
-1122.51
-1149.11
-1176.36
-1203.86
-1231.01
-1256.93
-1280.42
-1299.77
-1312.09
-1314.95
-1312.07
-1309.63
-1310.11
-1313.52
-1317.07
-1314.19
-1301.39
-1281.49
-1257.45
-1231
-1203.36
-1175.41
-1147.78
-1120.89
-1095.03
-1070.18
-1046.35
-1023.6
-1002.04
-981.844
-963.232
-946.476
-931.877
-919.748
-910.399
-904.114
-901.13
-901.617
-905.537
-912.698
-922.848
-935.694
-950.923
-968.223
-987.301
-1007.9
-1029.81
-1052.86
-1076.98
-1102.12
-1128.27
-1155.4
-1183.16
-1211.1
-1238.51
-1264.43
-1287.53
-1305.83
-1315.98
-1316.41
-1312.34
-1309.65
-1310.04
-1313.03
-1315.01
-1309.57
-1294.92
-1274.2
-1249.89
-1223.52
-1196.2
-1168.71
-1141.61
-1115.24
-1089.86
-1065.46
-1041.98
-1019.43
-997.875
-977.429
-958.263
-940.595
-924.677
-910.796
-899.251
-890.344
-884.352
-881.506
-856.533
-860.824
-868.628
-879.611
-893.379
-909.506
-927.577
-947.211
-968.091
-989.971
-1012.7
-1036.19
-1060.49
-1085.66
-1111.87
-1139.11
-1167.15
-1195.66
-1224.05
-1251.46
-1276.69
-1298.13
-1313.44
-1320.04
-1319.2
-1316.94
-1317.54
-1320.8
-1322.1
-1315.33
-1299.55
-1277.57
-1251.78
-1223.8
-1194.85
-1165.79
-1137.22
-1109.5
-1082.86
-1057.21
-1032.5
-1008.71
-985.925
-964.318
-944.149
-925.76
-909.548
-895.946
-885.38
-878.24
-874.84
-875.396
-879.859
-887.985
-899.434
-913.804
-930.662
-949.583
-970.182
-992.138
-1015.22
-1039.27
-1064.24
-1090.16
-1117.11
-1145.09
-1173.84
-1202.93
-1231.71
-1259.22
-1284.14
-1304.68
-1318.19
-1322.32
-1319.81
-1317
-1317.38
-1319.84
-1319.12
-1309.96
-1292.65
-1269.96
-1243.98
-1216.19
-1187.69
-1159.26
-1131.41
-1104.45
-1078.54
-1053.63
-1029.56
-1006.28
-983.777
-962.156
-941.595
-922.362
-904.792
-889.28
-876.247
-866.113
-859.26
-855.996
-832.438
-837.391
-846.377
-858.963
-874.624
-892.796
-912.92
-934.496
-957.109
-980.457
-1004.36
-1028.78
-1053.78
-1079.52
-1106.26
-1134.02
-1162.69
-1191.98
-1221.36
-1250.03
-1276.81
-1300.19
-1318.23
-1328.89
-1332.15
-1331.94
-1332.51
-1333.58
-1330.62
-1319.77
-1301.3
-1277.4
-1250.05
-1220.78
-1190.75
-1160.78
-1131.41
-1102.92
-1075.46
-1048.89
-1023.08
-997.962
-973.604
-950.192
-928.048
-907.606
-889.39
-873.969
-861.911
-853.728
-849.824
-850.462
-855.585
-864.89
-877.935
-894.189
-913.078
-934.041
-956.576
-980.277
-1004.86
-1030.17
-1056.18
-1082.99
-1110.74
-1139.49
-1169.07
-1199.11
-1229.03
-1257.9
-1284.46
-1307.07
-1323.62
-1332.13
-1333.45
-1332.18
-1332.05
-1331.8
-1326.73
-1313.87
-1294.12
-1269.62
-1242.17
-1213.2
-1183.77
-1154.61
-1126.17
-1098.7
-1072.26
-1046.74
-1021.92
-997.643
-973.881
-950.715
-928.355
-907.138
-887.504
-869.975
-855.116
-843.485
-835.586
-831.818
-808.941
-814.679
-825.071
-839.572
-857.51
-878.155
-900.789
-924.765
-949.552
-974.772
-1000.21
-1025.83
-1051.73
-1078.16
-1105.43
-1133.64
-1162.77
-1192.62
-1222.73
-1252.34
-1280.34
-1305.34
-1325.64
-1339.61
-1346.76
-1349.11
-1349.56
-1347.88
-1340.92
-1326.76
-1306.06
-1280.56
-1251.96
-1221.7
-1190.85
-1160.18
-1130.12
-1100.89
-1072.54
-1044.88
-1017.71
-990.932
-964.6
-938.944
-914.363
-891.413
-870.764
-853.151
-839.304
-829.874
-825.372
-826.107
-832.017
-842.73
-857.692
-876.221
-897.579
-921.044
-945.972
-971.849
-998.319
-1025.21
-1052.5
-1080.33
-1108.92
-1138.39
-1168.65
-1199.43
-1230.2
-1260.13
-1288.02
-1312.36
-1331.41
-1343.54
-1348.73
-1349.55
-1348.74
-1345.38
-1336.42
-1320.55
-1298.77
-1272.78
-1244.19
-1214.35
-1184.25
-1154.56
-1125.67
-1097.73
-1070.72
-1044.47
-1018.66
-993.098
-967.707
-942.578
-917.972
-894.311
-872.162
-852.198
-835.147
-821.73
-812.588
-808.224
-785.386
-792.03
-804.051
-820.777
-841.372
-864.921
-890.524
-917.366
-944.784
-972.301
-999.653
-1026.79
-1053.84
-1081.1
-1108.94
-1137.55
-1167.01
-1197.2
-1227.73
-1257.92
-1286.74
-1312.87
-1334.81
-1351.12
-1361.08
-1365.45
-1365.77
-1361.85
-1351.98
-1335.47
-1313.15
-1286.5
-1257.06
-1226.14
-1194.75
-1163.56
-1132.92
-1102.96
-1073.61
-1044.66
-1015.84
-987.033
-958.308
-929.95
-902.463
-876.542
-853.031
-832.851
-816.916
-806.04
-800.844
-801.691
-808.512
-820.864
-838.064
-859.26
-883.529
-909.963
-937.753
-966.253
-995.019
-1023.83
-1052.67
-1081.7
-1111.21
-1141.36
-1172.17
-1203.47
-1234.81
-1265.43
-1294.24
-1319.85
-1340.69
-1355.39
-1363.46
-1366.04
-1364.7
-1358.93
-1347.2
-1329.2
-1305.94
-1278.92
-1249.6
-1219.22
-1188.72
-1158.71
-1129.49
-1101.11
-1073.45
-1046.28
-1019.23
-992.043
-964.63
-937.105
-909.791
-883.219
-858.102
-835.285
-815.68
-800.188
-789.609
-784.556
-761.241
-768.903
-782.76
-801.999
-825.602
-852.454
-881.453
-911.605
-942.09
-972.323
-1001.97
-1030.95
-1059.42
-1087.7
-1116.18
-1145.17
-1174.85
-1205.17
-1235.84
-1266.22
-1295.39
-1322.12
-1345
-1362.71
-1374.4
-1380.05
-1380.23
-1374.83
-1363.13
-1345.19
-1321.91
-1294.61
-1264.76
-1233.56
-1201.9
-1170.36
-1139.22
-1108.5
-1078.03
-1047.56
-1016.78
-985.574
-954.04
-922.541
-891.699
-862.372
-835.597
-812.502
-794.203
-781.689
-775.712
-776.686
-784.535
-798.741
-818.477
-842.707
-870.299
-900.142
-931.242
-962.801
-994.268
-1025.35
-1056.02
-1086.46
-1116.98
-1147.81
-1179.08
-1210.69
-1242.3
-1273.24
-1302.5
-1328.84
-1350.75
-1367.02
-1376.93
-1380.71
-1379.05
-1371.76
-1358.35
-1339.1
-1314.99
-1287.45
-1257.83
-1227.29
-1196.67
-1166.5
-1137.02
-1108.19
-1079.78
-1051.5
-1022.92
-993.763
-963.933
-933.585
-903.123
-873.201
-844.694
-818.636
-796.141
-778.308
-766.111
-760.285
-736.1
-744.878
-760.749
-782.746
-809.652
-840.141
-872.902
-906.747
-940.691
-974.025
-1006.33
-1037.5
-1067.65
-1097.14
-1126.36
-1155.75
-1185.61
-1215.89
-1246.39
-1276.58
-1305.61
-1332.34
-1355.51
-1373.86
-1386.45
-1392.79
-1392.86
-1386.56
-1373.85
-1355.19
-1331.56
-1304.21
-1274.42
-1243.29
-1211.62
-1179.88
-1148.24
-1116.72
-1085
-1052.77
-1019.73
-985.765
-951.038
-916.002
-881.414
-848.306
-817.926
-791.619
-770.717
-756.401
-749.563
-750.676
-759.657
-775.905
-798.434
-826.007
-857.275
-890.908
-925.712
-960.724
-995.269
-1028.98
-1061.77
-1093.82
-1125.46
-1157
-1188.68
-1220.43
-1252.02
-1282.87
-1312.1
-1338.55
-1360.92
-1378.01
-1388.96
-1393.46
-1391.65
-1383.56
-1369.29
-1349.49
-1325.19
-1297.7
-1268.25
-1237.89
-1207.41
-1177.23
-1147.51
-1118.2
-1088.92
-1059.31
-1028.91
-997.429
-964.81
-931.251
-897.251
-863.597
-831.344
-801.72
-776.053
-755.652
-741.678
-735.005
-709.66
-719.638
-737.663
-762.598
-793.02
-827.383
-864.173
-902.005
-939.716
-976.473
-1011.77
-1045.42
-1077.53
-1108.43
-1138.53
-1168.34
-1198.23
-1228.3
-1258.4
-1288.09
-1316.59
-1342.9
-1365.85
-1384.26
-1397.12
-1403.72
-1403.68
-1396.95
-1383.83
-1365.01
-1341.51
-1314.49
-1285.11
-1254.32
-1222.84
-1191.06
-1159.05
-1126.66
-1093.54
-1059.32
-1023.73
-986.695
-948.454
-909.566
-870.932
-833.762
-799.526
-769.789
-746.102
-729.851
-722.084
-723.349
-733.55
-751.986
-777.501
-808.644
-843.848
-881.559
-920.37
-959.153
-997.099
-1033.74
-1068.93
-1102.82
-1135.7
-1167.95
-1199.9
-1231.62
-1262.96
-1293.44
-1322.28
-1348.44
-1370.75
-1388.08
-1399.48
-1404.36
-1402.53
-1394.14
-1379.65
-1359.86
-1335.86
-1308.82
-1279.9
-1250.03
-1219.9
-1189.88
-1160.03
-1130.18
-1099.89
-1068.7
-1036.19
-1002.08
-966.342
-929.253
-891.411
-853.736
-817.479
-784.059
-755.016
-731.877
-716.001
-708.416
-681.702
-692.95
-713.22
-741.191
-775.229
-813.571
-854.489
-896.418
-938.057
-978.438
-1016.95
-1053.34
-1087.65
-1120.16
-1151.3
-1181.64
-1211.61
-1241.41
-1270.97
-1299.94
-1327.64
-1353.19
-1375.52
-1393.55
-1406.24
-1412.78
-1412.64
-1405.79
-1392.69
-1374.14
-1351.13
-1324.75
-1296.02
-1265.76
-1234.58
-1202.76
-1170.3
-1136.94
-1102.26
-1065.84
-1027.46
-987.14
-945.185
-902.277
-859.466
-818.136
-779.937
-746.656
-720.077
-701.796
-693.038
-694.466
-705.961
-726.687
-755.297
-790.123
-829.365
-871.259
-914.22
-956.95
-998.503
-1038.3
-1076.13
-1112.04
-1146.3
-1179.37
-1211.65
-1243.3
-1274.27
-1304.18
-1332.36
-1357.91
-1379.78
-1396.91
-1408.34
-1413.36
-1411.6
-1403.29
-1389.02
-1369.69
-1346.35
-1320.1
-1291.96
-1262.77
-1233.12
-1203.27
-1173.23
-1142.72
-1111.26
-1078.27
-1043.4
-1006.41
-967.331
-926.521
-884.688
-842.896
-802.53
-765.212
-732.693
-706.717
-688.852
-680.297
-652.015
-664.535
-687.032
-717.995
-755.585
-797.841
-842.849
-888.884
-934.505
-978.622
-1020.52
-1059.84
-1096.57
-1130.9
-1163.26
-1194.28
-1224.45
-1254.02
-1283.01
-1311.15
-1337.88
-1362.44
-1383.88
-1401.2
-1413.43
-1419.71
-1419.48
-1412.7
-1399.91
-1381.91
-1359.65
-1334.1
-1306.14
-1276.49
-1245.61
-1213.69
-1180.65
-1146.16
-1109.74
-1070.93
-1029.59
-985.817
-940.039
-893.057
-846.06
-800.592
-758.478
-721.705
-692.265
-671.961
-662.205
-663.8
-676.594
-699.595
-731.263
-769.719
-812.955
-859.017
-906.148
-952.895
-998.177
-1041.3
-1081.94
-1120.07
-1155.9
-1189.94
-1222.65
-1254.29
-1284.86
-1314.1
-1341.47
-1366.2
-1387.37
-1404.02
-1415.21
-1420.21
-1418.59
-1410.58
-1396.84
-1378.27
-1355.86
-1330.61
-1303.42
-1275
-1245.83
-1216.1
-1185.74
-1154.4
-1121.56
-1086.58
-1049.14
-1009.07
-966.501
-921.874
-876.012
-830.105
-785.681
-744.53
-708.595
-679.822
-659.978
-650.446
-620.434
-634.158
-658.744
-692.5
-733.406
-779.332
-828.211
-878.181
-927.683
-975.514
-1020.85
-1063.24
-1102.54
-1138.88
-1172.69
-1204.6
-1235.13
-1264.6
-1293.08
-1320.4
-1346.11
-1369.57
-1389.97
-1406.41
-1417.99
-1423.92
-1423.59
-1416.99
-1404.66
-1387.37
-1365.98
-1341.33
-1314.17
-1285.08
-1254.41
-1222.24
-1188.43
-1152.61
-1114.27
-1072.92
-1028.5
-981.233
-931.66
-880.705
-829.689
-780.295
-734.498
-694.452
-662.327
-640.118
-629.414
-631.168
-645.192
-670.334
-704.868
-746.729
-793.732
-843.76
-894.909
-945.591
-994.596
-1041.11
-1084.68
-1125.18
-1162.77
-1197.99
-1231.32
-1263.06
-1293.32
-1321.92
-1348.45
-1372.28
-1392.62
-1408.61
-1419.42
-1424.32
-1422.87
-1415.3
-1402.28
-1384.65
-1363.31
-1339.14
-1312.93
-1285.25
-1256.49
-1226.74
-1195.86
-1163.48
-1129.03
-1091.88
-1051.71
-1008.47
-962.376
-913.978
-864.208
-814.371
-766.119
-721.381
-682.258
-650.87
-629.167
-618.709
-586.85
-601.63
-628.033
-664.209
-707.992
-757.123
-809.425
-862.94
-916.014
-967.351
-1016.03
-1061.47
-1103.45
-1141.94
-1177.4
-1210.44
-1241.58
-1271.15
-1299.29
-1325.9
-1350.67
-1373.06
-1392.39
-1407.88
-1418.75
-1424.25
-1423.82
-1417.44
-1405.63
-1389.09
-1368.56
-1344.75
-1318.29
-1289.61
-1258.95
-1226.33
-1191.53
-1154.18
-1113.77
-1069.78
-1022.3
-971.643
-918.489
-863.876
-809.234
-756.356
-707.329
-664.428
-629.965
-606.088
-594.547
-596.442
-611.55
-638.562
-675.592
-720.425
-770.741
-824.303
-879.097
-933.426
-985.968
-1035.79
-1082.31
-1125.29
-1164.81
-1201.41
-1235.58
-1267.65
-1297.77
-1325.87
-1351.65
-1374.61
-1394.11
-1409.42
-1419.78
-1424.55
-1423.28
-1416.23
-1403.99
-1387.35
-1367.09
-1343.98
-1318.66
-1291.59
-1263.05
-1233.06
-1201.44
-1167.78
-1131.54
-1092.08
-1049.12
-1002.73
-953.241
-901.31
-847.967
-794.611
-742.986
-695.124
-653.238
-619.583
-596.259
-584.986
-551.198
-566.801
-594.603
-632.629
-678.617
-730.231
-785.238
-841.631
-897.701
-952.085
-1003.77
-1052.1
-1096.68
-1137.4
-1174.67
-1209.05
-1241.04
-1270.97
-1299.02
-1325.15
-1349.15
-1370.6
-1388.95
-1403.55
-1413.71
-1418.78
-1418.24
-1412.07
-1400.75
-1384.88
-1365.09
-1341.96
-1315.99
-1287.48
-1256.59
-1223.25
-1187.25
-1148.2
-1105.64
-1059.09
-1008.73
-955.02
-898.753
-841.068
-783.474
-727.828
-676.281
-631.176
-594.909
-569.735
-557.535
-559.543
-575.501
-603.962
-642.917
-690.05
-742.961
-799.348
-857.135
-914.556
-970.203
-1023.04
-1072.36
-1117.79
-1159.34
-1197.51
-1232.75
-1265.4
-1295.63
-1323.46
-1348.69
-1370.94
-1389.7
-1404.38
-1414.32
-1418.97
-1417.91
-1411.36
-1399.9
-1384.18
-1364.91
-1342.7
-1318.07
-1291.39
-1262.82
-1232.34
-1199.72
-1164.58
-1126.4
-1084.6
-1038.95
-989.641
-937.119
-882.149
-825.837
-769.647
-715.374
-665.101
-621.101
-585.71
-561.135
-549.223
-513.457
-529.56
-558.183
-597.278
-644.541
-697.627
-754.308
-812.584
-870.741
-927.388
-981.459
-1032.19
-1079.11
-1121.93
-1161.03
-1196.89
-1229.93
-1260.48
-1288.7
-1314.63
-1338.12
-1358.86
-1376.41
-1390.24
-1399.77
-1404.45
-1403.78
-1397.77
-1386.83
-1371.48
-1352.23
-1329.54
-1303.78
-1275.18
-1243.79
-1209.53
-1172.17
-1131.38
-1086.76
-1037.94
-985.168
-929.051
-870.471
-810.638
-751.097
-693.72
-640.655
-594.248
-556.916
-530.964
-518.354
-520.434
-536.914
-566.241
-606.331
-654.826
-709.315
-767.494
-827.285
-886.906
-944.901
-1000.16
-1051.87
-1099.51
-1143.04
-1182.86
-1219.33
-1252.78
-1283.39
-1311.22
-1336.16
-1357.93
-1376.15
-1390.33
-1399.95
-1404.52
-1403.66
-1397.58
-1386.79
-1371.86
-1353.37
-1331.83
-1307.64
-1281.06
-1252.2
-1220.98
-1187.18
-1150.46
-1110.35
-1066.38
-1018.37
-966.647
-911.77
-854.583
-796.241
-738.227
-682.339
-630.648
-585.429
-549.033
-523.717
-511.413
-473.651
-489.837
-518.542
-557.702
-605.041
-658.275
-715.25
-774.036
-832.974
-890.694
-946.112
-998.412
-1047.02
-1091.53
-1132.25
-1169.51
-1203.67
-1234.97
-1263.59
-1289.55
-1312.78
-1333.04
-1350.01
-1363.24
-1372.26
-1376.59
-1375.8
-1369.86
-1359.17
-1344.16
-1325.23
-1302.74
-1276.96
-1248.04
-1216
-1180.74
-1142.08
-1099.74
-1053.46
-1002.98
-948.657
-891.181
-831.501
-770.85
-710.754
-653.032
-599.765
-553.229
-515.785
-489.721
-477.026
-479.125
-495.703
-525.142
-565.345
-613.985
-668.708
-727.285
-787.702
-848.219
-907.393
-964.072
-1017.38
-1066.69
-1111.86
-1153.16
-1190.85
-1225.2
-1256.38
-1284.43
-1309.32
-1330.85
-1348.73
-1362.59
-1372
-1376.54
-1375.87
-1370.19
-1359.95
-1345.63
-1327.71
-1306.59
-1282.58
-1255.87
-1226.52
-1194.44
-1159.44
-1121.23
-1079.47
-1033.8
-984.125
-930.893
-874.744
-816.567
-757.525
-699.067
-642.934
-591.123
-545.835
-509.37
-483.968
-471.59
-431.839
-447.599
-475.489
-513.495
-559.445
-611.186
-666.711
-724.228
-782.193
-839.314
-894.548
-947.069
-996.248
-1041.61
-1083.31
-1121.57
-1156.58
-1188.52
-1217.52
-1243.61
-1266.71
-1286.66
-1303.2
-1315.97
-1324.58
-1328.62
-1327.69
-1321.78
-1311.25
-1296.44
-1277.69
-1255.27
-1229.38
-1200.13
-1167.53
-1131.51
-1091.94
-1048.67
-1001.56
-950.535
-896.005
-838.724
-779.647
-719.964
-661.119
-604.811
-552.977
-507.748
-471.356
-445.992
-433.61
-435.661
-451.818
-480.454
-519.524
-566.807
-620.088
-677.284
-736.52
-796.166
-854.851
-911.451
-965.072
-1015.02
-1061.05
-1103.28
-1141.85
-1176.91
-1208.58
-1236.9
-1261.84
-1283.27
-1300.96
-1314.61
-1323.9
-1328.46
-1327.97
-1322.61
-1312.8
-1298.95
-1281.43
-1260.58
-1236.63
-1209.73
-1179.91
-1147.12
-1111.22
-1072.01
-1029.29
-982.834
-932.679
-879.338
-823.491
-766.023
-708.046
-650.921
-596.264
-545.931
-501.979
-466.582
-441.888
-429.826
-388.172
-402.917
-428.954
-464.395
-507.243
-555.552
-607.529
-661.583
-716.348
-770.675
-823.619
-874.412
-922.436
-967.188
-1008.68
-1046.94
-1082.04
-1114.06
-1143.03
-1168.97
-1191.8
-1211.37
-1227.46
-1239.79
-1248.02
-1251.8
-1250.75
-1244.88
-1234.51
-1219.94
-1201.45
-1179.24
-1153.49
-1124.3
-1091.68
-1055.64
-1016.13
-973.125
-926.641
-876.794
-824.033
-769.089
-712.854
-656.41
-601.046
-548.27
-499.809
-457.57
-423.58
-399.861
-388.255
-390.181
-405.315
-432.081
-468.566
-512.733
-562.576
-616.235
-672.041
-728.547
-784.522
-838.943
-890.963
-939.891
-985.415
-1027.45
-1066
-1101.08
-1132.74
-1160.99
-1185.77
-1206.96
-1224.39
-1237.82
-1246.97
-1251.54
-1251.21
-1246.15
-1236.74
-1223.34
-1206.25
-1185.76
-1162.05
-1135.26
-1105.43
-1072.56
-1036.58
-997.412
-954.99
-909.294
-860.452
-808.998
-755.588
-701.039
-646.35
-592.731
-541.61
-494.639
-453.659
-420.644
-397.578
-386.283
-342.71
-355.793
-378.838
-410.159
-448.009
-490.715
-536.757
-584.804
-633.724
-682.566
-730.547
-777.027
-821.478
-863.459
-902.805
-939.375
-973.102
-1003.96
-1031.91
-1056.9
-1078.83
-1097.55
-1112.88
-1124.55
-1132.29
-1135.78
-1134.66
-1128.95
-1118.97
-1104.96
-1087.17
-1065.78
-1040.95
-1012.78
-981.368
-946.751
-908.991
-868.184
-824.511
-778.28
-729.913
-680.036
-629.398
-578.897
-529.603
-482.774
-439.857
-402.478
-372.383
-351.348
-341.03
-342.746
-356.19
-379.914
-412.211
-451.299
-495.459
-543.111
-592.859
-643.5
-694.013
-743.543
-791.379
-836.926
-879.82
-919.79
-956.684
-990.416
-1020.93
-1048.18
-1072.07
-1092.48
-1109.24
-1122.16
-1130.98
-1135.44
-1135.24
-1130.53
-1121.67
-1108.96
-1092.66
-1073.03
-1050.23
-1024.4
-995.639
-963.978
-929.449
-892.088
-851.974
-809.272
-764.214
-717.261
-668.971
-620.024
-571.246
-523.637
-478.385
-436.875
-400.674
-371.487
-351.06
-341.029
-295.424
-306.169
-325.037
-350.619
-381.486
-416.296
-453.853
-493.129
-533.265
-573.557
-613.437
-652.456
-690.256
-726.556
-761.022
-793.371
-823.43
-851.08
-876.22
-898.745
-918.525
-935.402
-949.187
-959.661
-966.576
-969.65
-968.553
-963.322
-954.235
-941.526
-925.401
-906.042
-883.606
-858.23
-830.033
-799.133
-765.667
-729.833
-691.933
-652.445
-611.694
-570.105
-528.209
-486.661
-446.259
-407.96
-372.89
-342.331
-317.691
-300.429
-291.933
-293.35
-304.408
-323.863
-350.293
-382.242
-418.332
-457.322
-498.133
-539.855
-581.731
-623.141
-663.588
-702.67
-740.022
-775.216
-807.982
-838.143
-865.568
-890.139
-911.735
-930.213
-945.408
-957.132
-965.172
-969.286
-969.186
-965.014
-957.083
-945.663
-930.996
-913.293
-892.733
-869.466
-843.615
-815.281
-784.567
-751.603
-716.586
-679.842
-641.669
-602.369
-562.322
-522.01
-482.036
-443.146
-406.245
-372.409
-342.877
-319.024
-302.286
-294.039
-251.887
-259.525
-272.859
-290.834
-312.412
-336.636
-362.683
-389.865
-417.634
-445.563
-473.343
-500.763
-527.713
-554.166
-579.673
-603.887
-626.589
-647.63
-666.882
-684.217
-699.501
-712.581
-723.286
-731.427
-736.798
-739.164
-738.243
-734.074
-726.901
-716.92
-704.312
-689.238
-671.849
-652.287
-630.688
-607.191
-581.965
-555.237
-527.356
-498.896
-469.993
-440.789
-411.537
-382.6
-354.466
-327.753
-303.217
-281.749
-264.355
-252.104
-246.041
-247.056
-254.935
-268.722
-287.353
-309.77
-334.996
-362.175
-390.592
-419.664
-448.939
-478.087
-506.887
-535.225
-562.813
-589.144
-613.905
-636.888
-657.935
-676.906
-693.666
-708.071
-719.967
-729.185
-735.545
-738.839
-738.815
-735.588
-729.424
-720.549
-709.164
-695.454
-679.584
-661.7
-641.937
-620.418
-597.277
-572.679
-546.871
-520.268
-493.169
-465.625
-437.773
-409.849
-382.194
-355.266
-329.653
-306.077
-285.405
-268.617
-256.769
-250.896
-171.777
-176.359
-184.315
-194.986
-207.729
-221.97
-237.224
-253.099
-269.301
-285.619
-301.931
-318.208
-334.536
-351.145
-367.517
-383.298
-398.278
-412.308
-425.259
-437.009
-447.431
-456.391
-463.748
-469.354
-473.055
-474.678
-474.02
-471.115
-466.142
-459.25
-450.579
-440.265
-428.439
-415.231
-400.773
-385.204
-368.682
-351.421
-333.754
-316.287
-298.966
-281.689
-264.489
-247.509
-230.992
-215.272
-200.783
-188.051
-177.687
-170.35
-166.702
-167.314
-172.049
-180.294
-191.381
-204.659
-219.54
-235.522
-252.2
-269.264
-286.5
-303.794
-321.149
-338.711
-356.291
-373.365
-389.637
-404.911
-419.034
-431.871
-443.29
-453.161
-461.352
-467.724
-472.139
-474.44
-474.44
-472.221
-467.974
-461.865
-454.047
-444.666
-433.861
-421.763
-408.499
-394.191
-378.972
-363.005
-346.538
-330.01
-313.693
-297.396
-281.067
-264.761
-248.624
-232.886
-217.871
-203.995
-191.768
-181.789
-174.708
-171.18
-262.393
-260.136
-255.782
-249.292
-240.701
-230.119
-217.723
-203.745
-188.46
-172.174
-155.223
-137.983
-120.92
-104.748
-89.3148
-74.6553
-60.9035
-48.2055
-36.6957
-26.4889
-17.6784
-10.335
-4.50689
-0.219979
2.52259
3.74363
3.50127
1.78109
-1.46383
-6.24676
-12.5553
-20.353
-29.5797
-40.1506
-51.9562
-64.8647
-78.7263
-93.3897
-108.757
-125
-141.589
-157.955
-173.674
-188.39
-201.783
-213.574
-223.534
-231.494
-237.356
-241.1
-242.782
-242.518
-240.273
-235.944
-229.494
-220.967
-210.479
-198.219
-184.43
-169.404
-153.469
-136.998
-120.441
-104.446
-89.2599
-74.8018
-61.1886
-48.5722
-37.0977
-26.8909
-18.0543
-10.6658
-4.77922
-0.424129
2.39374
3.69566
3.53871
1.89791
-1.27364
-5.99101
-12.2446
-20.0024
-29.2098
-39.7898
-51.643
-64.6489
-78.6693
-93.5594
-109.206
-125.672
-142.82
-160.012
-176.809
-192.846
-207.795
-221.356
-233.266
-243.307
-251.319
-257.212
-260.973
-262.66
)
;

boundaryField
{
    top
    {
        type            fixedValue;
        value           uniform 0;
    }
    bottom
    {
        type            fixedFluxPressure;
        gradient        nonuniform List<scalar> 
102
(
0
0
0
0
0
0
0
0
0
0
0
0
0
0
0
0
0
0
0
0
0
0
0
0
0
0
0
0
0
0
0
0
0
0
0
0
0
0
0
0
0
0
0
0
0
0
0
0
0
0
0
0
0
0
0
0
0
0
0
0
0
0
0
0
0
0
0
0
0
0
0
0
0
0
0
0
0
0
0
0
0
0
0
0
0
0
0
0
0
0
0
0
0
0
0
0
0
0
0
0
0
-2.11835e-14
)
;
        value           nonuniform List<scalar> 
102
(
-955.934
-960.131
-967.795
-978.54
-991.8
-1006.9
-1023.28
-1040.92
-1060.8
-1084.68
-1113.86
-1147.88
-1185.1
-1223.82
-1262.36
-1299.14
-1332.73
-1362.21
-1386.86
-1405.64
-1418.29
-1425.64
-1428.91
-1429.63
-1429.18
-1428.57
-1428.27
-1428.26
-1428.02
-1426.54
-1422.36
-1413.96
-1400.14
-1380.11
-1354.22
-1323.51
-1288.8
-1251.28
-1212.6
-1174.64
-1139.15
-1107.73
-1081.36
-1059.73
-1041.6
-1025.68
-1011.49
-999.29
-989.631
-983.045
-979.914
-980.423
-984.542
-992.028
-1002.45
-1015.25
-1029.92
-1046.37
-1065.32
-1088.17
-1115.99
-1148.68
-1185.02
-1223.36
-1261.91
-1298.79
-1332.49
-1361.94
-1386.31
-1404.57
-1416.79
-1423.87
-1427.14
-1428.15
-1428.24
-1428.3
-1428.71
-1429.35
-1429.59
-1428.32
-1424.05
-1415.32
-1401.03
-1380.53
-1354.43
-1323.75
-1289.14
-1251.72
-1212.96
-1174.49
-1138
-1105.17
-1077.5
-1054.94
-1035.84
-1018.6
-1002.54
-987.883
-975.26
-965.325
-958.597
-955.414
)
;
    }
    frontAndBack
    {
        type            empty;
    }
    left_cyc
    {
        type            cyclic;
    }
    right_cyc
    {
        type            cyclic;
    }
}


// ************************************************************************* //
