/*--------------------------------*- C++ -*----------------------------------*\
| =========                 |                                                 |
| \\      /  F ield         | OpenFOAM: The Open Source CFD Toolbox           |
|  \\    /   O peration     | Version:  2.3.0                                 |
|   \\  /    A nd           | Web:      www.OpenFOAM.org                      |
|    \\/     M anipulation  |                                                 |
\*---------------------------------------------------------------------------*/
FoamFile
{
    version     2.0;
    format      ascii;
    class       surfaceScalarField;
    location    "7000";
    object      phi;
}
// * * * * * * * * * * * * * * * * * * * * * * * * * * * * * * * * * * * * * //

dimensions      [0 3 -1 0 0 0 0];

internalField   nonuniform List<scalar> 
5988
(
0.00358339
-0.00316942
0.00669925
-0.00311586
0.00971631
-0.00301705
0.0125925
-0.00287621
0.01529
-0.00269753
0.017776
-0.00248599
0.0200231
-0.00224704
0.022009
-0.00198589
0.0237151
-0.00170612
0.0251229
-0.00140778
0.0262084
-0.00108552
0.0269365
-0.000728098
0.0272566
-0.000320127
0.0271034
0.000153167
0.0264067
0.000696784
0.0251143
0.00129239
0.023221
0.00189323
0.0207843
0.00243679
0.0179358
0.00284846
0.01487
0.00306581
0.0117858
0.00308418
0.00885407
0.00293173
0.00617534
0.00267873
0.0037603
0.00241504
0.0015448
0.0022155
-0.000579087
0.00212389
-0.00273546
0.00215637
-0.00504232
0.00230686
-0.00758734
0.00254502
-0.0103968
0.00280946
-0.0134095
0.00301268
-0.01648
0.00307048
-0.0194159
0.00293594
-0.0220113
0.00259537
-0.0240994
0.0020881
-0.0255878
0.00148844
-0.0264533
0.000865449
-0.0267319
0.000278662
-0.0264919
-0.000240049
-0.0258039
-0.000687946
-0.0247266
-0.00107729
-0.023303
-0.00142361
-0.0215638
-0.00173925
-0.0195329
-0.00203086
-0.0172335
-0.00229946
-0.0146913
-0.00254214
-0.0119372
-0.00275412
-0.00900699
-0.00293021
-0.00594135
-0.00306564
-0.00278494
-0.00315641
0.000414533
-0.00319947
0.00360756
-0.00319303
0.00674496
-0.0031374
0.00977972
-0.00303476
0.0126681
-0.0028884
0.0153707
-0.00270255
0.0178528
-0.00248213
0.0200851
-0.00223233
0.0220427
-0.00195761
0.0237028
-0.00166007
0.0250402
-0.00133736
0.0260214
-0.000981234
0.0265996
-0.000578195
0.0267123
-0.000112717
0.0262874
0.000424875
0.0252621
0.00102536
0.0236134
0.00164867
0.0213818
0.00223157
0.0186794
0.00270243
0.0156888
0.00299064
0.0126155
0.00307325
0.00964454
0.00297098
0.0069016
0.00274294
0.00442393
0.00247767
0.00216623
0.00225769
3.01703e-05
0.00213606
-0.00210597
0.00213614
-0.00436424
0.00225827
-0.00684417
0.00247993
-0.00959326
0.0027491
-0.0125776
0.00298434
-0.0156752
0.00309764
-0.0187047
0.00302949
-0.0214634
0.00275863
-0.0237686
0.00230525
-0.0255087
0.0017401
-0.0266435
0.00113477
-0.0271928
0.000549326
-0.0272162
2.33484e-05
-0.0267842
-0.000431979
-0.0259589
-0.000825282
-0.0247867
-0.00117223
-0.0232992
-0.00148744
-0.0215186
-0.00178068
-0.0194628
-0.0020558
-0.0171511
-0.00231162
-0.0146072
-0.00254396
-0.0118597
-0.00274746
-0.00894299
-0.00291674
-0.00589599
-0.003047
-0.0027617
-0.00313429
-0.00317567
0.00540644
-0.00795234
0.0101514
-0.00786079
0.0148263
-0.00769195
0.0194019
-0.00745185
0.0238519
-0.00714752
0.0281508
-0.00678485
0.0322699
-0.00636624
0.0361726
-0.00588854
0.0398085
-0.00534205
0.0431113
-0.00471052
0.0459971
-0.0039713
0.0483643
-0.0030953
0.0500916
-0.00204746
0.051035
-0.000790236
0.0510298
0.000701931
0.0499124
0.00240986
0.0475605
0.00424509
0.0439377
0.00605961
0.0391554
0.00763074
0.0335104
0.00871087
0.0273857
0.00920879
0.0211612
0.0091563
0.0151197
0.00872025
0.00938299
0.0081517
0.00391699
0.00768151
-0.00141473
0.0074556
-0.00678935
0.00753099
-0.0123686
0.00788611
-0.0182404
0.00841686
-0.0243577
0.0089267
-0.0305038
0.00915879
-0.0363284
0.00889513
-0.0414369
0.00804437
-0.0454744
0.0066329
-0.0482462
0.0048599
-0.0497347
0.00297693
-0.0500341
0.00116486
-0.0492997
-0.000455709
-0.0477042
-0.00183559
-0.045405
-0.00298714
-0.0425365
-0.00394577
-0.0392122
-0.00474789
-0.0355265
-0.00542497
-0.0315551
-0.00600223
-0.0273561
-0.00649845
-0.0229727
-0.00692562
-0.0184379
-0.00728888
-0.0137807
-0.00758742
-0.00902983
-0.00781649
-0.00421628
-0.00796996
0.000626892
-0.00804265
0.00546566
-0.0080318
0.0102661
-0.00793785
0.0149956
-0.00776427
0.0196239
-0.00751667
0.0241224
-0.00720106
0.0284617
-0.0068214
0.0326065
-0.00637713
0.0365102
-0.00586136
0.0401104
-0.0052603
0.0433266
-0.00455349
0.0460594
-0.00371407
0.0481903
-0.00270905
0.049579
-0.00150146
0.0500625
-5.85735e-05
0.0494681
0.0016197
0.0476526
0.00346417
0.0445449
0.00533927
0.0402027
0.00704463
0.0348712
0.00832214
0.0289248
0.00901962
0.0227567
0.00913915
0.0166892
0.00881042
0.0108951
0.00827173
0.00538147
0.00777136
3.49696e-05
0.00748256
-0.00531548
0.00748659
-0.0108419
0.00778464
-0.0166601
0.00829815
-0.0227679
0.00885693
-0.028999
0.00921543
-0.0350372
0.00913584
-0.0404942
0.00848652
-0.0449971
0.00726149
-0.0482934
0.00560157
-0.0503169
0.00376354
-0.0511312
0.00194909
-0.0508732
0.000291389
-0.0497108
-0.00113906
-0.0478043
-0.00233847
-0.0452915
-0.00333813
-0.0422882
-0.0041755
-0.0388914
-0.00488424
-0.0351803
-0.00549176
-0.0312171
-0.00601907
-0.027048
-0.00648073
-0.0227072
-0.00688473
-0.018222
-0.00723262
-0.0136179
-0.00752088
-0.00892178
-0.00774309
-0.00416378
-0.00789229
-0.00796298
0.00606304
-0.0133159
0.0113779
-0.0131756
0.0166012
-0.0129153
0.0216906
-0.0125412
0.0266035
-0.0120604
0.0312963
-0.0114777
0.0357235
-0.0107934
0.0398369
-0.0100019
0.0435856
-0.00909083
0.0469178
-0.00804266
0.049782
-0.00683553
0.0521312
-0.00544449
0.0539263
-0.00384258
0.0551382
-0.00200212
0.0557325
0.000107614
0.0556137
0.00252865
0.0545575
0.00530131
0.0522475
0.00836965
0.0484118
0.0114664
0.042981
0.0141417
0.0362243
0.0159655
0.0286895
0.0166911
0.0208932
0.0165166
0.01315
0.0158949
0.0055557
0.0152758
-0.00194466
0.014956
-0.00946707
0.0150534
-0.0171047
0.0155238
-0.0248417
0.0161538
-0.0324672
0.0165522
-0.039545
0.0162365
-0.0455068
0.014857
-0.0499298
0.0124673
-0.0527474
0.00945048
-0.0541665
0.006279
-0.0545086
0.00331904
-0.054052
0.000708247
-0.052939
-0.00156872
-0.0512178
-0.00355677
-0.0489171
-0.00528785
-0.0460746
-0.00678823
-0.0427384
-0.0080841
-0.0389625
-0.00920091
-0.0348029
-0.0101618
-0.030315
-0.0109864
-0.0255517
-0.0116888
-0.0205634
-0.0122772
-0.0153979
-0.012753
-0.0101014
-0.013113
-0.00471965
-0.0133517
0.000701844
-0.0134641
0.00611743
-0.0134474
0.0114815
-0.0133019
0.0167485
-0.0130313
0.0218727
-0.0126409
0.0268075
-0.0121358
0.0315044
-0.0115183
0.0359126
-0.0107853
0.0399783
-0.00992706
0.0436458
-0.00892779
0.0468592
-0.00776691
0.0495657
-0.00642051
0.0517194
-0.00486279
0.0532855
-0.00306761
0.0542351
-0.00100811
0.054504
0.00135077
0.0539139
0.00405425
0.0521617
0.00709151
0.0489397
0.0102667
0.0440972
0.0131647
0.0377927
0.0153241
0.0305206
0.0164112
0.0228331
0.0164979
0.0151108
0.0159941
0.00750746
0.0153747
1.96726e-06
0.0149881
-0.00751286
0.0150014
-0.0151452
0.015417
-0.0229196
0.0160726
-0.0306877
0.0166251
-0.0380757
0.0166033
-0.0445345
0.0155947
-0.0495616
0.0135137
-0.0529834
0.0106832
-0.0549369
0.00755516
-0.0557208
0.0045474
-0.0556387
0.00186698
-0.054879
-0.000468303
-0.0535133
-0.00250475
-0.0515711
-0.00428067
-0.0490839
-0.0058253
-0.0460933
-0.00716614
-0.0426478
-0.00832975
-0.0387992
-0.00934037
-0.0345994
-0.0102189
-0.0300985
-0.0109816
-0.0253441
-0.0116392
-0.0203811
-0.0121956
-0.0152527
-0.0126492
-0.0100015
-0.0129943
-0.0046698
-0.013224
-0.0133322
0.00634967
-0.0189328
0.0119042
-0.0187302
0.0173417
-0.0183528
0.0226079
-0.0178074
0.0276491
-0.0171016
0.0324121
-0.0162407
0.036845
-0.0152263
0.0408977
-0.0140546
0.0445229
-0.012716
0.0476772
-0.011197
0.050322
-0.00948028
0.0524243
-0.00754683
0.0539575
-0.00537575
0.0548987
-0.00294328
0.0552238
-0.000217512
0.0549048
0.00284765
0.053913
0.00629308
0.0521899
0.0100927
0.0495267
0.0141297
0.0454928
0.0181756
0.0397503
0.0217079
0.0324261
0.0240153
0.0241119
0.0248308
0.0153913
0.0246155
0.00657651
0.0240906
-0.00223469
0.0237672
-0.0110302
0.0238489
-0.0197672
0.0242608
-0.0282496
0.0246362
-0.0360145
0.0243171
-0.0424156
0.0226377
-0.0470851
0.0195264
-0.0501857
0.015568
-0.0521661
0.0114309
-0.0533392
0.00745208
-0.0538084
0.0037883
-0.0536072
0.000507022
-0.0527642
-0.00241171
-0.0513058
-0.00501522
-0.0492556
-0.00733797
-0.0466406
-0.00940329
-0.0434938
-0.0112309
-0.0398554
-0.0128393
-0.0357713
-0.0142459
-0.0312923
-0.0154654
-0.0264724
-0.0165087
-0.0213682
-0.0173814
-0.0160372
-0.018084
-0.0105376
-0.0186125
-0.004928
-0.0189614
0.000732981
-0.0191251
0.00638632
-0.0191007
0.0119731
-0.0188887
0.0174347
-0.0184928
0.0227126
-0.0179188
0.0277487
-0.017172
0.0324858
-0.0162554
0.0368677
-0.0151672
0.0408411
-0.0139005
0.0443564
-0.0124431
0.0473691
-0.0107796
0.0498408
-0.00889216
0.05174
-0.00676197
0.0530412
-0.00436884
0.0537205
-0.00168745
0.0537507
0.00132064
0.0531029
0.00470196
0.0517366
0.00845788
0.0495066
0.0124966
0.0460386
0.0166327
0.0409162
0.0204465
0.0341051
0.0232223
0.0260945
0.0245085
0.0175135
0.0245751
0.00875097
0.0241372
-4.95456e-05
0.0237886
-0.00886433
0.0238162
-0.0176705
0.0242231
-0.0263271
0.0247292
-0.0344491
0.0247471
-0.0414066
0.0235608
-0.046695
0.0208831
-0.0503281
0.0171467
-0.052713
0.0130681
-0.054235
0.00907712
-0.055049
0.0053614
-0.055198
0.00201605
-0.0547104
-0.000955918
-0.0536134
-0.0036018
-0.0519301
-0.00596397
-0.049684
-0.0080714
-0.0469034
-0.00994675
-0.0436227
-0.0116104
-0.0398819
-0.0130811
-0.0357257
-0.0143752
-0.0312019
-0.0155053
-0.0263614
-0.0164797
-0.0212565
-0.0173005
-0.0159405
-0.0179652
-0.0104673
-0.0184675
-0.00489125
-0.0188
-0.0189563
0.00641354
-0.0246059
0.0120141
-0.0243307
0.0174787
-0.0238174
0.0227451
-0.0230739
0.0277529
-0.0221094
0.0324439
-0.0209318
0.0367636
-0.019546
0.0406614
-0.0179524
0.0440919
-0.0161466
0.0470151
-0.0141202
0.0493964
-0.0118616
0.0512061
-0.00935649
0.0524189
-0.00658853
0.0530136
-0.00353803
0.0529761
-0.000180025
0.0523085
0.00351532
0.0510341
0.00756741
0.0491709
0.011956
0.0466834
0.0166171
0.0434267
0.0214323
0.0390187
0.026116
0.0329418
0.0300921
0.0251904
0.0325823
0.0163722
0.0334337
0.00708297
0.0333798
-0.00234442
0.0331945
-0.0117031
0.0332076
-0.0207424
0.0333002
-0.0289992
0.032893
-0.0358015
0.0311194
-0.0408325
0.0276687
-0.0444496
0.0231436
-0.0471522
0.0182705
-0.0491723
0.013451
-0.050582
0.0088618
-0.0513799
0.00458618
-0.0515391
0.000666242
-0.0510487
-0.00290214
-0.0499188
-0.00614516
-0.0481698
-0.00908696
-0.0458273
-0.0117457
-0.0429219
-0.0141363
-0.0394898
-0.0162715
-0.0355732
-0.0181625
-0.0312207
-0.0198179
-0.0264865
-0.0212429
-0.0214296
-0.0224383
-0.0161126
-0.0234009
-0.0106009
-0.0241243
-0.00496132
-0.0246009
0.000738037
-0.0248245
0.0064285
-0.0247912
0.0120415
-0.0245017
0.0175092
-0.0239605
0.022765
-0.0231746
0.0277443
-0.0221513
0.0323852
-0.0208963
0.0366299
-0.0194119
0.0404255
-0.0176961
0.0437252
-0.0157428
0.046488
-0.0135425
0.0486795
-0.0110836
0.0502704
-0.00835288
0.0512364
-0.00533479
0.0515588
-0.00200984
0.0512319
0.0016475
0.0502729
0.00566097
0.048707
0.0100238
0.0465209
0.0146826
0.0436134
0.0195402
0.0396866
0.0243733
0.0342071
0.0287018
0.0269692
0.0317464
0.0184487
0.0330956
0.00929344
0.0332924
-0.000102389
0.0331844
-0.00951575
0.0332296
-0.0187238
0.0334312
-0.0273329
0.0333383
-0.0346914
0.0321056
-0.0403049
0.0291744
-0.04436
0.0249382
-0.0473925
0.0201792
-0.0497099
0.0153856
-0.0514198
0.010787
-0.0525394
0.00648106
-0.0530451
0.00252167
-0.0529177
-0.0010833
-0.0521606
-0.00435886
-0.0507905
-0.00733406
-0.0488297
-0.0100322
-0.0463045
-0.012472
-0.0432458
-0.0146691
-0.0396897
-0.0166372
-0.0356775
-0.0183873
-0.0312562
-0.0199267
-0.0264773
-0.0212586
-0.0213965
-0.0223813
-0.0160726
-0.0232891
-0.0105666
-0.0239736
-0.00494101
-0.0244256
-0.0246377
0.00630169
-0.0301798
0.0117959
-0.029825
0.0171412
-0.0291626
0.0222701
-0.0282028
0.0271183
-0.0269576
0.0316253
-0.0254388
0.0357355
-0.0236562
0.039399
-0.0216159
0.0425723
-0.0193199
0.0452182
-0.0167661
0.0473055
-0.0139489
0.0488085
-0.0108595
0.0497065
-0.00748649
0.0499843
-0.00381584
0.0496358
0.00016845
0.0486701
0.00448101
0.0471143
0.00912326
0.0450029
0.0140674
0.0423658
0.0192542
0.0392037
0.0245944
0.0353854
0.0299343
0.0305212
0.0349564
0.0240783
0.0390251
0.0160561
0.0414559
0.00706138
0.0423745
-0.00228438
0.0425403
-0.0114858
0.042409
-0.0199996
0.0418139
-0.0271581
0.0400515
-0.0326298
0.0365911
-0.0367854
0.0318243
-0.0401315
0.0264898
-0.0429043
0.0210432
-0.0451436
0.0156904
-0.0468258
0.0105439
-0.0479163
0.0056767
-0.048383
0.00113294
-0.0482094
-0.00307567
-0.0473974
-0.00695722
-0.0459603
-0.0105241
-0.0439188
-0.0137872
-0.0412994
-0.0167557
-0.0381346
-0.0194363
-0.0344638
-0.0218333
-0.0303334
-0.0239483
-0.025797
-0.0257794
-0.0209141
-0.0273212
-0.0157501
-0.0285649
-0.0103741
-0.0295003
-0.00485836
-0.0301167
0.000722788
-0.0304056
0.0062942
-0.0303626
0.0117808
-0.0299883
0.0171088
-0.0292885
0.0222066
-0.0282724
0.0270059
-0.0269506
0.0314428
-0.0253332
0.035459
-0.0234282
0.039003
-0.0212401
0.0420301
-0.0187698
0.0445028
-0.0160152
0.0463901
-0.0129709
0.047667
-0.00962983
0.0483146
-0.00598238
0.0483218
-0.00201702
0.047691
0.00227828
0.0464437
0.0069083
0.0446139
0.0118536
0.0422348
0.0170617
0.0393226
0.0224524
0.0358003
0.0278956
0.0313612
0.033141
0.025462
0.0376456
0.0178935
0.0406641
0.00913996
0.042046
-0.00014569
0.04247
-0.00945013
0.042534
-0.0182592
0.0422402
-0.0259146
0.0409937
-0.0319155
0.0381065
-0.0364546
0.0337135
-0.040077
0.0285606
-0.043098
0.0232002
-0.0456008
0.0178884
-0.0475713
0.0127574
-0.0489772
0.00788701
-0.0497846
0.00332906
-0.0499706
-0.000897362
-0.0495305
-0.00479887
-0.0484736
-0.008391
-0.0468165
-0.0116893
-0.0445812
-0.0147072
-0.041795
-0.0174554
-0.0384904
-0.0199418
-0.0347062
-0.0221714
-0.0304878
-0.0241451
-0.0258864
-0.0258599
-0.0209591
-0.0273086
-0.0157676
-0.0284807
-0.010377
-0.0293642
-0.00485529
-0.0299473
-0.0302208
0.00604515
-0.0355265
0.011308
-0.0350878
0.0164142
-0.0342688
0.0212938
-0.0330824
0.0258807
-0.0315445
0.030114
-0.0296721
0.0339386
-0.0274807
0.0373062
-0.0249835
0.0401758
-0.0221895
0.0425134
-0.0191036
0.0442913
-0.0157269
0.0454884
-0.0120566
0.0460892
-0.00808726
0.0460851
-0.00381175
0.0454769
0.000776596
0.0442785
0.00567943
0.0425174
0.0108843
0.0402293
0.0163555
0.0374518
0.0220317
0.0342193
0.0278269
0.030533
0.0336205
0.0262615
0.0392279
0.0210112
0.0442755
0.0143526
0.0481145
0.00644203
0.0502851
-0.00203466
0.051017
-0.0102887
0.0506631
-0.0175555
0.0490807
-0.0233831
0.045879
-0.0279865
0.0411945
-0.0318431
0.0356809
-0.0351991
0.0298457
-0.0380929
0.0239371
-0.0404985
0.0180959
-0.0423777
0.0124231
-0.0436932
0.0069922
-0.0444129
0.00185263
-0.0445173
-0.00297123
-0.0440017
-0.00747284
-0.0428726
-0.0116532
-0.0411447
-0.0155151
-0.0388401
-0.0190604
-0.0359872
-0.0222891
-0.0326222
-0.0251982
-0.0287889
-0.0277815
-0.0245391
-0.0300293
-0.0199316
-0.0319286
-0.0150321
-0.0334644
-0.00991147
-0.0346209
-0.00464455
-0.0353836
0.000691019
-0.0357412
0.00601636
-0.0356879
0.0112528
-0.0352248
0.0163233
-0.034359
0.0211538
-0.0331029
0.0256748
-0.0314715
0.0298222
-0.0294806
0.0335389
-0.0271449
0.0367752
-0.0244764
0.0394894
-0.021484
0.0416472
-0.018173
0.0432218
-0.0145455
0.0441932
-0.0106012
0.0445484
-0.00633764
0.0442836
-0.00175218
0.043407
0.00315485
0.041942
0.00837336
0.0399226
0.0138729
0.0373869
0.0195975
0.034372
0.0254673
0.0308949
0.0313727
0.0268799
0.037156
0.0220086
0.0425168
0.0158007
0.0468721
0.00821234
0.0496344
-0.000174995
0.0508574
-0.00858017
0.0509392
-0.0162187
0.0498787
-0.0224966
0.0472716
-0.0274424
0.0430524
-0.0315351
0.0378061
-0.0350994
0.032125
-0.0382162
0.026317
-0.0408704
0.0205426
-0.0430252
0.0149123
-0.0446435
0.00950525
-0.0456908
0.00437634
-0.0461427
-0.00044543
-0.0459892
-0.00495235
-0.0452323
-0.00914791
-0.0438825
-0.0130392
-0.0419567
-0.016633
-0.039478
-0.0199342
-0.0364753
-0.0229445
-0.0329845
-0.0256621
-0.0290487
-0.0280809
-0.0247179
-0.0301907
-0.0200487
-0.0319778
-0.0151036
-0.0334258
-0.00994976
-0.034518
-0.00465801
-0.0352391
-0.0355773
0.00567085
-0.0405419
0.0106007
-0.0400176
0.0153709
-0.0390391
0.0199111
-0.0376226
0.0241552
-0.0357887
0.0280434
-0.0335602
0.0315224
-0.0309597
0.0345466
-0.0280077
0.0370781
-0.024721
0.0390867
-0.0211122
0.0405493
-0.0171895
0.0414496
-0.0129568
0.0417778
-0.00841548
0.0415316
-0.00356557
0.0407175
0.00159075
0.0393525
0.00704443
0.0374646
0.0127722
0.0350893
0.0187308
0.0322664
0.0248545
0.0290374
0.031056
0.0254355
0.0372224
0.0214571
0.0432062
0.0169643
0.0487683
0.0116298
0.053449
0.00529425
0.0566207
-0.00161436
0.0579256
-0.00829179
0.0573405
-0.0140797
0.0548686
-0.0188816
0.0506809
-0.0230189
0.0453319
-0.0267275
0.0393895
-0.030056
0.0331742
-0.0329804
0.0268615
-0.0354608
0.0205764
-0.0374558
0.0144181
-0.0389272
0.00846364
-0.0398434
0.00276879
-0.0401828
-0.00263183
-0.0399356
-0.00772003
-0.0391022
-0.0124866
-0.0376913
-0.0169259
-0.0357196
-0.0210322
-0.033211
-0.0247977
-0.0301977
-0.0282116
-0.02672
-0.0312592
-0.0228268
-0.0339225
-0.0185751
-0.0361803
-0.0140292
-0.0380104
-0.0092596
-0.0393905
-0.00434168
-0.0403015
0.000645979
-0.0407289
0.00562325
-0.0406652
0.0105102
-0.0401117
0.015229
-0.0390778
0.0197053
-0.0375792
0.0238701
-0.0356363
0.027661
-0.0332714
0.0310228
-0.0305067
0.033909
-0.0273626
0.0362814
-0.0238563
0.0381099
-0.0200015
0.0393725
-0.0158082
0.0400547
-0.0112834
0.0401496
-0.00643258
0.0396594
-0.00126201
0.0385969
0.0042174
0.0369864
0.00998385
0.0348617
0.0159975
0.0322621
0.0221971
0.0292294
0.0285
0.0258012
0.0348008
0.0219916
0.0409657
0.0177137
0.0467947
0.0126801
0.0519057
0.00662579
0.0556886
-0.000190084
0.0576733
-0.00702023
0.0577693
-0.013112
0.0559706
-0.018195
0.0523545
-0.0225285
0.0473859
-0.0264037
0.0416813
-0.0299111
0.0356323
-0.0330385
0.0294444
-0.0357492
0.0232533
-0.0380017
0.0171648
-0.039757
0.0112606
-0.0409812
0.0056005
-0.0416489
0.000222269
-0.0417459
-0.00485525
-0.0412685
-0.00962537
-0.0402208
-0.0140868
-0.0386144
-0.0182394
-0.0364674
-0.0220813
-0.0338045
-0.0256074
-0.030658
-0.0288086
-0.0270679
-0.0316711
-0.0230818
-0.0341769
-0.0187546
-0.036305
-0.014148
-0.0380324
-0.00932923
-0.0393368
-0.00436992
-0.0401984
-0.0406026
0.00520073
-0.0451414
0.00971507
-0.0445319
0.0140712
-0.0433952
0.0181996
-0.041751
0.0220363
-0.0396253
0.0255235
-0.0370475
0.0286112
-0.0340474
0.0312573
-0.0306537
0.0334278
-0.0268915
0.0350969
-0.0227813
0.0362464
-0.018339
0.0368654
-0.0135758
0.0369501
-0.00850016
0.0365039
-0.00311941
0.0355386
0.0025561
0.0340747
0.00850832
0.0321416
0.0147053
0.0297757
0.0210967
0.0270185
0.0276118
0.0239155
0.0341589
0.0205143
0.0406236
0.0168574
0.0468631
0.0129491
0.0526765
0.00868869
0.0577094
0.00394304
0.0613663
-0.00113181
0.0630004
-0.00606786
0.0622765
-0.0105289
0.0593296
-0.0145507
0.0547026
-0.0182775
0.0490588
-0.0217461
0.0428581
-0.0249239
0.036352
-0.0277634
0.029701
-0.0302174
0.0230304
-0.0322419
0.0164426
-0.0337979
0.0100196
-0.0348526
0.0038235
-0.0353819
-0.00210253
-0.0353712
-0.00773071
-0.0348151
-0.0130428
-0.0337163
-0.0180246
-0.0320858
-0.0226627
-0.0299424
-0.026941
-0.0273136
-0.0308404
-0.0242354
-0.0343374
-0.020753
-0.0374049
-0.01692
-0.0400133
-0.0127982
-0.0421322
-0.00845603
-0.0437327
-0.00396736
-0.0447902
0.000590295
-0.0452865
0.00513767
-0.0452126
0.00959576
-0.0445698
0.0138878
-0.0433698
0.0179412
-0.0416326
0.0216891
-0.0393842
0.0250717
-0.0366541
0.0280376
-0.0334726
0.0305439
-0.0298689
0.0325568
-0.0258692
0.0340511
-0.0214958
0.0350101
-0.0167671
0.0354249
-0.0116982
0.0352949
-0.00630255
0.0346277
-0.000594864
0.0334405
0.00540465
0.0317597
0.0116646
0.0296199
0.0181373
0.0270616
0.0247555
0.0241297
0.0314319
0.020872
0.0380585
0.0173347
0.044503
0.0135395
0.0505898
0.00942001
0.0560252
0.00482597
0.0602827
-0.00019223
0.0626915
-0.00521946
0.0627966
-0.00983713
0.0605882
-0.01399
0.0565073
-0.0178285
0.0512244
-0.021422
0.0452748
-0.0247504
0.0389607
-0.0277682
0.0324622
-0.0304281
0.0259132
-0.0326854
0.0194221
-0.0344999
0.013075
-0.0358367
0.00693733
-0.0366687
0.00105425
-0.0369776
-0.00454633
-0.036754
-0.00984893
-0.0359964
-0.0148444
-0.0347105
-0.0195253
-0.032909
-0.0238828
-0.030612
-0.0279044
-0.0278475
-0.0315731
-0.0246515
-0.0348671
-0.0210682
-0.0377602
-0.0171498
-0.0402234
-0.0129557
-0.0422265
-0.00855158
-0.0437409
-0.00400794
-0.044742
-0.0452118
0.0046529
-0.049256
0.00868512
-0.0485642
0.0125642
-0.0472742
0.0162234
-0.0454103
0.0196019
-0.0430038
0.0226456
-0.0400912
0.0253084
-0.0367102
0.0275524
-0.0328978
0.0293485
-0.0286876
0.0306757
-0.0241085
0.0315211
-0.0191844
0.0318795
-0.0139342
0.0317527
-0.00837334
0.0311499
-0.00251666
0.030088
0.00361801
0.0285916
0.0100047
0.026693
0.0166039
0.0244309
0.0233588
0.02185
0.0301927
0.0190012
0.0370077
0.0159426
0.0436822
0.0127399
0.0500658
0.00945991
0.0559566
0.00613571
0.0610336
0.002742
0.06476
-0.000715571
0.066458
-0.00414091
0.0657019
-0.00747857
0.0626673
-0.0107553
0.0579794
-0.0139656
0.0522691
-0.0170517
0.0459441
-0.0199444
0.0392447
-0.0225817
0.0323383
-0.0249092
0.0253579
-0.026879
0.0184124
-0.0284494
0.01159
-0.029585
0.00495917
-0.0302582
-0.00142935
-0.0304495
-0.00753943
-0.0301477
-0.0133445
-0.0293498
-0.0188226
-0.0280607
-0.0239517
-0.0262939
-0.0287079
-0.0240714
-0.0330629
-0.0214245
-0.0369843
-0.0183936
-0.0404358
-0.0150281
-0.0433788
-0.0113857
-0.0457746
-0.0075314
-0.047587
-0.00353593
-0.0487856
0.000526105
-0.0493485
0.00457822
-0.0492647
0.00854419
-0.0485358
0.0123502
-0.0471759
0.0159269
-0.0452094
0.0192111
-0.0426684
0.0221471
-0.03959
0.0246876
-0.0360132
0.0267948
-0.0319761
0.0284397
-0.0275141
0.0296026
-0.0226587
0.0302722
-0.0174368
0.0304457
-0.0118717
0.0301283
-0.00598509
0.0293331
0.000200265
0.0280819
0.00665588
0.0264044
0.0133422
0.0243376
0.0202041
0.021925
0.0271681
0.0192159
0.0341409
0.0162667
0.0410077
0.0131416
0.0476281
0.00990988
0.0538216
0.00661975
0.0593153
0.00326052
0.0636419
-0.000182755
0.0661347
-0.00363054
0.0662444
-0.0070028
0.0639605
-0.010315
0.0598195
-0.0135803
0.0544897
-0.0167522
0.0484468
-0.0197624
0.0419709
-0.0225469
0.0352467
-0.0250497
0.028416
-0.0272215
0.0215938
-0.029019
0.0148726
-0.0304053
0.00832356
-0.0313499
0.00199883
-0.0318302
-0.00406602
-0.0318314
-0.00984767
-0.0313463
-0.0153295
-0.0303748
-0.0204969
-0.0289241
-0.0253335
-0.0270092
-0.0298193
-0.0246531
-0.0339292
-0.0218873
-0.0376329
-0.0187517
-0.0408957
-0.0152947
-0.0436804
-0.0115721
-0.0459491
-0.00764662
-0.0476664
-0.00358602
-0.0488026
-0.0493361
0.004042
-0.0528302
0.00753825
-0.0520604
0.0108899
-0.0506259
0.0140346
-0.0485549
0.0169157
-0.045885
0.019484
-0.0426594
0.0216981
-0.0389243
0.0235254
-0.034725
0.0249417
-0.0301038
0.0259314
-0.0250982
0.026487
-0.0197401
0.0266088
-0.014056
0.0263043
-0.00806886
0.0255883
-0.00180062
0.0244825
0.00472377
0.023016
0.0114711
0.0212247
0.0183953
0.0191506
0.0254329
0.0168425
0.0325009
0.0143564
0.0394937
0.0117579
0.0462807
0.00912451
0.0526992
0.00654487
0.0585362
0.00409776
0.0634808
0.00180245
0.0670553
-0.000408005
0.0686685
-0.00264735
0.0679412
-0.00501051
0.0650304
-0.00751736
0.0604862
-0.0101082
0.05486
-0.0126933
0.0485292
-0.0151885
0.0417399
-0.0175226
0.0346725
-0.0196352
0.0274705
-0.021474
0.0202511
-0.0229935
0.0131095
-0.024155
0.00612068
-0.0249267
-0.000657738
-0.025284
-0.00718207
-0.0252105
-0.0134181
-0.0246971
-0.0193359
-0.0237433
-0.0249056
-0.0223565
-0.0300947
-0.0205532
-0.0348661
-0.0183593
-0.0391782
-0.0158098
-0.0429854
-0.0129487
-0.0462399
-0.00982884
-0.0488944
-0.00651022
-0.0509056
-0.00305888
-0.052237
0.000455123
-0.0528625
0.00395978
-0.0527694
0.00738338
-0.0519594
0.0106567
-0.0504492
0.0137151
-0.0482678
0.0165003
-0.0454536
0.0189617
-0.0420514
0.0210575
-0.038109
0.022755
-0.0336736
0.024031
-0.0287901
0.0248713
-0.0234989
0.0252703
-0.0178359
0.0252312
-0.0118326
0.0247647
-0.00551858
0.0238895
0.00107547
0.0226319
0.00791344
0.0210257
0.0149484
0.0191114
0.0221184
0.016936
0.0293435
0.0145539
0.036523
0.0120281
0.0435335
0.00943289
0.0502233
0.0068555
0.056399
0.00438276
0.0617881
0.00205749
0.0659672
-0.000163237
0.0683555
-0.00238561
0.0684667
-0.00471708
0.066292
-0.00720376
0.0623062
-0.00980597
0.0570919
-0.0124385
0.0510793
-0.0150147
0.0445471
-0.0174604
0.0376924
-0.0197128
0.0306684
-0.0217178
0.0235989
-0.0234285
0.0165833
-0.0248044
0.00969941
-0.0258113
0.00300576
-0.0264221
-0.00345518
-0.0266169
-0.00965291
-0.0263827
-0.0155637
-0.0257139
-0.0211657
-0.0246123
-0.0264351
-0.0230873
-0.0313443
-0.0211567
-0.0358597
-0.018847
-0.0399426
-0.016193
-0.0435497
-0.0132382
-0.0466351
-0.010034
-0.0491533
-0.00663852
-0.0510619
-0.00311545
-0.0523257
-0.0529193
0.00337987
-0.0558187
0.00629661
-0.0549771
0.00908057
-0.0534099
0.011675
-0.0511493
0.0140289
-0.0482389
0.0160987
-0.0447293
0.0178488
-0.0406743
0.0192518
-0.0361281
0.0202893
-0.0311413
0.0209511
-0.02576
0.021235
-0.020024
0.0211466
-0.0139676
0.0206988
-0.00762103
0.0199113
-0.00101312
0.0188107
0.00582438
0.01743
0.0128518
0.0158087
0.0200166
0.0139921
0.0272496
0.0120318
0.0344611
0.00998704
0.0415385
0.00792588
0.0483419
0.00592687
0.0546982
0.00407685
0.0603862
0.00245181
0.0651058
0.00106513
0.068442
-0.000185291
0.0699189
-0.00148619
0.0692421
-0.00298875
0.066533
-0.0047278
0.0622253
-0.00664636
0.0567786
-0.0086573
0.0505401
-0.0106768
0.0437594
-0.0126316
0.0366273
-0.0144582
0.0292971
-0.0161014
0.0218943
-0.0175124
0.0145206
-0.0186493
0.0072575
-0.019476
0.000168986
-0.0199636
-0.00669444
-0.0200904
-0.0132913
-0.019842
-0.0195843
-0.0192121
-0.0255355
-0.0182027
-0.0311041
-0.0168244
-0.0362443
-0.0150972
-0.0409054
-0.0130502
-0.0450324
-0.0107214
-0.0485687
-0.00815732
-0.0514585
-0.00541201
-0.0536509
-0.00254533
-0.0551036
0.00037871
-0.0557866
0.0032942
-0.0556848
0.00613548
-0.0548007
0.00883944
-0.0531532
0.0113475
-0.0507758
0.0136076
-0.0477136
0.0155752
-0.044019
0.0172145
-0.0397483
0.0184988
-0.034958
0.0194107
-0.029702
0.0199417
-0.0240299
0.0200921
-0.0179862
0.0198703
-0.0116107
0.0192925
-0.00494079
0.0183824
0.00198554
0.0171709
0.00912497
0.0156954
0.0164239
0.0139998
0.023814
0.0121344
0.0312089
0.0101564
0.0385011
0.00813165
0.0455583
0.00613622
0.0522187
0.00425621
0.058279
0.00257563
0.0634686
0.0011338
0.067409
-0.000135747
0.069625
-0.00140536
0.0697363
-0.00284917
0.0677358
-0.00453759
0.0639947
-0.0064346
0.0589889
-0.00845783
0.0531025
-0.0105218
0.0466111
-0.0125507
0.0397213
-0.014479
0.0325967
-0.0162496
0.0253694
-0.0178124
0.0181461
-0.0191238
0.0110107
-0.0201459
0.00402787
-0.0208473
-0.00275375
-0.0212033
-0.00929695
-0.0211958
-0.0155712
-0.0208138
-0.0215476
-0.0200538
-0.0271951
-0.0189199
-0.0324782
-0.0174245
-0.0373552
-0.0155883
-0.0417788
-0.0134408
-0.0456972
-0.0110198
-0.0490562
-0.00837093
-0.0518021
-0.00554675
-0.0538861
-0.00260535
-0.0552671
-0.0559161
0.00267605
-0.0581846
0.00497812
-0.0572792
0.00716228
-0.055594
0.00917861
-0.0531657
0.010983
-0.0500433
0.0125383
-0.0462846
0.0138151
-0.0419512
0.0147923
-0.0371052
0.0154569
-0.0318059
0.0158041
-0.0261072
0.0158369
-0.0200568
0.0155658
-0.0136965
0.0150083
-0.00706356
0.0141886
-0.000193425
0.0131372
0.00687579
0.0118906
0.0140984
0.0104905
0.0214166
0.0089844
0.0287557
0.00742497
0.0360206
0.00587098
0.0430925
0.00438759
0.0498253
0.00304575
0.0560401
0.00191711
0.0615149
0.0010549
0.065968
0.000449808
0.0690471
-1.43277e-05
0.070383
-0.000531553
0.0697594
-0.00126316
0.0672646
-0.00226327
0.0632254
-0.00349908
0.0580144
-0.0049026
0.0519436
-0.00640073
0.0452575
-0.00792492
0.0381515
-0.00941309
0.0307853
-0.0108093
0.0232905
-0.0120635
0.0157748
-0.0131311
0.00832502
-0.0139729
0.00101084
-0.0145562
-0.00611113
-0.0148548
-0.0129928
-0.0148496
-0.0195895
-0.014529
-0.025856
-0.0138897
-0.0317434
-0.0129367
-0.0371974
-0.0116838
-0.0421584
-0.0101535
-0.0465627
-0.00837731
-0.0503449
-0.00639465
-0.0534411
-0.00425223
-0.0557933
-0.00200254
-0.0573533
0.000297948
-0.0580871
0.00259086
-0.0579778
0.00481809
-0.0570279
0.00692401
-0.0552591
0.00885747
-0.0527093
0.0105735
-0.0494297
0.0120347
-0.0454802
0.0132119
-0.0409255
0.0140847
-0.0358308
0.0146417
-0.0302589
0.01488
-0.0242682
0.0148052
-0.0179114
0.0144308
-0.0112363
0.0137778
-0.00428779
0.0128741
0.0028892
0.0117543
0.0102448
0.0104589
0.0177193
0.00903381
0.025239
0.00753073
0.032712
0.00600709
0.0400247
0.00452667
0.0470387
0.00315957
0.0535858
0.00197905
0.0594595
0.00104801
0.0643997
0.00038184
0.0680752
-0.000102717
0.0701096
-0.000586426
0.07022
-0.00125178
0.0684011
-0.00218577
0.0649286
-0.00337613
0.0601793
-0.0047617
0.0544881
-0.00627
0.0481194
-0.00783135
0.0412827
-0.00938227
0.0341476
-0.0108656
0.0268528
-0.0122301
0.0195106
-0.0134298
0.0122104
-0.0144242
0.00502226
-0.0151783
-0.00199959
-0.0156633
-0.00881192
-0.0158568
-0.0153778
-0.0157429
-0.0216615
-0.0153131
-0.0276249
-0.0145664
-0.0332249
-0.0135097
-0.0384119
-0.0121581
-0.0431305
-0.0105348
-0.0473205
-0.00867142
-0.0509196
-0.00660692
-0.0538666
-0.00438708
-0.0561059
-0.00206308
-0.0575911
-0.0582894
0.00193844
-0.059898
0.00359752
-0.0589383
0.00515644
-0.0571529
0.00657334
-0.0545826
0.00781186
-0.0512819
0.0088422
-0.0473149
0.00964179
-0.0427508
0.0101957
-0.0376592
0.0104968
-0.032107
0.0105453
-0.0261557
0.0103491
-0.0198606
0.00992284
-0.0132703
0.00928789
-0.00642861
0.00847188
0.000622588
0.00750819
0.00783948
0.00643536
0.0151713
0.00529653
0.0225554
0.00413907
0.0299131
0.00301432
0.0371453
0.00197726
0.0441295
0.00108559
0.0507169
0.000397235
0.0567284
-3.68829e-05
0.061949
-0.000190676
0.0661218
-9.62084e-05
0.0689526
0.000127691
0.0701591
0.000302322
0.0695847
0.000274068
0.0672929
-2.62663e-05
0.0635257
-0.000593152
0.0585813
-0.00138294
0.0527334
-0.00233891
0.0462135
-0.00340225
0.0392148
-0.0045161
0.0318991
-0.00562693
0.0244013
-0.0066851
0.016833
-0.00764514
0.00928507
-0.00846625
0.00183194
-0.0091128
-0.00546458
-0.00955519
-0.0125504
-0.00977038
-0.0193743