/*--------------------------------*- C++ -*----------------------------------*\
| =========                 |                                                 |
| \\      /  F ield         | OpenFOAM: The Open Source CFD Toolbox           |
|  \\    /   O peration     | Version:  2.3.0                                 |
|   \\  /    A nd           | Web:      www.OpenFOAM.org                      |
|    \\/     M anipulation  |                                                 |
\*---------------------------------------------------------------------------*/
FoamFile
{
    version     2.0;
    format      ascii;
    class       surfaceScalarField;
    location    "7000";
    object      phi;
}
// * * * * * * * * * * * * * * * * * * * * * * * * * * * * * * * * * * * * * //

dimensions      [0 3 -1 0 0 0 0];

internalField   nonuniform List<scalar> 
5988
(
0.00363686
-0.00321571
0.00679782
-0.00316096
0.00985739
-0.00305957
0.0127714
-0.00291406
0.0154993
-0.00272787
0.018005
-0.00250569
0.0202586
-0.00225364
0.0222374
-0.00197872
0.0239244
-0.00168706
0.0253054
-0.00138097
0.0263617
-0.00105628
0.0270631
-0.000701447
0.0273628
-0.000299664
0.0271972
0.000165578
0.0264958
0.000701392
0.0252036
0.00129221
0.0233099
0.00189376
0.0208591
0.00245075
0.0179717
0.00288738
0.0148537
0.00311799
0.0117217
0.00313208
0.00875919
0.00296249
0.00607378
0.00268541
0.00367519
0.00239858
0.00149206
0.00218313
-0.000593541
0.0020856
-0.00271615
0.00212261
-0.00500374
0.00228759
-0.00755178
0.00254803
-0.0103889
0.00283708
-0.0134477
0.00305884
-0.0165708
0.00312309
-0.0195494
0.00297866
-0.0221603
0.00261087
-0.0242417
0.00208144
-0.0257182
0.00147646
-0.0265755
0.000857326
-0.0268547
0.00027916
-0.0266253
-0.00022937
-0.0259567
-0.000668609
-0.0249038
-0.0010529
-0.0235044
-0.00139943
-0.0217833
-0.00172113
-0.0197596
-0.00202366
-0.0174539
-0.00230573
-0.0148921
-0.00256174
-0.0121073
-0.00278485
-0.00913829
-0.00296898
-0.00602876
-0.00310953
-0.0028256
-0.00320316
0.000421807
-0.00324741
0.00366258
-0.00324077
0.00684611
-0.00318353
0.0099236
-0.00307749
0.0128489
-0.00292528
0.0155794
-0.00273054
0.0180777
-0.00249827
0.0203125
-0.00223484
0.0222596
-0.00194704
0.0238992
-0.00163965
0.0252116
-0.00131233
0.026169
-0.000957454
0.0267296
-0.000560549
0.0268338
-0.000104272
0.0264106
0.000423235
0.0253945
0.00101611
0.0237572
0.00163726
0.0215279
0.00222928
0.018802
0.00272598
0.0157641
0.0030379
0.0126384
0.00312565
0.00962528
0.00301313
0.0068611
0.00276418
0.0043869
0.00247421
0.00215324
0.00223366
5.313e-05
0.00210011
-0.00204531
0.00209844
-0.00427458
0.00222927
-0.00674374
0.00246916
-0.00950622
0.00276247
-0.0125268
0.00302054
-0.0156749
0.00314813
-0.0187549
0.00308003
-0.0215458
0.00279085
-0.0238595
0.00231374
-0.0255987
0.00173918
-0.0267337
0.00113506
-0.0272892
0.000555423
-0.0273268
3.76101e-05
-0.0269168
-0.000409954
-0.026119
-0.000797799
-0.0249757
-0.00114333
-0.0235133
-0.00146236
-0.0217487
-0.0017646
-0.0196964
-0.00205233
-0.0173744
-0.00232196
-0.0148076
-0.00256687
-0.0120274
-0.00278019
-0.00907123
-0.00295615
-0.0059808
-0.00309043
-0.00280094
-0.00317986
-0.0032221
0.00543389
-0.00802139
0.0102001
-0.00792719
0.0148937
-0.00775316
0.0194847
-0.007505
0.0239463
-0.00718954
0.0282534
-0.0068128
0.0323777
-0.00637788
0.0362818
-0.00588288
0.0399146
-0.00531984
0.0432081
-0.00467449
0.0460781
-0.00392622
0.0484241
-0.00304747
0.0501278
-0.00200334
0.0510478
-0.00075446
0.0510222
0.000726997
0.049893
0.00242137
0.0475442
0.00424262
0.043932
0.00606294
0.0391508
0.00766855
0.0334955
0.0087733
0.0273491
0.00927848
0.0210996
0.00921201
0.015041
0.00874401
0.00930085
0.00813874
0.00384329
0.00764069
-0.00147545
0.00740434
-0.00684218
0.00748934
-0.0124264
0.00787186
-0.0183183
0.00843985
-0.0244641
0.00898289
-0.0306339
0.00922871
-0.0364643
0.00895342
-0.0415586
0.00807296
-0.0455632
0.00661547
-0.0483007
0.00481897
-0.0497708
0.00294655
-0.0500672
0.00115371
-0.0493389
-0.000449151
-0.0477547
-0.00181354
-0.045469
-0.00295435
-0.0426123
-0.0039096
-0.0392956
-0.00471608
-0.0356129
-0.00540383
-0.0316407
-0.00599584
-0.0274379
-0.00650856
-0.0230477
-0.00695194
-0.018503
-0.00732955
-0.0138324
-0.0076396
-0.00906488
-0.00787702
-0.00423229
-0.00803575
0.000631097
-0.0081108
0.0054899
-0.00809957
0.0103088
-0.00800247
0.0150542
-0.0078228
0.0196948
-0.00756598
0.0242023
-0.00723802
0.0285474
-0.00684337
0.0326952
-0.0063826
0.0365987
-0.00585052
0.0401945
-0.00523548
0.0434015
-0.00451935
0.0461214
-0.00367738
0.0482385
-0.00267765
0.0496165
-0.0014822
0.0500951
-5.53703e-05
0.0495063
0.00160486
0.0477131
0.00343052
0.0446407
0.0053016
0.0403266
0.00704008
0.0350037
0.0083608
0.0290459
0.00908352
0.0228513
0.0092077
0.0167566
0.00885887
0.0109464
0.00828442
0.0054317
0.00774836
9.53457e-05
0.00743646
-0.00524248
0.00743627
-0.0107632
0.00774995
-0.0165888
0.00829479
-0.0227168
0.00889044
-0.028973
0.00927681
-0.0350301
0.00920515
-0.0404941
0.00854406
-0.0449916
0.00728836
-0.0482767
0.00559886
-0.0503002
0.00376263
-0.0511284
0.00196332
-0.0508914
0.000318411
-0.0497521
-0.00110171
-0.0478685
-0.00229358
-0.0453753
-0.00329099
-0.0423859
-0.00413274
-0.0389963
-0.00485188
-0.0352869
-0.00547408
-0.0313209
-0.00601827
-0.0271458
-0.00649708
-0.0227958
-0.00691687
-0.0182979
-0.00727806
-0.0136775
-0.0075766
-0.00896188
-0.00780604
-0.00418205
-0.00795969
-0.00803236
0.00609446
-0.0134111
0.0114349
-0.0132677
0.0166831
-0.0130014
0.0217966
-0.0126185
0.026733
-0.0121259
0.0314488
-0.0115286
0.0358983
-0.0108274
0.0400325
-0.0100171
0.0437992
-0.0090866
0.0471445
-0.00801974
0.0500148
-0.00679648
0.052361
-0.0053937
0.0541434
-0.00378575
0.0553341
-0.00194519
0.0559018
0.000159327
0.0557518
0.00257135
0.0546558
0.00533867
0.052301
0.00841768
0.0484382
0.0115313
0.0430018
0.0142098
0.036229
0.0160512
0.0286625
0.0167785
0.0208331
0.0165734
0.0130685
0.0159034
0.00546583
0.0152433
-0.0020371
0.0149073
-0.00956685
0.0150191
-0.0172245
0.0155295
-0.0249935
0.0162088
-0.0326494
0.0166388
-0.039735
0.0163143
-0.0456748
0.0148932
-0.0500798
0.012478
-0.0529066
0.00944228
-0.0543453
0.00625763
-0.0547053
0.00330659
-0.0542658
0.000714233
-0.0531672
-0.00154782
-0.0514535
-0.00352722
-0.0491514
-0.00525647
-0.046299
-0.00676196
-0.0429462
-0.00806884
-0.0391494
-0.00920069
-0.0349666
-0.0101786
-0.0304547
-0.0110205
-0.0256675
-0.0117391
-0.0206554
-0.0123416
-0.0154661
-0.012829
-0.0101455
-0.0131976
-0.00473933
-0.0134419
0.000706793
-0.0135569
0.00614697
-0.0135397
0.0115353
-0.0133908
0.0168263
-0.0131137
0.0219741
-0.0127138
0.0269326
-0.0121965
0.0316533
-0.0115641
0.0360852
-0.0108144
0.0401734
-0.00993875
0.0438606
-0.00892268
0.0470888
-0.00774749
0.0498027
-0.00639131
0.0519551
-0.00483008
0.0535113
-0.00303837
0.0544449
-0.000989024
0.0546961
0.00135371
0.0540869
0.00403969
0.0523149
0.00707364
0.0490889
0.0102661
0.0442686
0.0131811
0.037979
0.0153732
0.0306912
0.0164955
0.0229708
0.0165792
0.0152188
0.0160364
0.00759922
0.0153679
8.85985e-05
0.0149471
-0.00742938
0.0149543
-0.0150731
0.0153937
-0.0228728
0.0160944
-0.0306751
0.0166928
-0.0380913
0.016693
-0.0445604
0.0156742
-0.0495954
0.013579
-0.0530498
0.0107428
-0.0550476
0.00759664
-0.055868
0.00458303
-0.0558151
0.00191044
-0.0550804
-0.00041627
-0.0537335
-0.00244863
-0.0518011
-0.004226
-0.049314
-0.00577807
-0.0463149
-0.00713181
-0.0428545
-0.00831229
-0.0389867
-0.00934186
-0.0347654
-0.0102396
-0.0302418
-0.0110207
-0.0254641
-0.0116945
-0.0204774
-0.0122648
-0.0153246
-0.0127293
-0.0100482
-0.0130825
-0.0046907
-0.0133172
-0.0134278
0.00638137
-0.0190543
0.0119618
-0.0188481
0.0174245
-0.0184641
0.0227151
-0.0179091
0.0277799
-0.0171906
0.0325656
-0.0163144
0.0370204
-0.0152821
0.0410939
-0.0140906
0.0447387
-0.0127314
0.0479107
-0.0111918
0.0505705
-0.00945626
0.0526841
-0.00750728
0.0542233
-0.00532501
0.0551638
-0.00288569
0.0554794
-0.000156204
0.0551393
0.0029114
0.0541176
0.0063604
0.0523687
0.0101666
0.04969
0.01421
0.0456326
0.0182671
0.0398574
0.0218264
0.0324892
0.0241467
0.0241189
0.0249438
0.0153456
0.0246766
0.00649079
0.0240982
-0.00235289
0.023751
-0.0111845
0.0238507
-0.019968
0.0243131
-0.0284992
0.02474
-0.0362937
0.0244333
-0.042696
0.0227166
-0.047357
0.0195541
-0.0504468
0.0155678
-0.0524311
0.0114266
-0.0536217
0.00744821
-0.0541047
0.00378962
-0.0539063
0.000515873
-0.0530571
-0.00239708
-0.0515857
-0.00499861
-0.0495178
-0.00732442
-0.0468815
-0.00939817
-0.0437116
-0.0112388
-0.0400491
-0.0128633
-0.0359405
-0.0142872
-0.0314368
-0.0155241
-0.0265924
-0.0165836
-0.0214635
-0.0174705
-0.0161077
-0.0181847
-0.0105832
-0.0187222
-0.00494826
-0.0190768
0.000738102
-0.0192433
0.00641679
-0.0192184
0.0120287
-0.0190028
0.0175151
-0.0186001
0.0228176
-0.0180163
0.0278782
-0.017257
0.0326396
-0.0163255
0.0370459
-0.0152207
0.0410435
-0.0139364
0.0445825
-0.0124617
0.0476176
-0.0107826
0.0501093
-0.00888302
0.0520248
-0.00674558
0.053337
-0.00435059
0.0540201
-0.00167211
0.0540441
0.00132971
0.0533799
0.00470388
0.0519974
0.00845615
0.049768
0.0124955
0.0463101
0.016639
0.0411936
0.0204896
0.0343746
0.0233145
0.0263266
0.0246272
0.0176954
0.0246677
0.00888899
0.0241743
5.43341e-05
0.0237817
-0.00879393
0.0238025
-0.0176434
0.0242432
-0.0263548
0.0248058
-0.0345307
0.0248687
-0.0415271
0.0236894
-0.0468452
0.0209924
-0.0504973
0.0172311
-0.0528986
0.0131441
-0.0544484
0.00914642
-0.0552905
0.00542509
-0.055457
0.00207698
-0.054976
-0.000897327
-0.0538772
-0.00354737
-0.052186
-0.00591727
-0.0499271
-0.0080369
-0.0471303
-0.00992861
-0.043831
-0.0116116
-0.0400701
-0.0131028
-0.0358924
-0.0144173
-0.0313463
-0.0155667
-0.0264827
-0.0165582
-0.0213538
-0.0173936
-0.0160131
-0.0180701
-0.0105143
-0.0185812
-0.0049122
-0.0189193
-0.0190782
0.00644531
-0.0247537
0.0120719
-0.0244747
0.0175619
-0.0239541
0.0228529
-0.0232002
0.0278845
-0.0222222
0.0325983
-0.0210282
0.0369397
-0.0196235
0.0408579
-0.0180089
0.0443075
-0.0161809
0.047248
-0.0141322
0.0496441
-0.0118523
0.0514652
-0.00932839
0.052685
-0.00654482
0.0532814
-0.00348207
0.0532394
-0.000114252
0.0525607
0.00359011
0.0512689
0.00765221
0.0493833
0.0120521
0.0468702
0.0167231
0.0435888
0.0215486
0.0391662
0.026249
0.0330628
0.0302501
0.0252573
0.0327493
0.0163681
0.0335658
0.00701
0.0334563
-0.0024803
0.0332412
-0.0119018
0.0332722
-0.0210028
0.0334141
-0.0293002
0.0330374
-0.0361024
0.0312355
-0.0411129
0.0277271
-0.0447275
0.0231687
-0.0474421
0.0182824
-0.0494748
0.0134593
-0.0508938
0.0088673
-0.0516948
0.00459063
-0.0518503
0.000671354
-0.0513502
-0.0028972
-0.0502056
-0.00614324
-0.0484379
-0.00909207
-0.046074
-0.0117621
-0.0431453
-0.0141674
-0.0396889
-0.0163197
-0.0357475
-0.0182286
-0.0313699
-0.0199017
-0.0266104
-0.0213431
-0.021528
-0.0225529
-0.0161854
-0.0235273
-0.0106478
-0.0242598
-0.00498219
-0.0247424
0.000743259
-0.0249687
0.00645978
-0.0249349
0.0120987
-0.0246417
0.0175921
-0.0240936
0.0228734
-0.0232976
0.027878
-0.0222616
0.0325439
-0.0209915
0.0368133
-0.0194902
0.0406333
-0.0177564
0.0439567
-0.015785
0.046742
-0.013568
0.048954
-0.011095
0.0505622
-0.00835383
0.0515412
-0.00532961
0.0518714
-0.00200232
0.0515462
0.00165498
0.0505818
0.00566823
0.049005
0.010033
0.0468056
0.0146948
0.0438873
0.0195573
0.0399689
0.024408
0.0345069
0.0287766
0.0272579
0.0318762
0.0186879
0.0332376
0.00946926
0.0333929
1.09878e-05
0.03324
-0.00946637
0.0332799
-0.0187447
0.0335215
-0.027422
0.0334831
-0.0348261
0.0322729
-0.0404593
0.0293225
-0.0445301
0.0250632
-0.0475881
0.020289
-0.0499299
0.015486
-0.0516606
0.0108771
-0.0527957
0.00656023
-0.0533102
0.00259146
-0.0531852
-0.00102232
-0.0524246
-0.00430799
-0.0510458
-0.00729608
-0.0490722
-0.0100106
-0.0465311
-0.0124697
-0.0434542
-0.0146884
-0.0398783
-0.0166788
-0.0358451
-0.0184506
-0.0314015
-0.0200103
-0.0265993
-0.0213603
-0.0214944
-0.0224986
-0.0161455
-0.023419
-0.0106137
-0.0241129
-0.00496197
-0.0245711
-0.0247861
0.00633353
-0.030354
0.0118539
-0.029995
0.0172246
-0.0293249
0.0223783
-0.0283539
0.0272503
-0.0270942
0.0317801
-0.0255579
0.0359118
-0.0237552
0.0395956
-0.0216927
0.0427876
-0.019373
0.0454504
-0.0167951
0.0475523
-0.0139541
0.0490664
-0.0108425
0.0499708
-0.0074493
0.0502495
-0.00376068
0.0498953
0.000239942
0.0489172
0.00456815
0.0473432
0.00922623
0.0452088
0.0141864
0.0425434
0.0193886
0.0393487
0.0247433
0.0355002
0.0300975
0.0306148
0.0351355
0.0241439
0.0392203
0.0160657
0.0416439
0.00699664
0.0425254
-0.00242437
0.0426623
-0.0116937
0.0425415
-0.0202516
0.0419719
-0.0274128
0.0401986
-0.0328687
0.0366915
-0.0370297
0.0318881
-0.0403958
0.0265348
-0.0431897
0.0210762
-0.0454447
0.0157143
-0.0471373
0.0105598
-0.0482324
0.00568576
-0.048697
0.00113596
-0.0485149
-0.00307931
-0.0476887
-0.00696942
-0.0462332
-0.0105476
-0.0441703
-0.013825
-0.0415276
-0.0168101
-0.0383384
-0.0195088
-0.0346426
-0.0219245
-0.0304867
-0.0240576
-0.0259244
-0.0259054
-0.0210154
-0.0274619
-0.015825
-0.0287178
-0.0104224
-0.0296624
-0.00487991
-0.0302849
0.000728064
-0.0305767
0.00632625
-0.0305331
0.0118395
-0.030155
0.017194
-0.029448
0.0223179
-0.0284216
0.027143
-0.0270867
0.0316054
-0.0254539
0.0356468
-0.0235315
0.0392153
-0.0213249
0.0422662
-0.0188359
0.0447614
-0.0160631
0.0466691
-0.0130026
0.047963
-0.0096478
0.048623
-0.00598957
0.0486367
-0.00201603
0.0480058
0.00228585
0.0467519
0.00692222
0.04491
0.0118749
0.0425134
0.0170914
0.0395789
0.0224918
0.0360386
0.0279482
0.0315995
0.0332157
0.0257147
0.0377611
0.0181321
0.0408202
0.00932528
0.0421997
-3.12043e-05
0.0425965
-0.00941155
0.0426602
-0.0182917
0.0424016
-0.0259945
0.0411859
-0.0320173
0.0382957
-0.0365794
0.0338847
-0.0402328
0.0287166
-0.0432854
0.0233417
-0.0458148
0.0180153
-0.0478065
0.0128689
-0.0492289
0.00798256
-0.0500465
0.00340909
-0.050236
-0.000832847
-0.0497931
-0.00475082
-0.0487279
-0.00836126
-0.0470583
-0.0116802
-0.0448075
-0.0147206
-0.0420034
-0.0174925
-0.0386793
-0.0200029
-0.0348742
-0.0222556
-0.0306336
-0.0242509
-0.026009
-0.025985
-0.0210574
-0.0274501
-0.0158407
-0.0286357
-0.0104243
-0.0295293
-0.00487636
-0.0301191
-0.0303956
0.0060774
-0.0357276
0.0113667
-0.0352843
0.0164989
-0.034457
0.0214035
-0.0332585
0.0260145
-0.0317052
0.0302706
-0.029814
0.0341167
-0.0276013
0.0375043
-0.0250803
0.0403921
-0.0222609
0.0427458
-0.0191487
0.0445372
-0.0157456
0.0457442
-0.0120495
0.0463504
-0.00805546
0.0463461
-0.00375642
0.0457314
0.000854624
0.0445197
0.00577989
0.0427387
0.0110073
0.0404243
0.0165008
0.0376144
0.0221984
0.0343442
0.0280135
0.030617
0.0338246
0.0263077
0.0394449
0.0210273
0.0445006
0.0143349
0.0483364
0.00637374
0.0504865
-0.00216046
0.0511964
-0.0104565
0.0508376
-0.0177339
0.0492493
-0.0235577
0.0460223
-0.0281743
0.0413081
-0.0320602
0.035774
-0.035447
0.0299217
-0.0383673
0.0239965
-0.0407929
0.01814
-0.0426855
0.0124524
-0.0440073
0.00700756
-0.0447262
0.00185488
-0.0448234
-0.00298213
-0.0442949
-0.00749784
-0.0431486
-0.0116939
-0.0414005
-0.0155731
-0.0390733
-0.0191374
-0.0361964
-0.0223857
-0.0328064
-0.0253145
-0.0289473
-0.0279166
-0.0246711
-0.0301817
-0.0200368
-0.0320962
-0.01511
-0.0336445
-0.00996176
-0.0348106
-0.00466708
-0.0355796
0.000696347
-0.0359401
0.0060495
-0.0358863
0.0113136
-0.035419
0.0164114
-0.0345458
0.021269
-0.0332791
0.0258165
-0.0316342
0.0299899
-0.0296273
0.0337319
-0.0272736
0.0369927
-0.0245857
0.0397301
-0.0215733
0.0419096
-0.0182426
0.0435034
-0.0145964
0.0444905
-0.0106349
0.0448569
-0.00635589
0.0445973
-0.00175645
0.0437193
0.00316385
0.0422457
0.00839581
0.0402109
0.0139097
0.037653
0.0196493
0.0346099
0.0255349
0.0311012
0.031457
0.0270593
0.0372576
0.0221797
0.0426407
0.0159742
0.0470258
0.00836647
0.0498074
-6.93568e-05
0.0510323
-0.00853201
0.0511229
-0.0162158
0.0500854
-0.0225237
0.0474938
-0.0275007
0.0432726
-0.0316324
0.0380164
-0.0352368
0.032321
-0.0383897
0.0264946
-0.0410744
0.0207
-0.0432536
0.0150481
-0.0448897
0.00961869
-0.0459481
0.00446749
-0.0464044
-0.000376523
-0.0462491
-0.0049061
-0.0454851
-0.00912526
-0.044124
-0.0130413
-0.0421836
-0.0166609
-0.0396877
-0.0199884
-0.036666
-0.0230247
-0.0331545
-0.0257671
-0.0291966
-0.0282089
-0.0248423
-0.0303392
-0.0201486
-0.0321439
-0.015178
-0.0336063
-0.00999799
-0.0347094
-0.00467954
-0.0354375
-0.035779
0.00570369
-0.0407705
0.0106606
-0.0402413
0.0154574
-0.0392537
0.0200231
-0.0378242
0.0242916
-0.0359737
0.0282028
-0.0337252
0.0317033
-0.0311018
0.0347473
-0.0281243
0.0372967
-0.0248102
0.0393207
-0.0211727
0.0407958
-0.0172206
0.0417048
-0.0129585
0.0420372
-0.00838788
0.0417898
-0.00350901
0.0409683
0.00167612
0.0395894
0.00715871
0.0376811
0.0129156
0.0352788
0.0189031
0.0324223
0.0250549
0.0291535
0.0312824
0.0255072
0.0374708
0.0214826
0.0434695
0.0169483
0.0490348
0.0115815
0.0537033
0.00521963
0.0568483
-0.00171186
0.0581279
-0.00839965
0.0575254
-0.0141921
0.0550417
-0.0190122
0.0508425
-0.023184
0.04548
-0.026931
0.039521
-0.0302944
0.0332851
-0.0332478
0.0269499
-0.03575
0.0206421
-0.0377595
0.0144619
-0.0392384
0.00848648
-0.0401552
0.00277167
-0.0404889
-0.00264841
-0.0402306
-0.00775619
-0.0393815
-0.0125429
-0.0379515
-0.0170031
-0.0359581
-0.0211308
-0.033426
-0.0249179
-0.0303877
-0.0283528
-0.0268839
-0.0314204
-0.0229638
-0.0341018
-0.0186844
-0.0363755
-0.0141103
-0.0382187
-0.00931213
-0.0396088
-0.00436532
-0.0405264
0.000651343
-0.0409568
0.00565757
-0.0408925
0.0105733
-0.0403348
0.0153205
-0.039293
0.0198247
-0.0377833
0.0240167
-0.0358263
0.027834
-0.0334446
0.0312214
-0.0306609
0.0341319
-0.0274963
0.036527
-0.0239685
0.0383763
-0.0200919
0.0396568
-0.015877
0.0403532
-0.0113313
0.0404575
-0.00646027
0.0399711
-0.00126999
0.0389058
0.00422916
0.0372856
0.010016
0.0351443
0.016051
0.0325207
0.0222729
0.029457
0.0285985
0.0259925
0.0349215
0.0221441
0.041106
0.0178346
0.0469501
0.0127869
0.0520735
0.00672791
0.0558664
-0.000102427
0.0578627
-0.0069566
0.0579771
-0.013075
0.0562039
-0.018192
0.0526107
-0.0225686
0.0476493
-0.0264899
0.0419377
-0.0300403
0.0358714
-0.0332058
0.0296601
-0.0359481
0.0234423
-0.0382255
0.0173255
-0.0399992
0.0113923
-0.0412351
0.0057034
-0.0419081
0.000296483
-0.0420045
-0.00480966
-0.0415212
-0.00960859
-0.0404634
-0.0140991
-0.0388433
-0.018281
-0.0366798
-0.0221519
-0.0339982
-0.0257062
-0.0308312
-0.0289341
-0.0272188
-0.0318212
-0.023209
-0.0343491
-0.0188568
-0.036496
-0.0142243
-0.0382389
-0.00937873
-0.0395549
-0.00439211
-0.0404241
-0.0408319
0.00523441
-0.0453983
0.0097767
-0.0447835
0.01416
-0.0436371
0.0183147
-0.0419789
0.0221763
-0.0398353
0.0256869
-0.0372359
0.0287963
-0.0342111
0.031462
-0.03079
0.0336499
-0.0269981
0.0353337
-0.0228565
0.0364947
-0.0183817
0.0371215
-0.0135852
0.0372094
-0.00847577
0.0367612
-0.00306087
0.0357881
0.00264921
0.0343104
0.00863642
0.0323574
0.0148687
0.0299653
0.0212952
0.027176
0.0278442
0.0240357
0.0344227
0.0205929
0.0409137
0.0168919
0.0471706
0.012941
0.0529858
0.00864584
0.0579984
0.00387945
0.0616147
-0.00120212
0.0632095
-0.00614315
0.0624664
-0.0106215
0.0595201
-0.0146755
0.0548965
-0.0184416
0.049246
-0.0219482
0.0430276
-0.0251598
0.0364967
-0.0280274
0.0298175
-0.030503
0.0231177
-0.0325424
0.0165013
-0.0341066
0.0100507
-0.0351631
0.00382815
-0.0356881
-0.00212337
-0.0356679
-0.00777646
-0.0350976
-0.0131132
-0.0339811
-0.0181196
-0.0323299
-0.022782
-0.0301635
-0.0270842
-0.0275098
-0.0310065
-0.0244054
-0.0345248
-0.0208955
-0.0376117
-0.0170341
-0.0402369
-0.0128831
-0.0423697
-0.0085111
-0.0439808
-0.00399227
-0.0450452
0.000595687
-0.0455448
0.00517331
-0.0454701
0.00966139
-0.0448228
0.013983
-0.0436146
0.0180652
-0.0418655
0.0218411
-0.0396021
0.0252506
-0.0368541
0.0282421
-0.0336524
0.0307725
-0.0300266
0.0328075
-0.0260035
0.0343215
-0.0216059
0.035297
-0.0168525
0.0357245
-0.0117588
0.0356024
-0.00633816
0.0349377
-0.000605243
0.0337467
0.00542016
0.0320556
0.011707
0.0298989
0.0182078
0.0273169
0.0248548
0.0243552
0.0315603
0.0210622
0.0382145
0.0174859
0.0446823
0.0136522
0.0507838
0.00950366
0.0562221
0.00489591
0.0604742
-0.000126284
0.0628849
-0.00516296
0.0630137
-0.00980511
0.060846
-0.0139951
0.0568007
-0.017877
0.0515313
-0.0215141
0.0455747
-0.024883
0.0392403
-0.0279366
0.0327137
-0.0306268
0.0261325
-0.0329083
0.019607
-0.0347408
0.0132249
-0.0360895
0.0070521
-0.0369274
0.0011343
-0.0372365
-0.00450053
-0.0370081
-0.00983698
-0.0362413
-0.0148659
-0.0349426
-0.0195797
-0.0331253
-0.0239692
-0.03081
-0.0280215
-0.028025
-0.0317191
-0.0248066
-0.0350396
-0.0211992
-0.0379564
-0.0172553
-0.0404399
-0.0130345
-0.0424596
-0.00860282
-0.0439866
-0.00403103
-0.0449959
-0.0454696
0.00468758
-0.0495423
0.00874875
-0.0488447
0.012656
-0.0475443
0.0163422
-0.0456652
0.0197463
-0.0432394
0.0228139
-0.0403034
0.0254985
-0.0368957
0.0277621
-0.0330536
0.0295752
-0.0288112
0.0309166
-0.0241979
0.0317728
-0.0192379
0.0321381
-0.0139505
0.0320137
-0.00835145
0.0314086
-0.0024557
0.0303389
0.00371884
0.0288293
0.010146
0.026912
0.016786
0.0246258
0.0235813
0.0220159
0.030454
0.0191343
0.0373044
0.0160399
0.0440081
0.0128003
0.0504101
0.00948414
0.056302
0.00612728
0.0613552
0.00270741
0.0650346
-0.000769344
0.0666863
-0.00421551
0.0659126
-0.00758177
0.0628864
-0.0108928
0.0582075
-0.0141388
0.052492
-0.0172587
0.0461476
-0.0201819
0.0394199
-0.0228452
0.0324807
-0.0251932
0.0254657
-0.0271776
0.0184857
-0.0287566
0.0116296
-0.0298949
0.00496645
-0.030565
-0.00145321
-0.0307481
-0.00759335
-0.0304337
-0.0134276
-0.0296192
-0.0189341
-0.0283104
-0.0240908
-0.0265212
-0.0288735
-0.0242741
-0.0332536
-0.0216007
-0.0371982
-0.0185418
-0.0406706
-0.0151471
-0.0436317
-0.0114744
-0.0460423
-0.00758915
-0.0478661
-0.0035622
-0.0490722
0.000531516
-0.0496385
0.00461525
-0.0495539
0.00861252
-0.0488201
0.0124493
-0.0474513
0.0160558
-0.0454721
0.0193687
-0.042915
0.022332
-0.0398174
0.0248983
-0.0362187
0.0270293
-0.0321576
0.0286957
-0.0276699
0.0298772
-0.0227874
0.0305621
-0.0175374
0.0307468
-0.0119435
0.0304359
-0.00602727
0.0296421
0.000188606
0.0283864
0.00667584
0.0266984
0.013395
0.0246153
0.0202909
0.0221804
0.0272897
0.019444
0.0342967
0.0164631
0.0411953
0.0133034
0.047842
0.010036
0.0540513
0.00671257
0.0595455
0.00332671
0.06386
-0.000136014
0.0663476
-0.00360426
0.066482
-0.00700461
0.0642464
-0.0103507
0.0601467
-0.0136525
0.0548331
-0.0168611
0.0487834
-0.0199063
0.0422855
-0.0227226
0.03553
-0.0252529
0.0286628
-0.0274471
0.0218013
-0.0292618
0.0150395
-0.0306595
0.00844983
-0.0316101
0.00208488
-0.0320912
-0.00401946
-0.0320884
-0.00983976
-0.031595
-0.0153593
-0.0306114
-0.0205633
-0.0291455
-0.0254352
-0.0272125
-0.0299545
-0.0248359
-0.0340957
-0.0220474
-0.0378281
-0.0188873
-0.0411165
-0.0154041
-0.0439231
-0.011654
-0.0462097
-0.00769996
-0.0479406
-0.00361019
-0.0490857
-0.0496232
0.00407781
-0.0531471
0.00760411
-0.052371
0.0109849
-0.0509251
0.0141575
-0.0488378
0.017065
-0.0461468
0.0196576
-0.0428961
0.0218939
-0.039132
0.0237408
-0.0349005
0.0251739
-0.0302443
0.0261773
-0.0252013
0.0267431
-0.0198037
0.0268712
-0.0140786
0.0265688
-0.00804899
0.0258501
-0.00173706
0.0247369
0.00483204
0.0232581
0.0116248
0.0214496
0.0185945
0.019354
0.025677
0.0170205
0.0327876
0.0145061
0.0398187
0.0118776
0.0466366
0.00921368
0.053074
0.00660362
0.058912
0.00412524
0.0638336
0.00179599
0.0673639
-0.000451106
0.0689334
-0.00272791
0.0681894
-0.00512716
0.0652856
-0.00766797
0.0607483
-0.0102909
0.0551149
-0.0129061
0.0487627
-0.0154287
0.0419425
-0.0177866
0.0348386
-0.0199184
0.0275975
-0.0217712
0.0203386
-0.0232996
0.013158
-0.0244644
0.00613131
-0.0252341
-0.0006835
-0.0255846
-0.00724283
-0.0254998
-0.0135125
-0.0249711
-0.0194627
-0.0239984
-0.0250635
-0.0225898
-0.0302821
-0.0207622
-0.0350811
-0.0185417
-0.0394187
-0.0159637
-0.0432486
-0.0130726
-0.0465227
-0.0099215
-0.0491935
-0.00657069
-0.0512169
-0.00308654
-0.0525563
0.000460537
-0.0531855
0.0039982
-0.0530915
0.0074544
-0.0522763
0.0107596
-0.0507565
0.0138488
-0.0485613
0.0166634
-0.0457296
0.0191526
-0.0423066
0.0212742
-0.0383403
0.0229952
-0.0338786
0.024292
-0.0289666
0.0251499
-0.0236453
0.025563
-0.0179505
0.0255338
-0.0119143
0.0250726
-0.00556607
0.0241977
0.00106351
0.0229351
0.0079384
0.0213185
0.0150116
0.0193885
0.0222209
0.0171926
0.0294856
0.0147856
0.0367037
0.0122315
0.0437494
0.00960566
0.0504678
0.00699577
0.0566612
0.00448862
0.0620527
0.00212683
0.0662218
-0.000131341
0.0686058
-0.00238981
0.0687404
-0.0047545
0.0666111
-0.00727215
0.0626644
-0.00990484
0.0574658
-0.0125678
0.0514464
-0.0151737
0.0448913
-0.0176469
0.0380033
-0.0199236
0.0309395
-0.0219489
0.0238266
-0.0236753
0.0167659
-0.025062
0.00983651
-0.0260748
0.00309772
-0.0266868
-0.00340754
-0.026878
-0.00964847
-0.0266362
-0.0156012
-0.025956
-0.0212435
-0.0248394
-0.0265517
-0.0232966
-0.0314974
-0.0213454
-0.0360469
-0.0190127
-0.0401609
-0.0163335
-0.0437957
-0.0133518
-0.0469048
-0.0101192
-0.0494423
-0.00669418
-0.0513656
-0.00314082
-0.0526391
-0.0532371
0.00341681
-0.0561673
0.00636475
-0.055319
0.00917893
-0.0537393
0.0118021
-0.051461
0.0141831
-0.0485278
0.0162779
-0.0449908
0.0180503
-0.0409045
0.0194731
-0.0363233
0.0205273
-0.0312985
0.0212024
-0.0258764
0.0214961
-0.0200974
0.0214136
-0.0139961
0.0209675
-0.00760288
0.0201774
-0.000946942
0.0190697
0.00593969
0.0176777
0.0130168
0.0160409
0.0202313
0.014205
0.0275128
0.0122225
0.0347701
0.0101532
0.041888
0.00806612
0.0487237
0.00604034
0.0550998
0.00416216
0.0607902
0.00250489
0.0654909
0.00107831
0.0687904
-0.000219014
0.0702307
-0.00156694
0.0695373
-0.00311064
0.0668293
-0.00488463
0.0625223
-0.00683408
0.0570644
-0.00887316
0.0508018
-0.0109181
0.0439874
-0.012895
0.0368155
-0.0147399
0.0294424
-0.0163968
0.0219955
-0.0178169
0.0145781
-0.0189578
0.00727222
-0.0197837
0.000142383
-0.0202657
-0.00676079
-0.0203824
-0.0133958
-0.0201199
-0.0197253
-0.0194721
-0.0257113
-0.0184415
-0.0313127
-0.0170392
-0.0364835
-0.0152854
-0.0411725
-0.0132095
-0.0453245
-0.0108499
-0.0488823
-0.00825369
-0.0517897
-0.00547505
-0.0539955
-0.00257432
-0.055457
0.000384104
-0.056144
0.0033339
-0.0560413
0.00620902
-0.0551514
0.00894594
-0.0534934
0.0114857
-0.0511011
0.0137759
-0.0480198
0.0157716
-0.0443023
0.0174367
-0.0400054
0.0187442
-0.0351861
0.0196762
-0.0298986
0.0202239
-0.024193
0.0203871
-0.0181138
0.020174
-0.0117011
0.0196003
-0.00499244
0.0186896
0.00197422
0.0174725
0.00915549
0.0159866
0.0164975
0.0142759
0.0239316
0.0123911
0.0313704
0.01039
0.0387048
0.00833907
0.0458003
0.00631489
0.052492
0.00440323
0.0585728
0.00268645
0.0637695
0.00120184
0.0677064
-0.000115422
0.069923
-0.00143064
0.0700556
-0.00291229
0.0680927
-0.00463167
0.0643838
-0.00655644
0.0593905
-0.00860629
0.0534962
-0.0106959
0.046981
-0.0127488
0.0400562
-0.0146986
0.0328892
-0.0164873
0.0256153
-0.0180644
0.018343
-0.0193859
0.0111579
-0.0204136
0.0041255
-0.0211163
-0.00270486
-0.0214692
-0.00929557
-0.0214545
-0.0156158
-0.0210616
-0.0216365
-0.0202871
-0.0273262
-0.0191354
-0.032649
-0.0176193
-0.037563
-0.0157598
-0.0420204
-0.0135866
-0.0459689
-0.0111378
-0.0493536
-0.00845959
-0.0521206
-0.0056048
-0.0542204
-0.00263196
-0.0556119
-0.0562657
0.00271403
-0.058566
0.00504835
-0.0576533
0.00726369
-0.0559546
0.0093097
-0.053507
0.0111418
-0.0503599
0.0127225
-0.0465715
0.0140221
-0.0422041
0.015019
-0.0373202
0.0157002
-0.0319796
0.0160605
-0.0262367
0.0161027
-0.0201396
0.0158372
-0.0137305
0.0152812
-0.00704691
0.0144589
-0.000124664
0.0134009
0.00699773
0.0121437
0.014274
0.0107295
0.0216455
0.00920615
0.0290362
0.00762681
0.0363494
0.00605086
0.0434639
0.00454392
0.0502306
0.00317689
0.0564668
0.00202016
0.0619469
0.001124
0.0663871
0.000475898
0.0694385
-3.88365e-05
0.0707454
-0.000606637
0.0701051
-0.00138218
0.0676049
-0.00241881
0.0635589
-0.00368588
0.0583314
-0.00511706
0.052233
-0.0066398
0.0455101
-0.00818542
0.0383611
-0.00969142
0.0309484
-0.0111015
0.0234056
-0.0123651
0.0158417
-0.0134376
0.00834463
-0.0142797
0.000984479
-0.0148586
-0.00618183
-0.0151484
-0.0131061
-0.0151302
-0.0197435
-0.0147927
-0.0260487
-0.014133
-0.0319724
-0.0131562
-0.0374602
-0.0118767
-0.0424521
-0.0103173
-0.0468839
-0.00850987
-0.0506897
-0.00649424
-0.0538054
-0.00431754
-0.0561722
-0.00203272
-0.0577419
0.000303289
-0.05848
0.00263164
-0.0583697
0.00489376
-0.0574136
0.00703357
-0.0556332
0.00899947
-0.053067
0.0107461
-0.0497664
0.0122356
-0.0457918
0.0134385
-0.0412083
0.014334
-0.0360816
0.0149103
-0.030475
0.0151643
-0.024447
0.0151013
-0.0180507
0.0147343
-0.0113342
0.0140843
-0.00434243
0.0131791
0.00287949
0.012053
0.0102815
0.0107469
0.0178037
0.00930685
0.0253716
0.00778493
0.0328924
0.00623902
0.0402507
0.00473328
0.0473061
0.00333778
0.0538875
0.00212499
0.0597856
0.00115584
0.0647386
0.000443872
0.0684184
-9.20421e-05
0.0704589
-0.00062499
0.0705886
-0.00133102
0.0687987
-0.00229725
0.06535
-0.00351489
0.0606082
-0.00492528
0.0549066
-0.00645679
0.0485125
-0.00803963
0.041639
-0.00960982
0.0344594
-0.0111096
0.0271151
-0.0124872
0.0197206
-0.0136963
0.012367
-0.0146961
0.00512532
-0.0154516
-0.00194936
-0.0159338
-0.0088133
-0.0161205
-0.0154292
-0.015996
-0.021761
-0.015552
-0.0277702
-0.0147876
-0.0334134
-0.0137102
-0.0386405
-0.0123348
-0.0433957
-0.0106854
-0.0476183
-0.00879355
-0.0512454
-0.00669881
-0.0542153
-0.00444738
-0.0564719
-0.00209087
-0.0579684
-0.0586719
0.00197719
-0.0603132
0.00366939
-0.0593455
0.00526027
-0.0575455
0.00670751
-0.0549542
0.00797429
-0.0516267
0.00903039
-0.0476276
0.00985291
-0.0430266
0.0104266
-0.037894
0.0107441
-0.0322971
0.0108055
-0.0262981
0.0106184
-0.0199525
0.0101973
-0.0133095
0.0095637
-0.00641329
0.00874514
0.000693899
0.00777515
0.00796772
0.00669249
0.0153567
0.00554061
0.0227974
0.00436728
0.0302096
0.00322424
0.0374925
0.00216681
0.0445214
0.00125281
0.0511446
0.000539683
0.05718
7.68988e-05
0.0624097
-0.000111999
0.066576
-6.12002e-05
0.0693877
0.000112341
0.0705719
0.000236522
0.0699809
0.000163582
0.0676778
-0.000174424
0.0638969
-0.000773399
0.0589304
-0.00159117
0.0530508
-0.00257175
0.0464907
-0.00365646
0.0394458
-0.00478823
0.0320802
-0.00591323
0.0245306
-0.00698151
0.01691
-0.00794739
0.00931051
-0.00876988
0.00180697
-0.00941333
-0.00553838
-0.00984821
-0.0126712
-0.0100516
-0.0195401
-0.0100078