/*--------------------------------*- C++ -*----------------------------------*\
| =========                 |                                                 |
| \\      /  F ield         | OpenFOAM: The Open Source CFD Toolbox           |
|  \\    /   O peration     | Version:  2.3.0                                 |
|   \\  /    A nd           | Web:      www.OpenFOAM.org                      |
|    \\/     M anipulation  |                                                 |
\*---------------------------------------------------------------------------*/
FoamFile
{
    version     2.0;
    format      ascii;
    class       volScalarField;
    location    "7000";
    object      T;
}
// * * * * * * * * * * * * * * * * * * * * * * * * * * * * * * * * * * * * * //

dimensions      [0 0 0 1 0 0 0];

internalField   nonuniform List<scalar> 
3060
(
33.532
33.5594
33.6089
33.6785
33.766
33.8683
33.9817
34.1018
34.224
34.3434
34.4558
34.5671
34.6794
34.793
34.9079
35.025
35.1448
35.2667
35.3894
35.5102
35.626
35.7332
35.8277
35.9052
35.9608
35.9902
35.9897
35.9595
35.9029
35.8243
35.7284
35.6196
35.5018
35.3788
35.2538
35.1291
35.0062
34.8855
34.7665
34.6495
34.5356
34.4232
34.3068
34.1902
34.0762
33.9689
33.8723
33.7905
33.7265
33.683
33.6621
33.6655
33.6929
33.7423
33.8116
33.8979
33.9978
34.1074
34.2225
34.3392
34.4544
34.567
34.6817
34.7995
34.9188
35.04
35.1635
35.2885
35.4133
35.5352
35.6509
35.7565
35.8481
35.921
35.9707
35.9929
35.9849
35.9478
35.8856
35.8029
35.7045
35.5945
35.4769
35.3553
35.2326
35.1112
34.9921
34.8757
34.7613
34.648
34.536
34.4246
34.311
34.19
34.0679
33.9492
33.8384
33.7399
33.6572
33.5929
33.5494
33.5285
28.0605
28.1282
28.2505
28.4225
28.6384
28.8908
29.1714
29.4712
29.7822
30.1006
30.4275
30.758
31.0937
31.433
31.7746
32.1234
32.4805
32.8439
33.2091
33.5681
33.9118
34.2301
34.5117
34.7436
34.9116
35.0009
34.9997
34.9078
34.7371
34.5018
34.2161
33.8929
33.5434
33.1777
32.8052
32.4335
32.0671
31.7073
31.3513
30.9993
30.6591
30.3312
30.0188
29.7178
29.4305
29.1634
28.9246
28.7224
28.5645
28.4571
28.4055
28.4141
28.4816
28.6036
28.7745
28.9876
29.2352
29.5087
29.8003
30.1047
30.4212
30.7524
31.0959
31.4506
31.8064
32.168
32.5362
32.9088
33.2803
33.6425
33.9858
34.2998
34.5728
34.7917
34.9418
35.0095
34.9846
34.8721
34.6848
34.4377
34.1446
33.8182
33.4693
33.1077
32.7424
32.3804
32.0255
31.6789
31.3387
30.9995
30.6655
30.3361
30.0107
29.6946
29.3861
29.0908
28.8172
28.5741
28.3698
28.2111
28.1035
28.052
23.3047
23.3978
23.5665
23.8039
24.1024
24.4529
24.8455
25.2699
25.7178
26.1839
26.6669
27.1669
27.687
28.232
28.7919
29.3659
29.9542
30.552
31.1503
31.7365
32.2964
32.815
33.2753
33.6566
33.935
34.0848
34.083
33.9296
33.6469
33.2602
32.7933
32.2664
31.6968
31.0996
30.4892
29.8788
29.2771
28.6887
28.1122
27.5658
27.0474
26.5556
26.0895
25.6484
25.2354
24.8572
24.5226
24.2412
24.0222
23.8735
23.8022
23.814
23.9074
24.0763
24.3135
24.6106
24.9583
25.3471
25.7684
26.2166
26.6897
27.1886
27.7144
28.2683
28.8494
29.4423
30.0475
30.6591
31.2673
31.8585
32.4178
32.9299
33.3767
33.737
33.9863
34.0996
34.0573
33.8693
33.5597
33.1541
32.6757
32.144
31.5754
30.9845
30.3852
29.7893
29.2047
28.6346
28.0769
27.5398
27.0257
26.5306
26.0521
25.5909
25.1488
24.7323
24.3505
24.0135
23.7311
23.5121
23.3639
23.2929
19.3807
19.4881
19.6828
19.9574
20.3035
20.7119
21.1729
21.6771
22.2167
22.7868
23.3856
24.014
24.6746
25.3704
26.1016
26.8597
27.6432
28.4455
29.254
30.0499
30.8118
31.5174
32.1437
32.6644
33.047
33.2547
33.2528
33.0409
32.6529
32.1253
31.49
30.7733
29.9985
29.1886
28.3657
27.549
26.7517
25.9808
25.2412
24.5444
23.8885
23.2719
22.6935
22.1536
21.6553
21.2047
20.81
20.4803
20.2249
20.052
19.9691
19.9828
20.0913
20.2879
20.5649
20.9135
21.3247
21.7893
22.2997
22.8505
23.4394
24.0666
24.7335
25.4416
26.1917
26.9705
27.7743
28.5944
29.4159
30.2183
30.9794
31.6758
32.284
32.7763
33.1191
33.2757
33.2164
32.9564
32.5318
31.9787
31.328
30.6044
29.8309
29.0294
28.221
27.4231
26.6464
25.8964
25.1733
24.4873
23.8358
23.2158
22.6249
22.063
21.5326
21.0396
20.5923
20.2002
19.8732
19.6201
19.449
19.3671
16.2888
16.4037
16.6121
16.9063
17.2781
17.7184
18.2182
18.7694
19.3652
20.0016
20.6771
21.3925
22.1506
22.9545
23.8066
24.7017
25.6353
26.5986
27.5764
28.5474
29.4846
30.3565
31.1311
31.7755
32.2507
32.51
32.5085
32.2448
31.7637
31.1112
30.326
29.4414
28.4899
27.5036
26.5105
25.5327
24.586
23.6802
22.8245
22.0211
21.2691
20.5667
19.9129
19.3082
18.7554
18.2598
17.8287
17.4705
17.1938
17.007
16.9176
16.9324
17.0495
17.2621
17.5622
17.9415
18.3913
18.9035
19.4712
20.0897
20.7569
21.4729
22.239
23.0571
23.9282
24.8455
25.8019
26.7858
27.7795
28.7591
29.6954
30.5557
31.3075
31.9166
32.342
32.5369
32.462
32.1379
31.6113
30.9271
30.1222
29.2289
28.2793
27.3039
26.3283
25.3722
24.4487
23.5656
22.7262
21.935
21.189
20.4848
19.8202
19.1948
18.6109
18.0733
17.5891
17.1671
16.816
16.5449
16.3619
16.2743
13.9465
14.066
14.2829
14.5891
14.9761
15.435
15.9573
16.5354
17.1636
17.8385
18.5591
19.3269
20.145
21.0175
21.9484
22.9368
23.9764
25.0566
26.1608
27.2654
28.3396
29.3465
30.2451
30.9929
31.544
31.8453
31.8442
31.539
30.9819
30.2256
29.3158
28.2957
27.2068
26.0868
24.9674
23.8731
22.8219
21.8256
20.8919
20.0197
19.2067
18.4505
17.7495
17.1041
16.5169
15.9925
15.5378
15.1608
14.87
14.6738
14.58
14.5955
14.7184
14.9416
15.2572
15.6566
16.1314
16.6739
17.2777
17.9387
18.6549
19.4267
20.256
21.1452
22.0966
23.109
24.1736
25.2769
26.3993
27.5141
28.5879
29.5817
30.4531
31.1589
31.6515
31.8769
31.7894
31.4132
30.8024
30.0083
29.0753
28.0456
26.9595
25.8522
24.7526
23.6823
22.6561
21.6832
20.7688
19.9118
19.108
18.3536
17.6457
16.9836
16.3689
15.8057
15.3003
14.8605
14.4952
14.213
14.0225
13.9314
12.2265
12.3508
12.5762
12.8941
13.295
13.7695
14.3086
14.9048
15.5526
16.249
16.9937
17.7886
18.6382
19.5477
20.5236
21.5678
22.674
23.8308
25.0206
26.2182
27.3901
28.4955
29.4871
30.3136
30.9211
31.2522
31.2516
30.9173
30.304
29.4692
28.4667
27.3484
26.1621
24.9495
23.7449
22.5745
21.4574
20.4062
19.4267
18.5151
17.6672
16.8793
16.1494
15.4774
14.8656
14.3189
13.8444
13.4505
13.1464
12.9411
12.843
12.8591
12.9877
13.2213
13.5513
13.9685
14.4638
15.0291
15.6581
16.3463
17.0922
17.8965
18.7618
19.6918
20.6907
21.7615
22.8951
24.0772
25.2871
26.4962
27.6681
28.7592
29.7204
30.4992
31.0408
31.2873
31.191
30.7771
30.1031
29.2254
28.1971
27.0686
25.8857
24.6873
23.5044
22.3601
21.2701
20.2442
19.2877
18.3956
17.5618
16.7812
16.05
15.367
14.7331
14.1522
13.6302
13.1753
12.7966
12.5036
12.3056
12.2108
10.9895
11.1205
11.3578
11.6916
12.111
12.605
13.1633
13.7775
14.4416
15.1524
15.9098
16.7167
17.5785
18.5027
19.4978
20.5682
21.7082
22.9067
24.1459
25.3995
26.6324
27.8004
28.8518
29.7294
30.3726
30.7209
30.7208
30.3699
29.7214
28.8361
27.7745
26.5943
25.3477
24.0795
22.8258
21.6137
20.4622
19.3834
18.3821
17.4515
16.5854
15.7788
15.0287
14.335
13.7004
13.1305
12.6335
12.2193
11.8985
11.6815
11.5777
11.5948
11.7308
11.9776
12.3254
12.7636
13.2818
13.8703
14.5218
15.2313
15.997
16.8198
17.7033
18.6529
19.6749
20.7751
21.9451
23.1711
24.432
25.6982
26.9312
28.084
29.1026
29.9281
30.4998
30.7578
30.6567
30.2205
29.5059
28.574
27.4846
26.2936
25.0508
23.798
22.5678
21.384
20.2623
19.2122
18.2381
17.3323
16.4865
15.6938
14.9496
14.2517
13.601
13.0017
12.4603
11.986
11.5894
11.2814
11.0728
10.973
10.1057
10.2463
10.5006
10.8572
11.3029
11.8245
12.4094
13.0474
13.731
14.4563
15.2231
16.035
16.8985
17.8231
18.8198
19.8941
21.042
22.2536
23.5114
24.789
26.0499
27.2477
28.3278
29.229
29.8873
30.2411
30.2412
29.8852
29.2224
28.3141
27.2246
26.0154
24.7415
23.4498
22.1774
20.9513
19.7897
18.7033
17.6963
16.7591
15.8834
15.0629
14.2942
13.5772
12.9156
12.3166
11.7904
11.3492
11.0059
10.7732
10.6619
10.6801
10.8261
11.0906
11.4624
11.9285
12.476
13.0933
13.7709
14.5024
15.2854
16.1208
17.013
17.969
18.9974
20.1053
21.2862
22.5274
23.8084
25.0993
26.3603
27.5421
28.5876
29.434
30.0174
30.2784
30.1762
29.732
28.9997
28.0423
26.9236
25.703
24.4332
23.1577
21.9104
20.7151
19.5868
18.5336
17.5585
16.6521
15.8038
15.005
14.2499
13.5361
12.8646
12.2406
11.6721
11.1704
10.7481
10.4188
10.1951
10.088
9.46663
9.61985
9.89679
10.2838
10.7651
11.3242
11.9455
12.6161
13.3265
14.0714
14.8499
15.666
16.5272
17.4445
18.4314
19.4942
20.6307
21.8329
23.0843
24.3588
25.6193
26.8184
27.8995
28.7998
29.4546
29.8039
29.804
29.4528
28.7938
27.8869
26.7971
25.5873
24.3143
23.0259
21.7592
20.5408
19.3873
18.3074
17.304
16.3658
15.4829
14.6479
13.8569
13.1108
12.4146
11.7779
11.2138
10.7375
10.3651
10.112
9.99089
10.0108
10.1696
10.4572
10.8599
11.3622
11.948
12.6023
13.3131
14.0721
14.8751
15.723
16.6206
17.5762
18.6003
19.7009
20.8735
22.1074
23.3833
24.6716
25.9323
27.1147
28.1602
29.0046
29.5836
29.8404
29.7402
29.3005
28.571
27.6138
26.4938
25.2722
24.0035
22.7321
21.4921
20.3069
19.1903
18.1485
17.1825
16.282
15.4343
14.6293
13.8603
13.1248
12.4248
11.7667
11.1613
10.6223
10.1656
9.80776
9.56408
9.44737
8.98822
9.15698
9.46184
9.8867
10.4125
11.019
11.6871
12.4005
13.1467
13.9186
14.7145
15.5379
16.3972
17.3047
18.2755
19.3165
20.428
21.6039
22.8292
24.0786
25.3153
26.4916
27.5507
28.43
29.0663
29.4032
29.403
29.0639
28.4235
27.5379
26.4705
25.2839
24.035
22.7713
21.5296
20.3349
19.2022
18.138
17.1425
16.2046
15.3127
14.4588
13.6393
12.856
12.1162
11.4324
10.8212
10.3017
9.89373
9.61575
9.48268
9.50447
9.67897
9.99467
10.4355
10.9825
11.6157
12.3165
13.0694
13.8633
14.6923
15.5562
16.46
17.4129
18.4271
19.5104
20.6612
21.8709
23.1218
24.3855
25.6223
26.7818
27.8051
28.6287
29.1904
29.4379
29.342
28.9169
28.2069
27.2711
26.1732
24.9747
23.7301
22.4842
21.2705
20.1114
19.0192
17.998
17.0462
16.1534
15.3052
14.4901
13.701
12.9358
12.1977
11.4956
10.8428
10.2568
9.75711
9.36389
9.09556
8.96703
8.60895
8.7957
9.133
9.60207
10.1802
10.8431
11.5675
12.3332
13.1245
13.932
14.7522
15.5884
16.449
17.3472
18.2992
19.3124
20.3899
21.5275
22.7119
23.9191
25.1133
26.2476
27.2665
28.1091
28.7155
29.0344
29.0337
28.712
28.101
27.252
26.2248
25.0802
23.8735
22.6512
21.4486
20.289
19.1854
18.1416
17.1555
16.2162
15.3114
14.4326
13.577
12.7481
11.9557
11.2158
10.5491
9.97913
9.52979
9.22304
9.07623
9.10023
9.29281
9.64109
10.1262
10.7255
11.4147
12.171
12.9749
13.812
14.6741
15.5596
16.473
17.424
18.4257
19.4861
20.606
21.7793
22.9903
24.2123
25.4068
26.5247
27.5085
28.2971
28.8322
29.0667
28.9767
28.5736
27.8957
26.9979
25.9408
24.7845
23.5824
22.3784
21.2051
20.0833
19.0236
18.0281
17.0923
16.2059
15.3532
14.5221
13.7054
12.9019
12.1164
11.3605
10.651
10.0093
9.45914
9.02467
8.72771
8.58554
8.28578
8.49238
8.86558
9.38379
10.0204
10.7469
11.5354
12.3616
13.2063
14.0572
14.9092
15.7643
16.631
17.5227
18.4555
19.4383
20.4765
21.5678
22.7008
23.853
24.9906
26.0686
27.0335
27.8279
28.3966
28.6938
28.6922
28.3912
27.817
27.0156
26.0421
24.9533
23.8024
22.6337
21.4801
20.3629
19.2928
18.2714
17.294
16.3501
15.4272
14.517
13.618
12.7356
11.8828
11.0794
10.3504
9.72409
9.22879
8.89021
8.72825
8.7547
8.96723
9.35158
9.88597
10.5437
11.296
12.1154
12.9781
13.8661
14.7684
15.6816
16.6094
17.5611
18.5502
19.585
20.6688
21.7976
22.9582
24.1258
25.2642
26.3267
27.2581
28.0015
28.5038
28.7231
28.6402
28.2638
27.6271
26.7795
25.7773
24.6777
23.5319
22.382
21.2588
20.1816
19.159
18.1909
17.2706
16.3874
15.5251
14.6715
13.8197
12.9696
12.1285
11.3106
10.5368
9.83247
9.22601
8.74574
8.41714
8.25993
7.98954
8.21721
8.62861
9.19921
9.89848
10.6933
11.5515
12.4444
13.349
14.2502
15.1407
16.0211
16.8992
17.7884
18.7033
19.6555
20.6522
21.6926
22.7672
23.8556
24.9264
25.9379
26.8392
27.5772
28.1032
28.3769
28.3741
28.0948
27.5622
26.8164
25.9061
24.8823
23.7969
22.6899
21.5917
20.5209
19.4858
18.4865
17.5158
16.5633
15.6168
14.6692
13.7204
12.7782
11.859
10.9866
10.1906
9.5039
8.95955
8.58707
8.40902
8.43805
8.6718
9.09459
9.68158
10.4019
11.2223
12.1105
13.0381
13.9833
14.9322
15.8792
16.8263
17.7824
18.7604
19.7694
20.8148
21.8946
22.9977
24.1022
25.1749
26.1728
27.0424
27.7335
28.1992
28.403
28.3276
27.9805
27.3909
26.6025
25.6649
24.6322
23.5527
22.4654
21.3987
20.3698
19.3857
18.4447
17.5378
16.6535
15.7761
14.8934
13.9997
13.0964
12.1932
11.3074
10.4638
9.69222
9.02557
8.49652
8.13427
7.96111
7.70086
7.95021
8.40088
9.0253
9.78897
10.6545
11.5852
12.5484
13.5174
14.4739
15.4084
16.3197
17.2145
18.1053
19.0055
19.9288
20.8853
21.8731
22.8851
23.9037
24.9003
25.837
26.6683
27.347
27.8292
28.0792
28.0754
27.8178
27.3273
26.6392
25.797
24.8469
23.8336
22.7938
21.7544
20.7313
19.7298
18.7505
17.7835
16.8181
15.8431
14.8529
13.8495
12.8433
11.8542
10.9097
10.0443
9.29542
8.70057
8.29316
8.09851
8.13021
8.38584
8.84822
9.48939
10.2744
11.1654
12.1254
13.1217
14.1287
15.1291
16.1148
17.0863
18.0508
19.0203
20.0052
21.0132
22.0419
23.0835
24.1191
25.119
26.0439
26.8479
27.4851
27.9139
28.1023
28.0343
27.7168
27.1759
26.4501
25.5846
24.627
23.6208
22.6015
21.5948
20.6153
19.6683
18.7523
17.8556
16.9656
16.0674
15.15
14.2089
13.2476
12.278
11.3208
10.4047
9.56388
8.83535
8.25619
7.85934
7.66976
7.40692
7.67805
8.16784
8.84559
9.67296
10.6084
11.6116
12.6459
13.681
14.6957
15.6781
16.6251
17.5415
18.4383
19.3278
20.2248
21.1397
22.0743
23.0229
23.9702
24.8909
25.7514
26.5119
27.1308
27.5692
27.7957
27.7908
27.5544
27.1056
26.4753
25.7017
24.8255
23.8854
22.9136
21.9334
20.9579
19.9912
19.0298
18.0631
17.0804
16.0727
15.0364
13.9755
12.9037
11.8437
10.8271
9.8927
9.08215
8.43704
7.99467
7.78327
7.81768
8.09533
8.59727
9.29228
10.1414
11.1027
12.1349
13.2009
14.2716
15.3265
16.355
17.3551
18.3322
19.2964
20.2585
21.2278
22.2054
23.1852
24.1509
25.0769
25.9286
26.6665
27.2499
27.6424
27.8157
27.7551
27.4671
26.9749
26.3125
25.52
24.6389
23.7077
22.7579
21.812
20.8826
19.9732
19.0793
18.189
17.2882
16.3642
15.4075
14.4154
13.3934
12.356
11.3269
10.3387
9.42925
8.63952
8.01063
7.57924
7.37314
7.0991
7.39176
7.91939
8.64803
9.53571
10.5373
11.6087
12.7102
13.8091
14.8815
15.9132
16.8986
17.8405
18.7475
19.631
20.5065
21.3847
22.2697
23.1575
24.0354
24.8819
25.6679
26.3591
26.9195
27.3152
27.5188
27.5127
27.2967
26.888
26.3137
25.6067
24.8021
23.9329
23.0264
22.1021
21.1704
20.2333
19.2853
18.3151
17.312
16.2691
15.1854
14.0677
12.9323
11.8051
10.7208
9.72124
8.85201
8.15867
7.68221
7.45406
7.49125
7.79075
8.33105
9.07757
9.98757
11.0151
12.1151
13.2477
14.3803
15.4897
16.5624
17.594
18.5874
19.5499
20.494
21.4294
22.3597
23.2806
24.179
25.0334
25.8143
26.488
27.0194
27.3769
27.5358
27.4825
27.2231
26.7785
26.1781
25.4569
24.6508
23.7929
22.9104
22.0224
21.1392
20.2625
19.386
18.4977
17.5818
16.6283
15.6298
14.5858
13.5041
12.4016
11.3049
10.2487
9.27439
8.42661
7.75012
7.28515
7.06256
6.7701
7.08248
7.64418
8.41813
9.3593
10.4196
11.5523
12.7154
13.874
15.002
16.0826
17.1081
18.0784
18.9997
19.8826
20.7425
21.5905
22.4317
23.264
24.0774
24.8541
25.5698
26.1954
26.7002
27.0555
27.2372
27.2298
27.0328
26.6618
26.1399
25.4953
24.7575
23.954
23.1074
22.2332
21.3392
20.4255
19.4854
18.5076
17.481
16.4016
15.2709
14.0988
12.9041
11.7153
10.5698
9.51214
8.59069
7.8542
7.34688
7.10327
7.14307
7.46258
8.03748
8.83
9.79417
10.8809
12.0425
13.2362
14.4271
15.5891
16.7061
17.7709
18.7837
19.7494
20.6812
21.5891
22.4779
23.3457
24.1823
24.9701
25.6849
26.2984
26.781
27.1057
27.2511
27.2049
26.9729
26.5734
26.0319
25.3781
24.6427
23.8536
23.0334
22.1979
21.3549
20.5044
19.6394
18.7476
17.8132
16.8276
15.7864
14.6913
13.5526
12.3897
11.2313
10.1143
9.08236
8.18308
7.46411
6.96877
6.73098
6.41448
6.74333
7.33309
8.14408
9.12895
10.2377
11.4218
12.6377
13.849
15.0277
16.1548
17.2202
18.221
19.1602
20.048
20.899
21.7241
22.529
23.3133
24.0695
24.7833
25.435
26.0005
26.4543
26.7721
26.9335
26.9245
26.7448
26.4079
25.9336
25.3454
24.6675
23.9222
23.1277
22.2958
21.4319
20.5345
19.5966
18.6071
17.5549
16.4389
15.2638
14.0421
12.7951
11.5536
10.3568
9.25109
8.28677
7.51481
6.98192
6.72533
6.76734
7.10361
7.70708
8.53736
9.54604
10.6819
11.8954
13.1419
14.3845
15.5949
16.7544
17.8528
18.8874
19.8612
20.787
21.6747
22.5299
23.3523
24.1347
24.8633
25.5187
26.0778
26.5161
26.811
26.9443
26.905
26.6984
26.3404
25.853
25.261
24.5897
23.8623
23.0971
22.3066
21.4962
20.6648
19.8048
18.9043
17.9482
16.9293
15.846
14.703
13.5129
12.2971
11.0861
9.91837
8.83922
7.8979
7.14415
6.62371
6.37316
6.02844
6.36924
6.97894
7.81597
8.83162
9.97498
11.197
12.4534
13.7068
14.9282
16.0965
17.1992
18.2305
19.1904
20.0881
20.9369
21.747
22.5243
23.2696
23.9775
24.6372
25.233
25.7455
26.1539
26.4382
26.5812
26.5704
26.4056
26.0986
25.6658
25.1263
24.4997
23.8035
23.0517
22.253
21.4107
20.5223
19.5809
18.5765
17.4982
16.3482
15.134
13.8708
12.5822
11.3004
10.0658
8.92549
7.93078
7.13367
6.58242
6.31631
6.35998
6.70844
7.33234
8.18936
9.22969
10.4011
11.6532
12.9405
14.2248
15.4762
16.6736
17.804
18.8615
19.8476
20.7735
21.6487
22.479
23.2653
24.0028
24.6813
25.2856
25.7974
26.1971
26.4661
26.589
26.5561
26.3724
26.0516
25.6122
25.0744
24.459
23.7845
23.0653
22.3108
21.5246
20.7045
19.8432
18.9296
17.9498
16.8983
15.7764
14.5916
13.3588
12.1012
10.8504
9.64563
8.53285
7.56196
6.78372
6.24536
5.98549
5.6094
5.95641
6.57585
7.42519
8.45549
9.6161
10.8585
12.1388
13.4198
14.6716
15.8719
17.0058
18.065
19.0461
19.9572
20.8096
21.6123
22.3709
23.0867
23.7564
24.3719
24.9211
25.3888
25.7585
26.0139
26.1406
26.1278
25.9752
25.6931
25.2948
24.7955
24.2104
23.5532
22.834
22.0591
21.23
20.344
19.3949
18.3741
17.2721
16.0938
14.8497
13.5574
12.242
10.9366
9.68163
8.52398
7.51455
6.70523
6.14475
5.87355
5.91814
6.273
6.90705
7.77699
8.83275
10.0223
11.2957
12.6075
13.9194
15.2003
16.4273
17.5849
18.6641
19.6645
20.5956
21.4654
22.2795
23.0393
23.7421
24.3805
24.9432
25.4161
25.7836
26.031
26.1455
26.1187
25.9549
25.6662
25.2675
24.7755
24.2064
23.5748
22.8916
22.1636
21.393
20.5772
19.7093
18.7797
17.7767
16.6962
15.5426
14.3262
13.0637
11.7796
10.5058
9.2816
8.15235
7.16749
6.3776
5.83035
5.56554
5.15568
5.50201
6.11905
6.96434
7.9899
9.14664
10.3877
11.6709
12.9598
14.2247
15.4427
16.5971
17.6772
18.6765
19.6016
20.4611
21.2622
22.0099
22.7054
23.3468
23.9282
24.4405
24.8721
25.2101
25.4415
25.5544
25.5395
25.3963
25.1337
24.7625
24.2944
23.7412
23.1128
22.4166
21.657
20.8344
19.9464
18.9879
17.9525
16.8336
15.6376
14.378
13.0741
11.7517
10.444
9.19039
8.03635
7.03108
6.22508
5.66628
5.39534
5.43998
5.79426
6.42614
7.29243
8.34402
9.53046
10.8033
12.1188
13.4389
14.7327
15.976
17.1515
18.2472
19.2609
20.1994
21.0689
21.8739
22.6162
23.2941
23.9026
24.4333
24.8756
25.2179
25.4483
25.5566
25.5352
25.3882
25.1259
24.7606
24.3053
23.7726
23.1737
22.5168
21.8066
21.0443
20.2273
19.3502
18.4051
17.3829
16.2814
15.108
13.875
12.6009
11.3103
10.035
8.81301
7.68806
6.70788
5.92164
5.37627
5.11179
4.66645
5.00417
5.60489
6.42734
7.42575
8.55382
9.76765
11.0276
12.2993
13.5541
14.7693
15.9272
17.0153
18.0245
18.9592
19.8251
20.6271
21.3685
22.0507
22.6719
23.2281
23.7124
24.1161
24.4291
24.6413
24.7429
24.7256
24.5892
24.3412
23.9902
23.5453
23.0152
22.4073
21.7268
20.9768
20.1575
19.2674
18.303
17.2606
16.1368
14.9401
13.6855
12.3933
11.0895
9.80572
8.57964
7.45385
6.47467
5.68986
5.14534
4.88083
4.92449
5.27014
5.88568
6.72918
7.75382
8.91193
10.158
11.4508
12.7543
14.0382
15.2784
16.4561
17.5574
18.5779
19.5215
20.3917
21.1917
21.9226
22.5834
23.1704
23.6776
24.0973
24.4206
24.6384
24.7425
24.7259
24.5927
24.3514
24.0121
23.5851
23.0799
22.505
21.8664
21.1677
20.4095
19.59
18.7053
17.75
16.7182
15.6098
14.4345
13.2064
11.9444
10.6729
9.42222
8.22817
7.13176
6.17779
5.41276
4.88163
4.62354
4.14164
4.46201
5.03105
5.80987
6.75611
7.82742
8.98393
10.1897
11.4133
12.6283
13.813
14.9499
16.0254
17.0289
17.9619
18.8267
19.6258
20.3605
21.0314
21.6369
22.1735
22.6362
23.0181
23.3117
23.5086
23.6011
23.5815
23.4498
23.2127
22.8769
22.4495
21.937
21.345
20.6774
19.9367
19.1236
18.2378
17.2781
16.2439
15.1353
13.9621
12.7404
11.4901
10.2361
9.00769
7.83936
6.76982
5.84126
5.0975
4.5812
4.32998
4.37152
4.6996
5.2831
6.08254
7.05458
8.15564
9.34431
10.583
11.8387
13.0832
14.2933
15.4499
16.5381
17.5517
18.4909
19.3565
20.1495
20.87
21.517
22.0874
22.5769
22.9795
23.2885
23.4971
23.5982
23.5859
23.4636
23.239
22.9201
22.5149
22.031
21.4747
20.8507
20.162
19.4093
18.592
17.7081
16.7553
15.731
14.6374
13.4858
12.2908
11.0711
9.84965
8.65434
7.51785
6.47733
5.57353
4.84909
4.34582
4.10084
3.58205
3.87577
4.39683
5.10989
5.97706
6.96099
8.02677
9.14301
10.2823
11.4213
12.5404
13.6232
14.6566
15.6294
16.54
17.3874
18.171
18.8904
19.5448
20.1321
20.6493
21.0919
21.4546
21.7313
21.9153
22
21.9785
21.8511
21.6235
21.3014
20.8903
20.3955
19.8212
19.1711
18.4475
17.6523
16.7866
15.8518
14.8504
13.7862
12.6696
11.5162
10.3447
9.17727
8.04005
6.96313
5.98041
5.12892
4.44743
3.97419
3.7436
3.78178
4.08278
4.6175
5.35009
6.24186
7.25432
8.35121
9.49965
10.6706
11.8392
12.9841
14.0876
15.1348
16.1181
17.0339
17.8801
18.6556
19.3589
19.9883
20.5409
21.013
21.3998
21.6962
21.8966
21.9952
21.9865
21.8735
21.663
21.3617
20.9762
20.5123
19.9751
19.3688
18.6961
17.9587
17.1572
16.2919
15.3634
14.3729
13.3247
12.2304
11.1042
9.96301
8.82766
7.72261
6.67639
5.72143
4.89347
4.23025
3.76929
3.54457
2.98937
3.247
3.70353
4.32823
5.08869
5.95333
6.89295
7.88143
8.89604
9.91728
10.9287
11.9163
12.8686
13.7755
14.6322
15.4342
16.1788
16.8635
17.4861
18.0437
18.5332
18.9503
19.2906
19.5487
19.7193
19.7965
19.774
19.6523
19.4367
19.132
18.7429
18.2736
17.7282
17.1102
16.4225
15.6681
14.8498
13.9714
13.038
12.0572
11.0388
9.99649
8.94615
7.9065
6.8993
5.94958
5.0856
4.33843
3.74091
3.32587
3.12339
3.15696
3.42115
3.89003
4.53243
5.31528
6.20608
7.17446
8.19306
9.23775
10.2876
11.3248
12.3341
13.3025
14.2211
15.0832
15.8841
16.6202
17.2888
17.887
18.4116
18.859
19.2252
19.5056
19.6956
19.7903
19.7843
19.6806
19.4851
19.2036
18.8414
18.4037
17.8948
17.3187
16.6786
15.9769
15.216
14.3982
13.5267
12.6064
11.6433
10.6478
9.63223
8.61109
7.6017
6.62444
5.703
4.8644
4.1386
3.55761
3.15364
2.95644
2.36627
2.57868
2.95473
3.46922
4.09602
4.80996
5.58797
6.40967
7.25739
8.11611
8.97321
9.81817
10.6422
11.4381
12.1981
12.9153
13.5849
14.2032
14.7667
15.2719
15.7151
16.0923
16.3994
16.6317
16.7844
16.8527
16.8308
16.7194
16.5232
16.2465
15.8933
15.4676
14.9732
14.414
13.7934
13.1153
12.384
11.6049
10.7853
9.93548
9.0637
8.18008
7.29671
6.4279
5.59043
4.80377
4.09005
3.47381
2.98131
2.63914
2.47201
2.49975
2.71772
3.10423
3.63376
4.27965
5.01602
5.81891
6.66695
7.54143
8.42627
9.30781
10.1746
11.0168
11.8259
12.5922
13.3091
13.9716
14.5755
15.1171
15.5928
15.9987
16.3311
16.5858
16.7589
16.846
16.8422
16.7499
16.5745
16.3209
15.9939
15.5978
15.1369
14.6152
14.0361
13.4031
12.7197
11.9899
11.2191
10.4147
9.58395
8.73463
7.87592
7.01888
6.1768
5.3654
4.6031
3.91107
3.31303
2.83455
2.50174
2.33907
1.71638
1.87534
2.15651
2.54109
3.00979
3.54429
4.12794
4.74621
5.38666
6.03893
6.69455
7.34691
7.9911
8.62381
9.23534
9.81776
10.3654
10.8739
11.3392
11.7576
12.1254
12.4388
12.6938
12.8865
13.013
13.0691
13.05
12.9564
12.7924
12.5616
12.2675
11.9138
11.504
11.042
10.5317
9.9771
9.38319
8.75588
8.10331
7.43739
6.7634
6.08699
5.41572
4.75912
4.12879
3.53841
3.00381
2.54272
2.17433
1.91827
1.79307
1.81388
1.9771
2.26628
2.66239
3.14577
3.69758
4.30057
4.93952
5.60133
6.27498
6.9515
7.62389
8.287
8.93325
9.55184
10.1353
10.678
11.1753
11.6232
12.0177
12.3553
12.6321
12.8447
12.9895
13.0628
13.0605
12.9844
12.8391
12.6286
12.357
12.0281
11.6458
11.2139
10.7362
10.2163
9.6585
9.06734
8.44907
7.8127
7.16566
6.5117
5.85618
5.20623
4.57081
3.96084
3.38935
2.87146
2.42433
2.06667
1.81778
1.696
1.04429
1.14305
1.31756
1.5561
1.84677
2.17831
2.54065
2.92504
3.32418
3.73214
4.14443
4.5581
4.97214
5.38788
5.79539
6.18737
6.55891
6.90614
7.22566
7.51426
7.7688
7.9862
8.1634
8.29743
8.38535
8.42418
8.41058
8.34508
8.23064
8.06991
7.86562
7.62059
7.3378
7.02038
6.67166
6.29523
5.8952
5.47663
5.04665
4.61672
4.18837
3.76256
3.34248
2.93314
2.54111
2.17448
1.84271
1.55661
1.32796
1.16892
1.09108
1.10402
1.20547
1.38505
1.63087
1.9308
2.27329
2.6479
3.04551
3.45848
3.88065
4.30749
4.73641
5.1672
5.5946
6.00848
6.40235
6.77144
7.11181
7.41992
7.69253
7.92653
8.11899
8.26712
8.36823
8.41963
8.41828
8.36549
8.26444
8.1181
7.9294
7.70135
7.437
7.13946
6.81188
6.45752
6.07988
5.68307
5.27262
4.85718
4.44297
4.0293
3.61774
3.21166
2.81594
2.43688
2.08219
1.76099
1.4837
1.26181
1.1073
1.03161
0.355389
0.389269
0.44904
0.530589
0.629748
0.742602
0.865666
0.995957
1.13102
1.26896
1.4085
1.54926
1.69252
1.84359
1.99508
2.14274
2.28421
2.41766
2.54146
2.65407
2.75397
2.83969
2.9098
2.96296
2.99788
3.01331
3.00792
2.98195
2.9366
2.87305
2.79252
2.69634
2.58594
2.46286
2.32871
2.1852
2.03426
1.87824
1.72076
1.56989
1.42352
1.27923
1.13716
0.998639
0.865759
0.74122
0.628271
0.530648
0.452462
0.397977
0.371269
0.375714
0.41051
0.471997
0.556008
0.658288
0.774816
0.901983
1.03669
1.1764
1.3192
1.46405
1.61131
1.76465
1.92202
2.07684
2.2259
2.36698
2.49822
2.61793
2.72452
2.81649
2.89244
2.95105
2.99112
3.01151
3.01096
2.98998
2.94986
2.89185
2.81726
2.72744
2.62385
2.50797
2.38132
2.24547
2.10209
1.95313
1.80137
1.65265
1.51007
1.36955
1.2303
1.09297
0.959006
0.830453
0.709911
0.600506
0.505853
0.429959
0.37701
0.351034
)
;

boundaryField
{
    top
    {
        type            fixedValue;
        value           uniform 0;
    }
    bottom
    {
        type            fixedValue;
        value           uniform 36.5;
    }
    frontAndBack
    {
        type            empty;
    }
    left_cyc
    {
        type            cyclic;
    }
    right_cyc
    {
        type            cyclic;
    }
}


// ************************************************************************* //
