/*--------------------------------*- C++ -*----------------------------------*\
| =========                 |                                                 |
| \\      /  F ield         | OpenFOAM: The Open Source CFD Toolbox           |
|  \\    /   O peration     | Version:  2.3.0                                 |
|   \\  /    A nd           | Web:      www.OpenFOAM.org                      |
|    \\/     M anipulation  |                                                 |
\*---------------------------------------------------------------------------*/
FoamFile
{
    version     2.0;
    format      ascii;
    class       volScalarField;
    location    "7000";
    object      T;
}
// * * * * * * * * * * * * * * * * * * * * * * * * * * * * * * * * * * * * * //

dimensions      [0 0 0 1 0 0 0];

internalField   nonuniform List<scalar> 
765
(
31.4895
31.6134
31.8307
32.1294
32.5001
32.9333
33.4084
33.844
34.2684
34.677
35.043
35.32
35.4456
35.3655
35.1186
34.7692
34.368
33.9464
33.5127
33.0426
32.5973
32.2108
31.894
31.6562
31.5084
31.465
31.5375
31.7102
31.9696
32.3052
32.7079
33.1639
33.6233
34.0549
34.4737
34.8658
35.1945
35.4051
35.4324
35.2619
34.9569
34.5763
34.1616
33.7329
33.285
32.819
32.4009
32.0475
31.7682
31.573
31.4744
23.1556
23.4501
23.9636
24.6679
25.542
26.5688
27.7259
28.9657
30.1989
31.3736
32.4102
33.1953
33.5616
33.3262
32.623
31.6361
30.4869
29.2672
28.0345
26.8354
25.7715
24.8588
24.1121
23.5505
23.1999
23.0962
23.2692
23.6781
24.2903
25.0816
26.0339
27.1309
28.3484
29.5842
30.7919
31.9103
32.8378
33.4414
33.5223
33.0294
32.1678
31.0864
29.8928
28.6558
27.4256
26.2979
25.3079
24.4748
23.816
23.3542
23.1196
17.249
17.6459
18.3344
19.272
20.4293
21.7897
23.3425
25.0705
26.8939
28.6936
30.2925
31.4941
32.0529
31.693
30.6181
29.0961
27.3265
25.4964
23.7374
22.1389
20.7311
19.5242
18.532
17.7803
17.3082
17.1684
17.4018
17.9518
18.7696
19.8196
21.0792
22.5372
24.1838
25.9679
27.796
29.5207
30.9477
31.869
31.9929
31.241
29.919
28.2506
26.4318
24.6251
22.9362
21.4302
20.1199
19.0157
18.1372
17.5169
17.2006
13.5291
13.9976
14.8036
15.8849
17.1982
18.725
20.4694
22.4476
24.5975
26.7656
28.7256
30.2001
30.8723
30.4409
29.1256
27.2535
25.1109
22.939
20.9083
19.1126
17.5364
16.1723
15.0329
14.1558
13.5992
13.4346
13.7101
14.3574
15.3082
16.5089
17.9284
19.5605
21.4158
23.4944
25.6767
27.774
29.5316
30.6534
30.8015
29.8914
28.265
26.2279
24.0468
21.9294
20.0113
18.3228
16.8494
15.5916
14.5742
13.8459
13.4723
11.3329
11.8755
12.8005
14.015
15.4501
17.0755
18.9028
20.9767
23.2433
25.5481
27.6488
29.2275
29.9314
29.4823
28.0773
26.068
23.7847
21.4895
19.3559
17.4816
15.8134
14.3332
13.0615
12.0593
11.4152
11.2253
11.5441
12.292
13.3728
14.7034
16.2332
17.9536
19.8944
22.0776
24.3872
26.6266
28.5134
29.7061
29.8591
28.8988
27.1543
24.9748
22.6615
20.4337
18.4256
16.6519
15.0739
13.6896
12.5396
11.7006
11.2677
10.0242
10.6592
11.7334
13.1137
14.6928
16.4158
18.2887
20.3673
22.6077
24.8769
26.9414
28.4814
29.153
28.727
27.3606
25.3876
23.1406
20.8764
18.7511
16.8385
15.0847
13.4701
12.035
10.8757
10.1221
9.90128
10.2736
11.1474
12.3912
13.8807
15.5332
17.3253
19.2922
21.4591
23.7349
25.9379
27.7877
28.9418
29.0861
28.1631
26.4567
24.3136
22.0352
19.8292
17.8064
15.9742
14.2856
12.7488
11.4331
10.4552
9.94875
9.1593
9.90484
11.1599
12.745
14.5067
16.3556
18.2764
20.3112
22.4391
24.5612
26.4721
27.8802
28.4821
28.1021
26.8573
25.0355
22.94
20.8006
18.7413
16.799
14.936
13.1499
11.5115
10.161
9.27608
9.0184
9.45438
10.4799
11.923
13.6113
15.421
17.3018
19.2723
21.3557
23.4975
25.5467
27.2497
28.2962
28.4241
27.5921
26.0263
24.0376
21.9006
19.7935
17.7913
15.8905
14.0598
12.3309
10.8115
9.66579
9.07165
8.47556
9.34159
10.7924
12.6015
14.5699
16.571
18.5579
20.5279
22.4996
24.4116
26.1024
27.3336
27.8571
27.5268
26.4404
24.8339
22.9553
20.9886
19.0183
17.0402
15.0428
13.0605
11.1984
9.64089
8.61317
8.31465
8.82073
10.0108
11.6702
13.5791
15.5713
17.565
19.5361
21.506
23.4603
25.2884
26.7852
27.697
27.8081
27.084
25.7115
23.9451
22.0082
20.0371
18.068
16.0758
14.0772
12.1332
10.3919
9.06447
8.37427
7.82931
8.81554
10.4496
12.4642
14.6239
16.7643
18.7991
20.7055
22.5238
24.2254
25.696
26.7543
27.2043
26.9201
25.9875
24.5956
22.9348
21.1385
19.2547
17.2552
15.1379
12.9732
10.9058
9.15611
7.98885
7.64606
8.22596
9.57398
11.433
13.545
15.7079
17.7981
19.7604
21.6195
23.3872
24.9932
26.2856
27.0678
27.1636
26.5418
25.3599
23.8164
22.0794
20.2418
18.3108
16.2455
14.0892
11.9463
10.001
8.50145
7.71283
7.12138
8.19685
9.95615
12.1078
14.399
16.643
18.7203
20.5864
22.2873
23.816
25.0989
26.0078
26.3941
26.1498
25.3504
24.1424
22.6628
20.9998
19.1754
17.153
14.9432
12.6511
10.4464
8.56676
7.29845
6.91979
7.55793
9.01777
11.0106
13.2596
15.5441
17.7129
19.6752
21.4539
23.0725
24.4918
25.6082
26.2781
26.3606
25.8277
24.81
23.4554
21.8807
20.143
18.2349
16.106
13.8351
11.557
9.47543
7.85635
6.99235
6.28397
7.38711
9.17335
11.3501
13.6701
15.9435
18.0325
19.8739
21.4989
22.9062
24.0504
24.8451
25.182
24.9687
24.2718
23.2012
21.8506
20.276
18.4882
16.4615
14.2236
11.9015
9.67087
7.76509
6.4682
6.07521
6.73512
8.22371
10.2422
12.5181
14.8339
17.0279
18.9845
20.7132
22.2309
23.5152
24.499
25.0821
25.1542
24.6901
23.7972
22.5806
21.1176
19.4427
17.5492
15.4009
13.0993
10.7934
8.68667
7.03958
6.14968
5.27317
6.31583
7.99116
10.0322
12.2214
14.3901
16.4064
18.1957
19.7561
21.0762
22.1225
22.8358
23.1369
22.9463
22.3228
21.3493
20.0906
18.5863
16.852
14.8902
12.7487
10.5519
8.45813
6.67191
5.44924
5.07411
5.70208
7.10237
8.99362
11.1331
13.3299
15.4364
17.335
19.0079
20.4495
21.6384
22.5282
23.0488
23.1133
22.6989
21.8945
20.7751
19.3936
17.7774
15.9348
13.8685
11.6801
9.50915
7.53526
5.9886
5.14466
4.05962
4.93401
6.32957
8.03044
9.87026
11.725
13.4988
15.1224
16.5516
17.7551
18.6982
19.3343
19.6021
19.4327
18.8778
18.0032
16.8586
15.4813
13.9022
12.1608
10.3185
8.46594
6.71878
5.23164
4.20856
3.89134
4.42095
5.59031
7.16443
8.95284
10.8128
12.6368
14.339
15.8675
17.1865
18.2646
19.0617
19.5243
19.5818
19.2134
18.4945
17.4822
16.2196
14.7393
13.0734
11.272
9.41147
7.5931
5.94997
4.66041
3.95072
2.62555
3.21857
4.15716
5.29719
6.53648
7.80938
9.07891
10.3054
11.413
12.3567
13.0989
13.5994
13.8104
13.677
13.2406
12.5523
11.6537
10.5824
9.38088
8.11536
6.84144
5.58978
4.41835
3.41954
2.72729
2.51051
2.87157
3.66086
4.71666
5.91631
7.17736
8.44946
9.70839
10.8807
11.9104
12.758
13.3853
13.7492
13.7944
13.5044
12.9386
12.1421
11.1537
10.011
8.76194
7.49204
6.2246
5.0033
3.90216
3.03355
2.55099
0.960428
1.17626
1.51182
1.91178
2.34135
2.78699
3.26163
3.76804
4.24418
4.66
4.99219
5.21816
5.31377
5.2533
5.05609
4.74723
4.34953
3.88597
3.38438
2.89689
2.4471
2.0135
1.60415
1.24872
0.997761
0.918099
1.05043
1.33522
1.7089
2.12626
2.56292
3.01649
3.51806
4.01343
4.46217
4.83895
5.12118
5.28583
5.30632
5.17498
4.9199
4.56449
4.13112
3.64342
3.13348
2.67278
2.23269
1.80906
1.42121
1.10926
0.93298
)
;

boundaryField
{
    top
    {
        type            fixedValue;
        value           uniform 0;
    }
    bottom
    {
        type            fixedValue;
        value           uniform 36.5;
    }
    frontAndBack
    {
        type            empty;
    }
    left_cyc
    {
        type            cyclic;
    }
    right_cyc
    {
        type            cyclic;
    }
}


// ************************************************************************* //
