/*--------------------------------*- C++ -*----------------------------------*\
| =========                 |                                                 |
| \\      /  F ield         | OpenFOAM: The Open Source CFD Toolbox           |
|  \\    /   O peration     | Version:  2.3.0                                 |
|   \\  /    A nd           | Web:      www.OpenFOAM.org                      |
|    \\/     M anipulation  |                                                 |
\*---------------------------------------------------------------------------*/
FoamFile
{
    version     2.0;
    format      ascii;
    class       volScalarField;
    location    "7000";
    object      T;
}
// * * * * * * * * * * * * * * * * * * * * * * * * * * * * * * * * * * * * * //

dimensions      [0 0 0 1 0 0 0];

internalField   nonuniform List<scalar> 
765
(
39.994
40.0656
40.0251
39.9222
39.8314
39.8536
40.0803
40.3666
40.7354
41.2377
41.6328
41.2382
40.7383
40.3713
40.0857
39.8634
39.8428
39.9306
40.0255
40.0528
39.9619
39.7775
39.534
39.2334
38.8653
38.4114
37.8455
37.1358
36.2499
35.162
33.8512
32.2377
30.7172
29.5947
28.8156
28.4902
28.5978
29.0863
29.9763
31.1766
32.7773
34.2705
35.5029
36.5236
37.3516
38.0135
38.5416
38.9663
39.3118
39.5948
39.8238
33.0098
33.2057
33.2858
33.2915
33.3045
33.4461
33.8421
34.5786
35.8386
37.5899
38.9134
37.585
35.8388
34.5856
33.855
33.4585
33.3141
33.2925
33.2723
33.1732
32.9558
32.5742
32.0622
31.4499
30.7429
29.9334
28.9993
27.8963
26.5468
24.835
22.7679
20.776
19.1396
17.7899
16.7464
16.1844
16.3219
17.0522
18.1815
19.5757
21.2645
23.3537
25.3367
26.9315
28.1989
29.2438
30.1344
30.9088
31.5862
32.1723
32.6593
28.0765
28.4044
28.6573
28.8609
29.0635
29.3466
29.84
30.9141
32.7734
35.3412
37.2411
35.3314
32.7708
30.9218
29.8561
29.3661
29.0801
28.8699
28.6547
28.3872
28.0431
27.6168
27.0709
26.4131
25.6631
24.8237
23.8987
22.8815
21.7506
20.4939
19.0394
17.3982
15.6865
14.0686
12.7597
12.0306
12.189
13.1091
14.5004
16.1175
17.779
19.3524
20.7397
21.9711
23.0734
24.0655
24.9675
25.7823
26.5096
27.1454
27.6668
25.9337
26.3129
26.6598
26.976
27.2693
27.5805
28.0873
29.1804
31.1848
34.0681
36.1947
34.0558
31.1843
29.1966
28.1168
27.6165
27.3054
27.0099
26.6902
26.3392
25.9558
25.5401
25.093
24.6129
24.1026
23.57
22.9962
22.3364
21.5211
20.455
19.0319
17.236
15.2121
13.1996
11.5443
10.6296
10.8249
11.9909
13.7511
15.7397
17.6561
19.3068
20.5997
21.5821
22.3512
22.99
23.5571
24.0908
24.6004
25.077
25.5215
25.9071
26.246
26.5815
26.8903
27.1482
27.3733
27.7623
28.6713
30.5592
33.4408
35.5498
33.4265
30.5608
28.695
27.8023
27.4212
27.1989
26.9431
26.6379
26.3076
25.9752
25.6544
25.3503
25.0612
24.7776
24.477
24.1142
23.6157
22.8771
21.7692
20.166
18.0453
15.6002
13.1364
11.102
9.99404
10.234
11.6741
13.8525
16.2875
18.5908
20.5141
21.9335
22.9115
23.5712
24.0294
24.3774
24.6781
24.9683
25.266
25.5787
26.8326
27.1126
27.389
27.6219
27.7761
27.8906
28.0927
28.7956
30.5107
33.2288
35.1638
33.2117
30.5112
28.8211
28.1355
27.9406
27.8289
27.6776
27.4507
27.1833
26.9147
26.6706
26.4614
26.2835
26.1185
25.929
25.652
25.1931
24.4278
23.2125
21.4126
18.9783
16.1201
13.217
10.8147
9.52046
9.80672
11.5191
14.1098
16.9862
19.6671
21.8575
23.4387
24.4937
25.1553
25.5563
25.8079
25.9925
26.164
26.3535
26.5758
27.9868
28.2081
28.4032
28.5312
28.5679
28.5764
28.6939
29.3265
30.8545
33.2097
34.8796
33.1913
30.8501
29.3453
28.7303
28.6209
28.6146
28.5792
28.4555
28.2683
28.0579
27.8581
27.6878
27.549
27.424
27.2698
27.0113
26.5385
25.7138
24.3889
22.4236
19.7416
16.535
13.2465
10.5141
9.04572
9.37777
11.3443
14.3052
17.5695
20.5641
22.965
24.6874
25.8321
26.5355
26.9372
27.1626
27.3087
27.4394
27.5902
27.7741
29.0482
29.2018
29.3102
29.36
29.3739
29.3789
29.5378
30.1125
31.3654
33.2464
34.6327
33.2285
31.3578
30.1237
29.5638
29.4125
29.4093
29.3976
29.35
29.2458
29.099
28.9344
28.7734
28.6255
28.4806
28.2992
28.0029
27.474
26.5722
25.1534
23.0722
20.2295
16.7624
13.1677
10.1583
8.52617
8.9043
11.1002
14.3657
17.9369
21.1613
23.7004
25.5229
26.7506
27.5206
27.9692
28.2267
28.3969
28.5455
28.7028
28.8743
29.8754
29.9936
30.0809
30.141
30.1812
30.2471
30.4494
30.9477
31.9109
33.3157
34.4141
33.3001
31.9024
30.9529
30.4657
30.2701
30.2071
30.1677
30.1088
30.0241
29.909
29.7673
29.6058
29.4269
29.2204
28.9519
28.5517
27.9149
26.9175
25.43
23.2949
20.3522
16.698
12.9045
9.70315
7.9318
8.36194
10.7361
14.2026
17.9795
21.3618
23.9712
25.8439
27.1458
28.0147
28.5702
28.9274
29.1788
29.3821
29.5637
29.7296
30.4351
30.5886
30.7168
30.8247
30.9284
31.0615
31.2873
31.7009
32.4046
33.3929
34.2144
33.3811
32.3976
31.7029
31.2969
31.076
30.9455
30.843
30.7356
30.6071
30.4535
30.2739
30.0655
29.82
29.52
29.1288
28.5829
27.7951
26.6693
25.1009
22.9239
19.9245
16.1922
12.3533
9.08373
7.23056
7.69902
10.165
13.6877
17.506
20.9628
23.6243
25.5472
26.9444
27.9504
28.6567
29.1536
29.5192
29.8074
30.0482
30.2554
30.4635
30.7218
30.9582
31.1777
31.3891
31.6103
31.8748
32.2349
32.748
33.4159
33.9908
33.4088
32.7438
32.2359
31.8801
31.6183
31.3984
31.1872
30.9671
30.7291
30.4683
30.1811
29.8629
29.4922
29.0509
28.5008
27.7842
26.831
25.5745
23.9363
21.7331
18.7448
15.1279
11.4373
8.25374
6.39918
6.8824
9.32411
12.725
16.378
19.7683
22.4483
24.403
25.8862
27.0343
27.908
28.5712
29.0882
29.5094
29.8665
30.1797
29.3636
29.8053
30.2219
30.6195
31.0031
31.3787
31.7573
32.1578
32.6026
33.088
33.4785
33.0848
32.6009
32.1582
31.7589
31.3805
31.0039
30.6181
30.2168
29.7947
29.3458
28.8643
28.3473
27.7992
27.1822
26.4642
25.5993
24.5309
23.206
21.5578
19.4064
16.6113
13.3754
10.0622
7.15157
5.40804
5.87167
8.13969
11.2242
14.5016
17.573
20.1044
22.0201
23.5275
24.757
25.7542
26.57
27.2549
27.8492
28.3846
28.8911
26.022
26.6746
27.298
27.9013
28.4914
29.0708
29.6382
30.1883
30.7108
31.1763
31.475
31.1752
30.7098
30.1869
29.6354
29.0654
28.4817
27.8855
27.2738
26.6395
25.9734
25.269
24.5306
23.7772
23.0251
22.2059
21.3021
20.276
19.0645
17.5815
15.7227
13.4302
10.8094
8.10802
5.69833
4.21906
4.61738
6.51954
9.05625
11.7192
14.2024
16.2984
17.9828
19.3454
20.4785
21.4549
22.3247
23.1169
23.862
24.6082
25.3326
19.1272
19.8346
20.5195
21.1881
21.8444
22.4878
23.1127
23.7063
24.245
24.6826
24.9093
24.6818
24.244
23.7035
23.1063
22.4763
21.8261
21.1614
20.4824
19.7852
19.0638
18.3145
17.5451
16.7733
16.0108
15.2917
14.5686
13.7907
12.9144
11.8708
10.585
9.03329
7.27914
5.46616
3.82613
2.79573
3.07481
4.3837
6.09586
7.87455
9.53486
10.9622
12.135
13.1004
13.9305
14.6843
15.3948
16.1165
16.8723
17.6353
18.3924
7.66854
8.05908
8.44581
8.83044
9.2128
9.58946
9.95269
10.2894
10.5803
10.7975
10.8953
10.7977
10.5811
10.2896
9.95115
9.58531
9.2052
8.81861
8.42898
8.03651
7.63971
7.23884
6.84067
6.4536
6.07754
5.71431
5.37186
5.04945
4.71802
4.3486
3.91327
3.39462
2.79453
2.14391
1.52333
1.11497
1.22619
1.73432
2.36746
2.99164
3.55138
4.02846
4.4302
4.77735
5.09669
5.41499
5.75961
6.12192
6.4956
6.87985
7.27368
)
;

boundaryField
{
    top
    {
        type            fixedValue;
        value           uniform 0;
    }
    bottom
    {
        type            fixedValue;
        value           uniform 43.8;
    }
    frontAndBack
    {
        type            empty;
    }
    left_cyc
    {
        type            cyclic;
    }
    right_cyc
    {
        type            cyclic;
    }
}


// ************************************************************************* //
