/*--------------------------------*- C++ -*----------------------------------*\
| =========                 |                                                 |
| \\      /  F ield         | OpenFOAM: The Open Source CFD Toolbox           |
|  \\    /   O peration     | Version:  2.3.0                                 |
|   \\  /    A nd           | Web:      www.OpenFOAM.org                      |
|    \\/     M anipulation  |                                                 |
\*---------------------------------------------------------------------------*/
FoamFile
{
    version     2.0;
    format      ascii;
    class       volScalarField;
    location    "7000";
    object      T;
}
// * * * * * * * * * * * * * * * * * * * * * * * * * * * * * * * * * * * * * //

dimensions      [0 0 0 1 0 0 0];

internalField   nonuniform List<scalar> 
3060
(
34.1725
34.1835
34.2037
34.2327
34.2699
34.315
34.3675
34.4271
34.4937
34.5671
34.6475
34.735
34.8294
34.9294
35.0321
35.1375
35.2457
35.3558
35.4664
35.575
35.6787
35.774
35.8568
35.9228
35.9676
35.9873
35.9795
35.9452
35.8878
35.8115
35.7207
35.6195
35.5118
35.4007
35.289
35.1785
35.0704
34.9649
34.862
34.7639
34.6731
34.5898
34.514
34.4457
34.385
34.3319
34.2868
34.25
34.2221
34.2035
34.1946
34.196
34.2074
34.2285
34.2587
34.2977
34.3449
34.4
34.4627
34.533
34.6107
34.6959
34.7887
34.8885
34.9922
35.0983
35.207
35.3179
35.4297
35.5402
35.6466
35.7454
35.8328
35.9047
35.9565
35.9842
35.9848
35.9582
35.9074
35.8366
35.7502
35.6524
35.5471
35.4376
35.3269
35.2171
35.1097
35.0051
34.9031
34.8042
34.7115
34.6258
34.5473
34.4757
34.4109
34.3531
34.3025
34.2594
34.2243
34.1975
34.1797
34.1712
29.6531
29.6838
29.7402
29.8211
29.9252
30.0514
30.1989
30.3669
30.5554
30.7644
30.9943
31.2455
31.5184
31.8126
32.1218
32.4379
32.7622
33.0927
33.4242
33.7496
34.0601
34.3455
34.5943
34.7935
34.9295
34.9899
34.9659
34.8616
34.6879
34.4583
34.1859
33.883
33.5605
33.2276
32.8924
32.561
32.2368
31.9198
31.6146
31.3311
31.0702
30.8322
30.6166
30.4231
30.2518
30.1027
29.9764
29.8738
29.7959
29.7439
29.7191
29.7228
29.7548
29.8136
29.8981
30.0069
30.1392
30.2941
30.4712
30.6703
30.8917
31.1357
31.4024
31.6917
32.0021
32.3201
32.6463
32.9791
33.3144
33.6455
33.964
34.26
34.5226
34.739
34.8959
34.9803
34.982
34.9009
34.7472
34.5338
34.2742
33.9812
33.6659
33.338
33.006
32.6766
32.3543
32.0404
31.7335
31.445
31.1779
30.9323
30.7079
30.5043
30.3211
30.1584
30.0164
29.8959
29.7977
29.7231
29.6732
29.6495
25.4443
25.4923
25.5806
25.7072
25.8703
26.0682
26.2999
26.5645
26.8616
27.1914
27.5542
27.9507
28.3812
28.8454
29.3421
29.8564
30.3875
30.9301
31.4751
32.0097
32.5199
32.9896
33.4001
33.7303
33.9572
34.0587
34.0184
33.844
33.5555
33.176
32.7274
32.2295
31.6996
31.1526
30.6021
30.059
29.5302
29.0179
28.5367
28.0898
27.6786
27.3032
26.9632
26.6583
26.3886
26.1542
25.956
25.7951
25.6731
25.5917
25.5528
25.5587
25.6088
25.7009
25.8332
26.0039
26.2116
26.4552
26.7341
27.048
27.3972
27.7819
28.2023
28.6581
29.1473
29.6649
30.1983
30.7444
31.2953
31.8393
32.3625
32.8494
33.2821
33.6402
33.9012
34.0425
34.0453
33.9093
33.6533
33.3
32.8722
32.3902
31.8721
31.3334
30.7877
30.2471
29.7195
29.2088
28.7208
28.2655
27.844
27.4563
27.1022
26.781
26.4923
26.2363
26.0133
25.8243
25.6705
25.5538
25.4758
25.4386
21.6959
21.7589
21.8747
22.0406
22.2544
22.5141
22.818
23.1651
23.5546
23.9867
24.4618
24.9804
25.5431
26.1499
26.7994
27.4834
28.1967
28.9309
29.6718
30.4007
31.097
31.7382
32.2995
32.7527
33.0657
33.2065
33.1508
32.9099
32.5134
31.9938
31.3813
30.7019
29.9793
29.2349
28.489
27.7582
27.0538
26.3815
25.7523
25.1686
24.6311
24.1399
23.6946
23.295
22.9412
22.6337
22.3736
22.1625
22.0024
21.8955
21.8445
21.8523
21.918
22.0389
22.2125
22.4365
22.709
23.0286
23.3943
23.8058
24.2629
24.7661
25.3156
25.9111
26.5513
27.2329
27.9453
28.6816
29.4291
30.1698
30.8835
31.5478
32.1389
32.6296
32.9888
33.1842
33.1879
32.9995
32.6469
32.1626
31.5778
30.92
30.2131
29.4791
28.7381
28.008
27.3014
26.6251
25.9872
25.392
24.8409
24.3337
23.8699
23.4489
23.0704
22.7345
22.442
22.1941
21.9925
21.8395
21.7373
21.6885
18.501
18.5767
18.7157
18.9149
19.1713
19.4825
19.8462
20.2608
20.7255
21.24
21.8048
22.4205
23.0882
23.8084
24.5801
25.3997
26.2616
27.1544
28.0608
28.9581
29.8186
30.6122
31.3073
31.8693
32.2585
32.4344
32.3651
32.0653
31.5735
30.9302
30.1721
29.3321
28.4412
27.5288
26.6202
25.7357
24.8897
24.0907
23.3439
22.6513
22.0135
21.4298
20.8998
20.4233
20.0006
19.6326
19.3209
19.0675
18.8751
18.7467
18.6853
18.6947
18.7737
18.919
19.1275
19.3962
19.7227
20.1051
20.5418
21.0322
21.5761
22.1738
22.8259
23.5326
24.2933
25.105
25.9621
26.8545
27.7664
28.6759
29.5566
30.3783
31.1098
31.7175
32.1634
32.4067
32.4111
32.176
31.7379
31.1377
30.4138
29.5998
28.7268
27.8247
26.9198
26.0336
25.1818
24.3743
23.6158
22.9092
22.2551
21.6527
21.1011
20.5995
20.1478
19.7463
19.3962
19.099
18.8572
18.6734
18.5506
18.492
15.8866
15.9732
16.1322
16.3597
16.6521
17.006
17.4185
17.8873
18.4111
18.9893
19.6223
20.3113
21.0576
21.8627
22.7264
23.6496
24.6257
25.6415
26.678
27.7093
28.7036
29.624
30.4308
31.0825
31.5339
31.7381
31.658
31.3107
30.7408
29.9947
29.1155
28.1437
27.118
26.0731
25.038
24.0353
23.0813
22.1863
21.3511
20.5769
19.8633
19.2091
18.6136
18.0766
17.5987
17.1813
16.8266
16.5377
16.3179
16.171
16.1008
16.1114
16.2019
16.3681
16.6062
16.9124
17.2836
17.7169
18.2103
18.7625
19.3732
20.0428
20.7721
21.5623
22.4136
23.3243
24.292
25.3048
26.3448
27.3877
28.403
29.3545
30.2032
30.9078
31.4244
31.7062
31.711
31.4383
30.9303
30.2341
29.3938
28.4504
27.4432
26.4077
25.3745
24.3676
23.4046
22.4972
21.6478
20.8577
20.1263
19.452
18.8333
18.2692
17.7597
17.3054
16.9079
16.5697
16.2939
16.0839
15.9434
15.8763
13.8225
13.9191
14.0962
14.3491
14.6731
15.0639
15.5173
16.0302
16.6005
17.2272
17.9107
18.6523
19.4542
20.3188
21.2474
22.2447
23.3025
24.4069
25.5379
26.6676
27.7613
28.7773
29.6697
30.3896
30.8866
31.1109
31.0234
30.6419
30.0136
29.1891
28.2179
27.1478
26.023
24.8817
23.7554
22.6682
21.6372
20.6737
19.7761
18.9439
18.1756
17.4693
16.8239
16.2392
15.7163
15.2574
14.8658
14.5456
14.3013
14.1376
14.0594
14.0713
14.1721
14.3571
14.6215
14.9607
15.3701
15.8459
16.385
16.9855
17.6467
18.3691
19.1539
20.0031
20.9183
21.8997
22.9463
24.0454
25.1781
26.3184
27.433
28.4818
29.4195
30.1978
30.7669
31.0762
31.0812
30.7815
30.2216
29.4521
28.5229
27.4824
26.3757
25.2427
24.1165
23.0228
21.9803
21.0013
20.0882
19.2396
18.4534
17.727
17.0584
16.4463
15.8908
15.3931
14.9557
14.5819
14.276
14.0424
13.8859
13.811
12.2391
12.3456
12.5405
12.8183
13.1727
13.5978
14.0883
14.6396
15.2485
15.9133
16.6342
17.4128
18.2521
19.1556
20.1269
21.1716
22.2816
23.4431
24.6354
25.8296
26.9888
28.0683
29.0175
29.7823
30.3083
30.5442
30.4526
30.0503
29.3842
28.5078
27.4758
26.341
25.1512
23.9472
22.7621
21.6205
20.5399
19.5313
18.5927
17.7214
16.9145
16.1694
15.4847
14.8604
14.2983
13.8019
13.3759
13.0257
12.7576
12.5775
12.4914
12.5045
12.6155
12.8189
13.1089
13.4793
13.9241
14.438
15.0164
15.6565
16.357
17.118
17.9414
18.8301
19.7871
20.8148
21.9124
23.067
24.2597
25.4634
26.6432
27.7561
28.7528
29.5798
30.1824
30.508
30.5131
30.1973
29.6041
28.786
27.7978
26.693
25.5207
24.3239
23.1373
21.9877
20.8939
19.868
18.9142
18.0275
17.2042
16.4408
15.7346
15.0842
14.4901
13.9543
13.4804
13.0731
12.7381
12.4814
12.309
12.2265
11.0478
11.1649
11.379
11.6831
12.0694
12.53
13.0576
13.6458
14.29
14.9875
15.738
16.5432
17.4067
18.3336
19.3294
20.3996
21.5367
22.7275
23.9515
25.1794
26.3729
27.4855
28.4637
29.2504
29.7889
30.0288
29.9361
29.5256
28.8418
27.9396
26.8764
25.7079
24.4842
23.2477
22.0322
20.8623
19.7549
18.7204
17.757
16.8602
16.0255
15.2496
14.5311
13.8705
13.2709
12.737
12.2755
11.894
11.6006
11.4031
11.3085
11.3229
11.4447
11.6678
11.9848
12.3878
12.8688
13.4203
14.0362
14.712
15.4454
16.2363
17.0868
18.0006
18.9822
20.0363
21.1611
22.3447
23.5684
24.8051
26.0189
27.1652
28.192
29.043
29.6607
29.9923
29.9973
29.6755
29.0672
28.2252
27.2067
26.0682
24.8616
23.6314
22.4136
21.2351
20.1143
19.0626
18.0856
17.1758
16.3278
15.5371
14.8005
14.1167
13.4868
12.9139
12.4031
11.9611
11.5955
11.3141
11.1247
11.034
10.1577
10.2867
10.5224
10.8561
11.278
11.7777
12.3455
12.9727
13.6529
14.3821
15.1589
15.9851
16.8647
17.8041
18.8106
19.8886
21.0322
22.2291
23.4594
24.6941
25.8945
27.0131
27.9952
28.7829
29.3195
29.557
29.4655
29.0576
28.3744
27.4698
26.4017
25.2268
23.9964
22.7534
21.5314
20.3546
19.2388
18.193
17.2164
16.3026
15.446
14.6428
13.8918
13.1943
12.5549
11.9805
11.4801
11.0638
10.7421
10.5249
10.4209
10.4367
10.5707
10.8158
11.1631
11.6022
12.1228
12.7148
13.3698
14.0815
14.8462
15.663
16.534
17.4635
18.4574
19.5222
20.6551
21.8455
23.0757
24.3191
25.5395
26.6918
27.7231
28.5757
29.1921
29.521
29.5259
29.2068
28.5998
27.756
26.7329
25.588
24.3745
23.1376
21.9135
20.7288
19.6012
18.5409
17.553
16.6299
15.7647
14.9517
14.1873
13.4707
12.8037
12.1913
11.6404
11.16
10.7601
10.451
10.2423
10.1424
9.48646
9.62904
9.8894
10.257
10.7194
11.2635
11.8766
12.5474
13.2671
14.0299
14.8335
15.6788
16.5705
17.5156
18.5227
19.5954
20.7293
21.9135
23.1293
24.3483
25.5323
26.6339
27.599
28.3702
28.8931
29.123
29.0345
28.6379
27.9703
27.0827
26.0318
24.8737
23.6594
22.4313
21.2223
20.0555
18.9453
17.899
16.9165
15.9902
15.1137
14.2831
13.4974
12.7597
12.0761
11.4561
10.9115
10.4557
10.1018
9.86238
9.74766
9.765
9.91287
10.183
10.5646
11.0447
11.6101
12.2476
12.9461
13.6967
14.4942
15.3366
16.2255
17.1656
18.1637
19.2275
20.3536
21.5331
22.7498
23.9779
25.1821
26.3175
27.3315
28.1673
28.7689
29.0882
29.093
28.7835
28.1912
27.3642
26.3581
25.2301
24.0328
22.8113
21.6013
20.4286
19.3098
18.2536
17.2636
16.3332
15.4541
14.6199
13.827
13.075
12.3673
11.7106
11.1143
10.5902
10.1513
9.8106
9.58005
9.46962
8.9662
9.12406
9.41216
9.81788
10.3261
10.9204
11.5848
12.3049
13.0692
13.8697
14.7026
15.5682
16.4709
17.418
18.4191
19.4771
20.5891
21.7463
22.931
24.1164
25.2652
26.3314
27.2626
28.0038
28.5039
28.7225
28.6382
28.2595
27.6188
26.7635
25.7475
24.6247
23.4447
22.2484
21.0675
19.9235
18.829
17.7895
16.8052
15.8678
14.9707
14.11
13.2858
12.5027
11.7693
11.0979
10.5036
10.0031
9.61305
9.34857
9.22185
9.24099
9.40435
9.70267
10.1229
10.6493
11.2652
11.954
12.7014
13.4958
14.3297
15.1998
16.1069
17.0558
18.0538
19.1079
20.2162
21.3715
22.5589
23.7544
24.924
26.024
27.0036
27.8081
28.3847
28.6893
28.6941
28.3994
27.8321
27.0363
26.0647
24.9722
23.8097
22.6213
21.4415
20.2947
19.196
18.1527
17.1663
16.2315
15.3391
14.4822
13.6576
12.866
12.1123
11.4054
10.7579
10.1844
9.70142
9.32501
9.06981
8.94759
8.54401
8.71861
9.03722
9.48501
10.0438
10.6936
11.415
12.1901
13.0043
13.8473
14.7135
15.6021
16.5167
17.4648
18.4559
19.4929
20.5748
21.6944
22.8359
23.9737
25.0729
26.0897
26.9744
27.6758
28.1467
28.3514
28.2721
27.9156
27.3101
26.4984
25.5305
24.4572
23.3253
22.1736
21.0316
19.9193
18.8474
17.8195
16.8347
15.8855
14.9652
14.0707
13.2033
12.3695
11.5807
10.8522
10.203
9.65332
9.22344
8.93148
8.79162
8.81271
8.99305
9.32229
9.78507
10.3625
11.0342
11.78
12.5819
13.4253
14.3002
15.2013
16.1287
17.0864
18.082
19.1214
20.2045
21.326
22.4729
23.6228
24.7436
25.7942
26.7265
27.4892
28.0336
28.32
28.3249
28.0484
27.5136
26.7597
25.8357
24.7929
23.6797
22.5378
21.3999
20.2889
19.2182
18.1932
17.2139
16.2752
15.3679
14.4854
13.6249
12.7887
11.9835
11.2208
10.5163
9.88828
9.35661
8.94089
8.65861
8.52346
8.18072
8.37317
8.72437
9.21715
9.83008
10.5397
11.3225
12.1572
13.0261
13.9162
14.82
15.7349
16.6638
17.6136
18.5926
19.6049
20.6515
21.7268
22.8166
23.8972
24.9363
25.8934
26.7228
27.3777
27.8153
28.0047
27.9306
27.599
27.0341
26.2735
25.3632
24.3496
23.2757
22.1774
21.0814
20.0063
18.9609
17.9468
16.9615
15.9986
15.0521
14.1196
13.2045
12.3154
11.4664
10.6766
9.96839
9.36609
8.89365
8.57236
8.41853
8.44168
8.64011
9.00236
9.51064
10.1427
10.8744
11.6816
12.5426
13.4396
14.3599
15.2961
16.2466
17.2145
18.207
19.2292
20.2828
21.3646
22.4634
23.5584
24.6204
25.6115
26.4875
27.2015
27.7088
27.9751
27.9803
27.7242
27.2265
26.5218
25.6547
24.6719
23.6184
22.5326
21.4445
20.3756
19.3376
18.3341
17.363
16.4196
15.4949
14.583
13.6824
12.7968
11.9354
11.1123
10.3464
9.65976
9.07597
8.61821
8.30701
8.1581
7.84826
8.0592
8.44417
8.98354
9.65261
10.4241
11.271
12.1683
13.0951
14.0359
14.9809
15.9256
16.8714
17.8244
18.7912
19.7777
20.7864
21.8139
22.8473
23.864
24.8357
25.7262
26.4945
27.099
27.5021
27.6761
27.6071
27.3007
26.7786
26.0741
25.2276
24.2806
23.2715
22.2321
21.1853
20.1503
19.1328
18.1328
17.146
16.1672
15.1912
14.2172
13.2508
12.3032
11.3914
10.5376
9.76827
9.11148
8.59499
8.24332
8.07502
8.10032
8.31748
8.71392
9.26928
9.95796
10.7518
11.623
12.5461
13.5
14.4693
15.444
16.4206
17.4008
18.3907
19.3951
20.4175
21.4566
22.5034
23.5377
24.5341
25.4588
26.2725
26.9333
27.4022
27.6483
27.6538
27.4182
26.9596
26.3086
25.5045
24.589
23.6023
22.5789
21.5448
20.5214
19.5183
18.5371
17.5742
16.6241
15.679
14.7342
13.7897
12.8513
11.9304
11.0441
10.2144
9.46691
8.82913
8.32783
7.98667
7.82351
7.52695
7.75658
8.17546
8.76145
9.48654
10.32
11.231
12.1913
13.1771
14.1702
15.1592
16.1366
17.1019
18.0598
19.0158
19.9771
20.9471
21.9236
22.8962
23.8464
24.7487
25.571
26.2774
26.8313
27.1999
27.3586
27.2946
27.0131
26.5336
25.8855
25.1037
24.2248
23.2824
22.3044
21.3116
20.3179
19.3282
18.3412
17.3514
16.3542
15.3462
14.3283
13.3088
12.3018
11.3267
10.409
9.57865
8.86747
8.30689
7.92466
7.74172
7.7692
8.00528
8.43605
9.0385
9.78364
10.6397
11.5749
12.5605
13.5724
14.5928
15.6086
16.6137
17.6085
18.5971
19.5846
20.5755
21.5699
22.5605
23.5316
24.4605
25.3176
26.0681
26.6757
27.1062
27.3325
27.3383
27.1232
26.7036
26.1067
25.3666
24.5201
23.6025
22.6442
21.6689
20.6934
19.7256
18.766
17.81
16.8509
15.8827
14.9019
13.911
12.9184
11.9372
10.9873
10.0936
9.28549
8.5938
8.04892
7.67762
7.50005
7.20308
7.45119
7.90309
8.53395
9.31262
10.205
11.1773
12.1982
13.2411
14.2852
15.3164
16.3261
17.312
18.2764
19.2241
20.1626
21.0964
22.0244
22.9385
23.8235
24.6576
25.413
26.0588
26.5634
26.8984
27.0422
26.9829
26.7255
26.2874
25.6939
24.9753
24.163
23.2856
22.3672
21.4253
20.4704
19.5059
18.5295
17.5351
16.5184
15.4784
14.4184
13.3482
12.2839
11.2482
10.2696
9.38101
8.61777
8.01464
7.60255
7.40501
7.4347
7.68953
8.15372
8.8015
9.60061
10.5159
11.5123
12.5579
13.6257
14.6946
15.7501
16.7843
17.795
18.7842
19.7571
20.7191
21.6713
22.6085
23.5182
24.3813
25.1722
25.8613
26.4172
26.8106
27.0177
27.0238
26.8287
26.4472
25.9029
25.2255
24.4467
23.597
22.7024
21.7834
20.8534
19.9184
18.978
18.0268
17.057
16.0648
15.049
14.0134
12.9679
11.9285
10.9176
9.96297
9.09691
8.3536
7.76666
7.3659
7.17398
6.86626
7.13169
7.61381
8.28506
9.11149
10.0563
11.0831
12.1583
13.2531
14.3446
15.4164
16.4583
17.4657
18.4384
19.3809
20.3008
21.2027
22.0868
22.947
23.7712
24.541
25.2332
25.8217
26.2797
26.5829
26.7125
26.6577
26.4228
26.0235
25.4814
24.8222
24.0722
23.2555
22.392
21.4959
20.5753
19.632
18.663
17.662
16.6251
15.5535
14.4531
13.3357
12.2196
11.1296
10.0967
9.15647
8.34679
7.70531
7.26584
7.05457
7.08639
7.35871
7.85338
8.54188
9.38905
10.3569
11.4078
12.5073
13.6259
14.7405
15.8344
16.8974
17.9252
18.9172
19.879
20.8163
21.7311
22.6197
23.4727
24.2742
25.0032
25.6345
26.1418
26.5003
26.6895
26.6961
26.5199
26.1744
25.6799
25.0618
24.3469
23.5609
22.7257
21.8583
20.9692
20.0627
19.1376
18.1881
17.2062
16.1895
15.1391
14.0609
12.9667
11.8746
10.809
9.80024
8.88274
8.09333
7.46837
7.04052
6.83504
6.50831
6.78842
7.29572
8.00025
8.86575
9.85343
10.9251
12.0455
13.1844
14.3171
15.4256
16.4975
17.5261
18.5088
19.4494
20.3553
21.231
22.0775
22.8903
23.6601
24.3718
25.0066
25.5428
25.9581
26.2321
26.3485
26.2975
26.0832
25.7192
25.2237
24.6182
23.9243
23.1617
22.3464
21.4897
20.5974
19.6704
18.7052
17.6961
16.6392
15.5383
14.4018
13.2433
12.0832
10.9482
9.87085
8.8884
8.04075
7.36767
6.90534
6.68243
6.71607
7.00316
7.52318
8.24514
9.13156
10.1423
11.238
12.3824
13.5444
14.699
15.8275
16.9177
17.9627
18.9596
19.9144
20.8322
21.7156
22.5624
23.3653
24.1118
24.7848
25.3638
25.8271
26.1538
26.3267
26.3339
26.1752
25.8627
25.4139
24.8498
24.193
23.4644
22.6822
21.8598
21.0055
20.122
19.2077
18.2569
17.262
16.2216
15.1392
14.023
12.8866
11.75
10.6391
9.58589
8.62635
7.79917
7.14282
6.69229
6.47526
6.12339
6.41431
6.93975
7.66783
8.56073
9.57847
10.6819
11.8351
13.0069
14.1717
15.3097
16.407
17.4547
18.4476
19.3891
20.2855
21.1411
21.957
22.7302
23.4534
24.1149
24.6995
25.1896
25.5671
25.8151
25.9196
25.8718
25.6756
25.3424
24.8878
24.329
23.6834
22.9669
22.192
21.3673
20.497
19.5813
18.6171
17.5994
16.5246
15.3992
14.2337
13.0437
11.851
10.6836
9.57481
8.56285
7.68863
6.99319
6.5144
6.28289
6.3179
6.61582
7.154
7.89954
8.8134
9.85425
10.9817
12.1587
13.353
14.5386
15.6951
16.8083
17.8691
18.8722
19.8233
20.7271
21.5857
22.3981
23.1589
23.8584
24.483
25.0165
25.4412
25.7401
25.8987
25.9066
25.7636
25.4805
25.072
24.5555
23.9493
23.2704
22.5331
21.7482
20.9218
20.0557
19.148
18.1937
17.1861
16.1249
15.0159
13.8693
12.7006
11.531
10.3875
9.30286
8.31386
7.46016
6.78151
6.31455
6.08896
5.70739
6.00414
6.53875
7.27812
8.18376
9.21542
10.334
11.5038
12.6934
13.8769
15.0337
16.1484
17.21
18.2112
19.1545
20.0449
20.8857
21.6778
22.4193
23.1043
23.724
24.2663
24.7174
25.0626
25.2881
25.3823
25.3371
25.156
24.849
24.4286
23.9087
23.3032
22.6242
21.8816
21.0818
20.2279
19.32
18.3556
17.3309
16.2434
15.1017
13.9182
12.7102
11.5003
10.3168
9.19329
8.16785
7.28137
6.57525
6.08812
5.85196
5.88775
6.19141
6.73864
7.49532
8.42175
9.47639
10.6189
11.8122
13.024
14.2277
15.4018
16.5305
17.6025
18.6112
19.5607
20.4545
21.2946
22.08
22.8069
23.4678
24.0524
24.5478
24.94
25.2154
25.3621
25.3707
25.2414
24.9835
24.6094
24.1332
23.5694
22.9316
22.2311
21.476
20.6711
19.8175
18.9136
17.9555
16.938
15.8618
14.735
13.5696
12.3823
11.1952
10.0356
8.93605
7.93344
7.06734
6.37786
5.90246
5.67217
5.25747
5.55402
6.08706
6.8231
7.72393
8.75007
9.8635
11.0295
12.2175
13.402
14.5621
15.6815
16.7478
17.7518
18.6948
19.5798
20.4089
21.1826
21.8989
22.5535
23.1395
23.6474
24.0664
24.3849
24.5917
24.6772
24.6338
24.4649
24.1791
23.7866
23.2981
22.7247
22.0756
21.3583
20.578
19.7371
18.8359
17.8732
16.8471
15.7561
14.6107
13.425
12.217
11.0095
9.83053
8.71274
7.69312
6.81153
6.10864
5.62293
5.3869
5.42273
5.72602
6.27137
7.02434
7.94555
8.99428
10.1312
11.3205
12.5305
13.7347
14.9114
16.0437
17.1187
18.1285
19.0752
19.9609
20.7863
21.5506
22.2508
22.8811
23.4335
23.8981
24.2639
24.5203
24.6572
24.6668
24.549
24.3121
23.9663
23.523
22.9938
22.3892
21.7178
20.9862
20.198
19.3543
18.4542
17.4954
16.4745
15.3935
14.2622
13.0941
11.9065
10.7216
9.56627
8.47215
7.47497
6.61336
5.92674
5.45247
5.22218
4.77179
5.06121
5.5804
6.2964
7.17226
8.17031
9.25458
10.3923
11.5547
12.7174
13.86
14.966
16.0224
17.0186
17.9543
18.8303
19.647
20.4038
21.0989
21.7284
22.2868
22.7668
23.1597
23.4564
23.648
23.7261
23.684
23.525
23.2562
22.8859
22.4229
21.8753
21.2507
20.5548
19.792
18.9645
18.0735
17.1194
16.1024
15.0226
13.8919
12.7251
11.5402
10.3596
9.20972
8.12165
7.13021
6.27319
5.58949
5.11636
4.88595
4.921
5.21687
5.74784
6.48009
7.37559
8.39553
9.50273
10.6633
11.8473
13.0293
14.1882
15.3068
16.371
17.3723
18.3104
19.1851
19.996
20.7419
21.4198
22.0251
22.5514
22.9912
23.3359
23.577
23.7063
23.7168
23.6085
23.3887
23.0661
22.6496
22.1485
21.5709
20.9238
20.2123
19.4396
18.6073
17.7157
16.7639
15.7514
14.6811
13.5642
12.4147
11.2501
10.0916
8.96497
7.89992
6.9302
6.09243
5.42433
4.96217
4.73725
4.24935
4.52403
5.01589
5.69347
6.5221
7.46691
8.49488
9.57611
10.6844
11.7972
12.8957
13.9642
14.9895
15.9607
16.8756
17.7326
18.5301
19.2665
19.9393
20.5448
21.0782
21.5336
21.9041
22.1824
22.361
22.4328
22.3918
22.241
21.9866
21.6356
21.1947
20.6706
20.0694
19.3958
18.6539
17.8464
16.9756
16.0435
15.0526
14.0054
12.914
11.793
10.6596
9.53463
8.44241
7.41121
6.4729
5.6622
5.0152
4.56694
4.34822
4.38154
4.66223
5.1651
5.85791
6.70505
7.6706
8.72046
9.82363
10.9529
12.0847
13.1994
14.2804
15.3137
16.2903
17.207
18.0618
18.8527
19.5772
20.2324
20.8142
21.3173
21.7355
22.0621
22.2902
22.4131
22.4245
22.3242
22.119
21.816
21.4227
20.9464
20.3936
19.7701
19.0805
18.3279
17.5146
16.6422
15.7121
14.726
13.6884
12.6109
11.5071
10.3936
9.29009
8.22011
7.21084
6.29308
5.50049
4.86811
4.4301
4.2165
3.68995
3.94184
4.39216
5.01193
5.76973
6.63436
7.57656
8.57003
9.59182
10.6222
11.6446
12.6448
13.6108
14.5324
15.4053
16.2253
16.9892
17.6939
18.3363
18.9125
19.418
19.8476
20.1956
20.4558
20.622
20.6881
20.6484
20.5058
20.266
19.9346
19.5173
19.0198
18.4472
17.8039
17.094
16.321
15.4882
14.5995
13.6596
12.6735
11.6524
10.6098
9.56093
8.52423
7.52107
6.57622
5.71772
4.9764
4.3846
3.97416
3.77354
3.80415
4.06147
4.52176
5.15537
5.93006
6.81374
7.7762
8.79021
9.83187
10.8806
11.9189
12.9318
13.9067
14.8344
15.7094
16.5272
17.2843
17.9773
18.6027
19.1563
19.6335
20.029
20.3371
20.5523
20.6687
20.6806
20.5879
20.3966
20.113
19.7432
19.2932
18.7688
18.175
17.516
16.7954
16.0165
15.1823
14.296
13.3621
12.3862
11.3791
10.3532
9.32337
8.30697
7.32455
6.39994
5.56028
4.83545
4.25692
3.85575
3.65977
3.09411
3.31507
3.70954
4.25194
4.91501
5.67193
6.49789
7.37078
8.27143
9.18353
10.0933
10.9891
11.8612
12.7009
13.502
14.2582
14.965
15.618
16.2134
16.747
17.2144
17.6107
17.9309
18.1697
18.3217
18.3816
18.3441
18.212
17.9903
17.6841
17.2982
16.8375
16.3067
15.7103
15.0525
14.3374
13.5696
12.7542
11.8979
11.0081
10.094
9.16655
8.23858
7.32517
6.44409
5.61602
4.86459
4.216
3.69806
3.3385
3.16248
3.18937
3.41503
3.81814
4.37258
5.0504
5.82407
6.66798
7.55925
8.47797
9.40707
10.3321
11.2407
12.1225
12.9694
13.7732
14.528
15.2287
15.871
16.4509
16.9639
17.4056
17.7713
18.0561
18.255
18.363
18.375
18.2906
18.1155
17.855
17.5144
17.0991
16.6141
16.0639
15.4531
14.7856
14.0655
13.297
12.485
11.6362
10.7571
9.85664
8.94507
8.03454
7.13946
6.27685
5.46666
4.73174
4.09753
3.59112
3.23959
3.06758
2.46299
2.64524
2.97014
3.41647
3.96186
4.58455
5.26463
5.98457
6.72935
7.4864
8.2453
8.99752
9.73614
10.4556
11.1477
11.8053
12.4226
12.9949
13.5177
13.9869
14.3979
14.7464
15.0277
15.2373
15.3704
15.4225
15.3888
15.272
15.0764
14.8065
14.4665
14.0607
13.5937
13.0697
12.4932
11.8686
11.2011
10.4966
9.76285
9.00921
8.24188
7.46853
6.69859
5.94351
5.21701
4.53533
3.91724
3.38379
2.95758
2.66141
2.51621
2.53842
2.72449
3.05643
3.5126
4.07007
4.70655
5.40152
6.13687
6.89702
7.66885
8.44148
9.20595
9.95498
10.6822
11.3779
12.0349
12.6475
13.2109
13.7205
14.1721
14.5611
14.8834
15.1344
15.31
15.4056
15.4168
15.3432
15.1897
14.961
14.6618
14.2966
13.87
13.3864
12.8502
12.2657
11.6374
10.9702
10.2702
9.54518
8.80236
8.04762
7.28827
6.5333
5.79367
5.08257
4.41566
3.81113
3.28944
2.87264
2.58301
2.44108
1.79835
1.93485
2.17788
2.51138
2.91856
3.38327
3.89085
4.42858
4.98574
5.55355
6.12507
6.69506
7.2599
7.81761
8.3593
8.8775
9.36659
9.82195
10.2394
10.6148
10.9444
11.224
11.45
11.6182
11.7251
11.7667
11.7392
11.6448
11.4872
11.27
10.9966
10.671
10.297
9.87854
9.41967
8.92475
8.39864
7.84717
7.27804
6.70166
6.12031
5.53804
4.96071
4.39598
3.85345
3.34474
2.8835
2.48523
2.16677
1.94522
1.83646
1.85311
1.99243
2.24066
2.58143
2.99757
3.47252
3.99122
4.54055
5.10942
5.68877
6.27141
6.85198
7.42689
7.99221
8.53774
9.0563
9.54233
9.99115
10.3985
10.7603
11.0727
11.3318
11.534
11.6755
11.7528
11.7622
11.7033
11.5801
11.3964
11.1561
10.8631
10.5212
10.1344
9.7067
9.24213
8.74498
8.2201
7.67354
7.11362
6.547
5.97607
5.40485
4.83902
4.28597
3.75497
3.25725
2.80606
2.4165
2.10498
1.88826
1.78191
1.10224
1.18718
1.33821
1.54517
1.7975
2.08511
2.39893
2.73117
3.07539
3.42648
3.78068
4.13565
4.49072
4.84744
5.19758
5.53491
5.85508
6.15456
6.43016
6.67886
6.8977
7.0838
7.23433
7.34655
7.41782
7.44549
7.42701
7.36385
7.25853
7.11356
6.93152
6.71515
6.46727
6.19085
5.88896
5.56489
5.2223
4.86568
4.50123
4.1388
3.77675
3.41594
3.05902
2.71017
2.375
2.06049
1.77502
1.52821
1.33058
1.1929
1.12524
1.1356
1.22226
1.37647
1.58786
1.84566
2.13953
2.46015
2.7995
3.15098
3.50935
3.87085
4.23329
4.59648
4.95933
5.31273
5.65089
5.96954
6.26514
6.53445
6.77444
6.98217
7.15483
7.28975
7.38434
7.43614
7.44255
7.40327
7.3211
7.19864
7.03859
6.84368
6.61677
6.36077
6.07865
5.77347
5.44847
5.1074
4.75505
4.39865
4.04339
3.68832
3.33454
2.98476
2.64309
2.31496
2.00716
1.72782
1.48632
1.29293
1.1582
1.09201
0.376738
0.405863
0.457565
0.528261
0.614227
0.711919
0.818171
0.930287
1.04608
1.16388
1.28257
1.4017
1.522
1.64671
1.77079
1.89126
2.00628
2.11444
2.21444
2.30504
2.38504
2.45326
2.50856
2.54985
2.57609
2.58627
2.57946
2.55619
2.51743
2.46416
2.3974
2.31827
2.22793
2.12759
2.01852
1.90203
1.77963
1.65314
1.52539
1.4025
1.28099
1.1601
1.04035
0.922998
0.809885
0.703393
0.60642
0.522329
0.454818
0.407688
0.384489
0.388045
0.417745
0.470507
0.542675
0.630446
0.730191
0.838662
0.953093
1.07125
1.19144
1.3126
1.43456
1.55874
1.6863
1.81188
1.93289
2.04758
2.15452
2.25239
2.33993
2.41596
2.47932
2.52892
2.56374
2.58282
2.58519
2.57073
2.54048
2.49544
2.43667
2.36527
2.28239
2.18922
2.08698
1.9769
1.86032
1.73875
1.61428
1.49079
1.37076
1.25165
1.13308
1.01564
0.900604
0.789776
0.685472
0.590513
0.508176
0.442075
0.39593
0.373225
)
;

boundaryField
{
    top
    {
        type            fixedValue;
        value           uniform 0;
    }
    bottom
    {
        type            fixedValue;
        value           uniform 36.5;
    }
    frontAndBack
    {
        type            empty;
    }
    left_cyc
    {
        type            cyclic;
    }
    right_cyc
    {
        type            cyclic;
    }
}


// ************************************************************************* //
