/*--------------------------------*- C++ -*----------------------------------*\
| =========                 |                                                 |
| \\      /  F ield         | OpenFOAM: The Open Source CFD Toolbox           |
|  \\    /   O peration     | Version:  2.3.0                                 |
|   \\  /    A nd           | Web:      www.OpenFOAM.org                      |
|    \\/     M anipulation  |                                                 |
\*---------------------------------------------------------------------------*/
FoamFile
{
    version     2.0;
    format      ascii;
    class       volVectorField;
    location    "7000";
    object      U;
}
// * * * * * * * * * * * * * * * * * * * * * * * * * * * * * * * * * * * * * //

dimensions      [0 1 -1 0 0 0 0];

internalField   nonuniform List<vector> 
3060
(
(6.0184e-06 0 -4.11485e-06)
(1.5481e-05 0 -3.97933e-06)
(2.47133e-05 0 -3.72839e-06)
(3.35836e-05 0 -3.36819e-06)
(4.19714e-05 0 -2.90857e-06)
(4.97698e-05 0 -2.36618e-06)
(5.68877e-05 0 -1.7674e-06)
(6.32508e-05 0 -1.14897e-06)
(6.87997e-05 0 -5.53365e-07)
(7.34824e-05 0 -1.91633e-08)
(7.72397e-05 0 4.28639e-07)
(7.99872e-05 0 7.82457e-07)
(8.15982e-05 0 1.04858e-06)
(8.18957e-05 0 1.23958e-06)
(8.06674e-05 0 1.37654e-06)
(7.77116e-05 0 1.51088e-06)
(7.29164e-05 0 1.71119e-06)
(6.63588e-05 0 1.96981e-06)
(5.83172e-05 0 2.17194e-06)
(4.93034e-05 0 2.20763e-06)
(3.99426e-05 0 2.07725e-06)
(3.08158e-05 0 1.82846e-06)
(2.23574e-05 0 1.5339e-06)
(1.47359e-05 0 1.26754e-06)
(7.8526e-06 0 1.08138e-06)
(1.42718e-06 0 1.00003e-06)
(-4.90607e-06 0 1.03069e-06)
(-1.15265e-05 0 1.17073e-06)
(-1.87628e-05 0 1.40494e-06)
(-2.68083e-05 0 1.69448e-06)
(-3.56206e-05 0 1.97248e-06)
(-4.48708e-05 0 2.16185e-06)
(-5.40257e-05 0 2.20335e-06)
(-6.24552e-05 0 2.06557e-06)
(-6.95676e-05 0 1.81481e-06)
(-7.49712e-05 0 1.57922e-06)
(-7.84924e-05 0 1.41387e-06)
(-8.01649e-05 0 1.26886e-06)
(-8.01742e-05 0 1.07796e-06)
(-7.87381e-05 0 8.11702e-07)
(-7.60576e-05 0 4.57163e-07)
(-7.22838e-05 0 7.57827e-09)
(-6.75236e-05 0 -5.30311e-07)
(-6.18543e-05 0 -1.132e-06)
(-5.53424e-05 0 -1.75811e-06)
(-4.80594e-05 0 -2.36403e-06)
(-4.00897e-05 0 -2.91038e-06)
(-3.15339e-05 0 -3.36856e-06)
(-2.25076e-05 0 -3.72049e-06)
(-1.31397e-05 0 -3.95551e-06)
(-3.56936e-06 0 -4.06687e-06)
(6.05644e-06 0 -4.05016e-06)
(1.55882e-05 0 -3.90632e-06)
(2.48808e-05 0 -3.64034e-06)
(3.37973e-05 0 -3.25968e-06)
(4.22121e-05 0 -2.77659e-06)
(5.00132e-05 0 -2.21162e-06)
(5.71044e-05 0 -1.59635e-06)
(6.34048e-05 0 -9.72272e-07)
(6.88455e-05 0 -3.83758e-07)
(7.33588e-05 0 1.32932e-07)
(7.68616e-05 0 5.57969e-07)
(7.92362e-05 0 8.88709e-07)
(8.03193e-05 0 1.1344e-06)
(7.98987e-05 0 1.30936e-06)
(7.77625e-05 0 1.4513e-06)
(7.37481e-05 0 1.63323e-06)
(6.7877e-05 0 1.88313e-06)
(6.03753e-05 0 2.11694e-06)
(5.16964e-05 0 2.20937e-06)
(4.24576e-05 0 2.12542e-06)
(3.32748e-05 0 1.90582e-06)
(2.46415e-05 0 1.61738e-06)
(1.68129e-05 0 1.33679e-06)
(9.76215e-06 0 1.12442e-06)
(3.25099e-06 0 1.01202e-06)
(-3.06961e-06 0 1.01061e-06)
(-9.58122e-06 0 1.12033e-06)
(-1.6635e-05 0 1.33062e-06)
(-2.44743e-05 0 1.61047e-06)
(-3.31342e-05 0 1.90054e-06)
(-4.23711e-05 0 2.12483e-06)
(-5.17024e-05 0 2.2163e-06)
(-6.05231e-05 0 2.13261e-06)
(-6.82199e-05 0 1.90239e-06)
(-7.43382e-05 0 1.65109e-06)
(-7.86554e-05 0 1.47187e-06)
(-8.11448e-05 0 1.3446e-06)
(-8.1957e-05 0 1.19659e-06)
(-8.12979e-05 0 9.86888e-07)
(-7.93765e-05 0 6.99117e-07)
(-7.63559e-05 0 3.21038e-07)
(-7.23509e-05 0 -1.5065e-07)
(-6.74376e-05 0 -7.03917e-07)
(-6.16715e-05 0 -1.30954e-06)
(-5.51056e-05 0 -1.92686e-06)
(-4.78026e-05 0 -2.51412e-06)
(-3.98412e-05 0 -3.03708e-06)
(-3.13168e-05 0 -3.47209e-06)
(-2.234e-05 0 -3.8046e-06)
(-1.30347e-05 0 -4.02599e-06)
(-3.53473e-06 0 -4.13068e-06)
(9.06105e-06 0 -1.65559e-05)
(2.3378e-05 0 -1.63475e-05)
(3.75311e-05 0 -1.59645e-05)
(5.14279e-05 0 -1.54229e-05)
(6.49854e-05 0 -1.47416e-05)
(7.81281e-05 0 -1.39373e-05)
(9.07784e-05 0 -1.30182e-05)
(0.000102842 0 -1.19792e-05)
(0.000114193 0 -1.07981e-05)
(0.000124656 0 -9.43463e-06)
(0.000134005 0 -7.82956e-06)
(0.000141964 0 -5.90287e-06)
(0.0001482 0 -3.55555e-06)
(0.000152322 0 -6.8565e-07)
(0.000153865 0 2.74044e-06)
(0.000152301 0 6.5277e-06)
(0.000147136 0 1.01966e-05)
(0.000138147 0 1.32763e-05)
(0.000125408 0 1.54946e-05)
(0.000109516 0 1.67424e-05)
(9.15706e-05 0 1.70135e-05)
(7.27853e-05 0 1.63578e-05)
(5.42273e-05 0 1.51145e-05)
(3.65287e-05 0 1.37674e-05)
(1.97936e-05 0 1.27294e-05)
(3.71839e-06 0 1.22481e-05)
(-1.22108e-05 0 1.24166e-05)
(-2.85433e-05 0 1.31997e-05)
(-4.57005e-05 0 1.44243e-05)
(-6.37858e-05 0 1.57478e-05)
(-8.24054e-05 0 1.66934e-05)
(-0.00010065 0 1.68232e-05)
(-0.000117332 0 1.59637e-05)
(-0.000131241 0 1.41078e-05)
(-0.00014152 0 1.1304e-05)
(-0.0001479 0 7.74513e-06)
(-0.000150489 0 3.83576e-06)
(-0.000149696 0 1.27739e-07)
(-0.000146073 0 -3.04523e-06)
(-0.000140127 0 -5.64981e-06)
(-0.000132287 0 -7.77689e-06)
(-0.000122923 0 -9.53006e-06)
(-0.000112346 0 -1.09973e-05)
(-0.000100812 0 -1.22461e-05)
(-8.85198e-05 0 -1.33238e-05)
(-7.56189e-05 0 -1.42587e-05)
(-6.22193e-05 0 -1.50613e-05)
(-4.84101e-05 0 -1.57269e-05)
(-3.42755e-05 0 -1.62416e-05)
(-1.99044e-05 0 -1.65885e-05)
(-5.39368e-06 0 -1.67534e-05)
(9.15508e-06 0 -1.67288e-05)
(2.36394e-05 0 -1.65158e-05)
(3.79584e-05 0 -1.6124e-05)
(5.20171e-05 0 -1.55687e-05)
(6.57284e-05 0 -1.48666e-05)
(7.90082e-05 0 -1.40299e-05)
(9.17635e-05 0 -1.30597e-05)
(0.000103876 0 -1.19412e-05)
(0.000115184 0 -1.06411e-05)
(0.000125474 0 -9.10706e-06)
(0.000134476 0 -7.26621e-06)
(0.000141863 0 -5.02561e-06)
(0.000147252 0 -2.28088e-06)
(0.000150195 0 1.04325e-06)
(0.000150164 0 4.8505e-06)
(0.000146619 0 8.72217e-06)
(0.000139228 0 1.2115e-05)
(0.000127959 0 1.46846e-05)
(0.000113227 0 1.62824e-05)
(9.60186e-05 0 1.68854e-05)
(7.75675e-05 0 1.65119e-05)
(5.90184e-05 0 1.54203e-05)
(4.11583e-05 0 1.40803e-05)
(2.42413e-05 0 1.29445e-05)
(8.06189e-06 0 1.23106e-05)
(-7.85174e-06 0 1.23128e-05)
(-2.40549e-05 0 1.2953e-05)
(-4.10244e-05 0 1.41019e-05)
(-5.89771e-05 0 1.54672e-05)
(-7.76761e-05 0 1.66022e-05)
(-9.63555e-05 0 1.70386e-05)
(-0.000113888 0 1.65138e-05)
(-0.000129052 0 1.50109e-05)
(-0.00014085 0 1.25525e-05)
(-0.00014884 0 9.28578e-06)
(-0.000153035 0 5.53236e-06)
(-0.000153738 0 1.80111e-06)
(-0.000151475 0 -1.48663e-06)
(-0.000146763 0 -4.21213e-06)
(-0.000140044 0 -6.44015e-06)
(-0.000131694 0 -8.27458e-06)
(-0.00012203 0 -9.8101e-06)
(-0.000111317 0 -1.11213e-05)
(-9.97656e-05 0 -1.22623e-05)
(-8.75382e-05 0 -1.32687e-05)
(-7.47515e-05 0 -1.4158e-05)
(-6.14936e-05 0 -1.49316e-05)
(-4.78402e-05 0 -1.55783e-05)
(-3.38683e-05 0 -1.60803e-05)
(-1.96631e-05 0 -1.64191e-05)
(-5.31985e-06 0 -1.65802e-05)
(1.01641e-05 0 -3.14855e-05)
(2.62139e-05 0 -3.11543e-05)
(4.20529e-05 0 -3.05417e-05)
(5.75534e-05 0 -2.96663e-05)
(7.25886e-05 0 -2.85489e-05)
(8.70302e-05 0 -2.72046e-05)
(0.000100745 0 -2.56343e-05)
(0.000113593 0 -2.3819e-05)
(0.000125425 0 -2.17177e-05)
(0.000136086 0 -1.927e-05)
(0.000145419 0 -1.63995e-05)
(0.000153272 0 -1.30179e-05)
(0.000159514 0 -9.03078e-06)
(0.000164042 0 -4.34787e-06)
(0.000166778 0 1.10995e-06)
(0.000167591 0 7.42429e-06)
(0.000166052 0 1.46504e-05)
(0.000161261 0 2.25133e-05)
(0.000152224 0 2.99366e-05)
(0.000138231 0 3.53139e-05)
(0.000119611 0 3.80195e-05)
(9.77503e-05 0 3.83727e-05)
(7.44276e-05 0 3.70357e-05)
(5.09653e-05 0 3.4997e-05)
(2.79549e-05 0 3.32292e-05)
(5.38749e-06 0 3.23617e-05)
(-1.70587e-05 0 3.26432e-05)
(-3.97582e-05 0 3.39795e-05)
(-6.28977e-05 0 3.59192e-05)
(-8.6192e-05 0 3.76234e-05)
(-0.000108645 0 3.80387e-05)
(-0.000128602 0 3.63433e-05)
(-0.000144402 0 3.20352e-05)
(-0.000155179 0 2.52062e-05)
(-0.000161287 0 1.72302e-05)
(-0.000163671 0 9.54556e-06)
(-0.000163347 0 2.72974e-06)
(-0.000160949 0 -3.186e-06)
(-0.000156681 0 -8.28069e-06)
(-0.000150625 0 -1.26269e-05)
(-0.000142877 0 -1.63064e-05)
(-0.000133569 0 -1.94118e-05)
(-0.000122859 0 -2.20349e-05)
(-0.000110913 0 -2.42582e-05)
(-9.79011e-05 0 -2.61495e-05)
(-8.39859e-05 0 -2.77576e-05)
(-6.93223e-05 0 -2.91088e-05)
(-5.40568e-05 0 -3.0208e-05)
(-3.83296e-05 0 -3.1045e-05)
(-2.22783e-05 0 -3.16029e-05)
(-6.03934e-06 0 -3.18662e-05)
(1.02504e-05 0 -3.1827e-05)
(2.64539e-05 0 -3.14864e-05)
(4.24345e-05 0 -3.08547e-05)
(5.80555e-05 0 -2.99484e-05)
(7.31791e-05 0 -2.87835e-05)
(8.76635e-05 0 -2.73671e-05)
(0.00010136 0 -2.56891e-05)
(0.000114112 0 -2.37174e-05)
(0.000125755 0 -2.13978e-05)
(0.000136118 0 -1.86581e-05)
(0.000145036 0 -1.54129e-05)
(0.000152357 0 -1.15691e-05)
(0.000157958 0 -7.03598e-06)
(0.00016175 0 -1.73528e-06)
(0.000163641 0 4.40616e-06)
(0.000163347 0 1.14623e-05)
(0.000160099 0 1.93132e-05)
(0.000152863 0 2.71594e-05)
(0.000140771 0 3.34181e-05)
(0.000123767 0 3.70216e-05)
(0.000102985 0 3.81077e-05)
(8.01775e-05 0 3.72624e-05)
(5.68585e-05 0 3.53986e-05)
(3.383e-05 0 3.355e-05)
(1.12262e-05 0 3.246e-05)
(-1.12142e-05 0 3.2482e-05)
(-3.3874e-05 0 3.36212e-05)
(-5.70207e-05 0 3.55357e-05)
(-8.05339e-05 0 3.74946e-05)
(-0.000103632 0 3.84744e-05)
(-0.000124821 0 3.75639e-05)
(-0.000142341 0 3.41775e-05)
(-0.000155023 0 2.81446e-05)
(-0.000162869 0 2.04539e-05)
(-0.000166715 0 1.26901e-05)
(-0.000167573 0 5.69634e-06)
(-0.000166238 0 -3.86508e-07)
(-0.00016303 0 -5.6359e-06)
(-0.000158049 0 -1.01305e-05)
(-0.000151377 0 -1.39516e-05)
(-0.000143125 0 -1.71916e-05)
(-0.000133432 0 -1.99444e-05)
(-0.000122452 0 -2.22954e-05)
(-0.00011034 0 -2.43172e-05)
(-9.72529e-05 0 -2.60657e-05)
(-8.33356e-05 0 -2.75763e-05)
(-6.87269e-05 0 -2.88623e-05)
(-5.35583e-05 0 -2.99185e-05)
(-3.79574e-05 0 -3.07275e-05)
(-2.20511e-05 0 -3.12684e-05)
(-5.96751e-06 0 -3.1524e-05)
(1.06497e-05 0 -4.81547e-05)
(2.74478e-05 0 -4.76455e-05)
(4.39766e-05 0 -4.66986e-05)
(6.00724e-05 0 -4.53338e-05)
(7.55733e-05 0 -4.35721e-05)
(9.03188e-05 0 -4.14285e-05)
(0.000104151 0 -3.89052e-05)
(0.000116916 0 -3.59875e-05)
(0.000128467 0 -3.26435e-05)
(0.000138668 0 -2.8827e-05)
(0.000147393 0 -2.44808e-05)
(0.000154537 0 -1.95402e-05)
(0.000160008 0 -1.39333e-05)
(0.000163735 0 -7.57694e-06)
(0.000165651 0 -3.5692e-07)
(0.000165681 0 7.89937e-06)
(0.00016374 0 1.73484e-05)
(0.000159729 0 2.78602e-05)
(0.000153381 0 3.88859e-05)
(0.000143749 0 4.9478e-05)
(0.00012922 0 5.7773e-05)
(0.000109267 0 6.17715e-05)
(8.53045e-05 0 6.20353e-05)
(5.94045e-05 0 6.03479e-05)
(3.29648e-05 0 5.84099e-05)
(6.50216e-06 0 5.73631e-05)
(-1.99133e-05 0 5.76643e-05)
(-4.62823e-05 0 5.91425e-05)
(-7.2352e-05 0 6.09751e-05)
(-9.71801e-05 0 6.16701e-05)
(-0.000118892 0 5.93918e-05)
(-0.000135608 0 5.27577e-05)
(-0.000146894 0 4.27346e-05)
(-0.000154183 0 3.15946e-05)
(-0.000158798 0 2.06232e-05)
(-0.00016123 0 1.05322e-05)
(-0.000161609 0 1.63681e-06)
(-0.000160025 0 -6.1373e-06)
(-0.000156557 0 -1.29731e-05)
(-0.000151276 0 -1.89984e-05)
(-0.000144256 0 -2.42977e-05)
(-0.000135585 0 -2.89408e-05)
(-0.000125375 0 -3.29926e-05)
(-0.000113754 0 -3.65125e-05)
(-0.00010087 0 -3.95506e-05)
(-8.68804e-05 0 -4.21443e-05)
(-7.19517e-05 0 -4.4314e-05)
(-5.62556e-05 0 -4.60631e-05)
(-3.99663e-05 0 -4.73819e-05)
(-2.32587e-05 0 -4.8254e-05)
(-6.30885e-06 0 -4.86639e-05)
(1.07067e-05 0 -4.86029e-05)
(2.76108e-05 0 -4.80723e-05)
(4.42269e-05 0 -4.7083e-05)
(6.03796e-05 0 -4.56515e-05)
(7.58938e-05 0 -4.37931e-05)
(9.0596e-05 0 -4.15147e-05)
(0.000104315 0 -3.88086e-05)
(0.000116887 0 -3.565e-05)
(0.000128156 0 -3.19975e-05)
(0.00013798 0 -2.77983e-05)
(0.000146233 0 -2.29914e-05)
(0.00015281 0 -1.75108e-05)
(0.000157628 0 -1.12842e-05)
(0.000160615 0 -4.21979e-06)
(0.000161698 0 3.8268e-06)
(0.000160796 0 1.30368e-05)
(0.000157814 0 2.3405e-05)
(0.000152584 0 3.45025e-05)
(0.00014442 0 4.55166e-05)
(0.000131816 0 5.49016e-05)
(0.000113677 0 6.03669e-05)
(9.09505e-05 0 6.16994e-05)
(6.56546e-05 0 6.0539e-05)
(3.94526e-05 0 5.86797e-05)
(1.30642e-05 0 5.74566e-05)
(-1.33615e-05 0 5.75149e-05)
(-3.98354e-05 0 5.88627e-05)
(-6.62136e-05 0 6.08731e-05)
(-9.17877e-05 0 6.223e-05)
(-0.000114906 0 6.11531e-05)
(-0.000133528 0 5.59862e-05)
(-0.000146647 0 4.68519e-05)
(-0.000155285 0 3.60168e-05)
(-0.00016097 0 2.50526e-05)
(-0.000164432 0 1.4779e-05)
(-0.000165852 0 5.64416e-06)
(-0.000165326 0 -2.32367e-06)
(-0.000162933 0 -9.30562e-06)
(-0.000158746 0 -1.54586e-05)
(-0.000152833 0 -2.08856e-05)
(-0.000145269 0 -2.56656e-05)
(-0.000136149 0 -2.98684e-05)
(-0.000125584 0 -3.35572e-05)
(-0.000113704 0 -3.67865e-05)
(-0.000100647 0 -3.95993e-05)
(-8.65619e-05 0 -4.20231e-05)
(-7.16044e-05 0 -4.40682e-05)
(-5.59331e-05 0 -4.57284e-05)
(-3.97089e-05 0 -4.69864e-05)
(-2.30942e-05 0 -4.7821e-05)
(-6.25293e-06 0 -4.82137e-05)
(1.07613e-05 0 -6.53522e-05)
(2.77195e-05 0 -6.46428e-05)
(4.43643e-05 0 -6.332e-05)
(6.05067e-05 0 -6.14056e-05)
(7.59624e-05 0 -5.89233e-05)
(9.05529e-05 0 -5.58917e-05)
(0.000104108 0 -5.23186e-05)
(0.000116471 0 -4.81969e-05)
(0.000127495 0 -4.35043e-05)
(0.000137054 0 -3.82059e-05)
(0.000145035 0 -3.22577e-05)
(0.000151341 0 -2.56098e-05)
(0.000155892 0 -1.82071e-05)
(0.000158617 0 -9.98578e-06)
(0.000159459 0 -8.62271e-07)
(0.000158392 0 9.27341e-06)
(0.000155459 0 2.05129e-05)
(0.00015075 0 3.28277e-05)
(0.000144262 0 4.60445e-05)
(0.000135811 0 5.97015e-05)
(0.000124733 0 7.25335e-05)
(0.000109384 0 8.23746e-05)
(8.82889e-05 0 8.70093e-05)
(6.28784e-05 0 8.73716e-05)
(3.53769e-05 0 8.61372e-05)
(7.12821e-06 0 8.52372e-05)
(-2.11973e-05 0 8.54286e-05)
(-4.90351e-05 0 8.6436e-05)
(-7.54456e-05 0 8.68881e-05)
(-9.85723e-05 0 8.4296e-05)
(-0.000116253 0 7.64799e-05)
(-0.000128735 0 6.44927e-05)
(-0.000137939 0 5.08165e-05)
(-0.00014495 0 3.7131e-05)
(-0.000150084 0 2.42026e-05)
(-0.000153412 0 1.22914e-05)
(-0.000154863 0 1.49467e-06)
(-0.000154365 0 -8.23501e-06)
(-0.000151922 0 -1.70035e-05)
(-0.000147587 0 -2.48963e-05)
(-0.000141429 0 -3.19746e-05)
(-0.000133532 0 -3.82891e-05)
(-0.000123996 0 -4.38866e-05)
(-0.000112939 0 -4.88105e-05)
(-0.000100497 0 -5.30976e-05)
(-8.68245e-05 0 -5.67735e-05)
(-7.20922e-05 0 -5.98502e-05)
(-5.64835e-05 0 -6.23252e-05)
(-4.01911e-05 0 -6.4185e-05)
(-2.34135e-05 0 -6.54108e-05)
(-6.35396e-06 0 -6.59858e-05)
(1.07821e-05 0 -6.59002e-05)
(2.77884e-05 0 -6.51556e-05)
(4.44597e-05 0 -6.3764e-05)
(6.05941e-05 0 -6.17435e-05)
(7.59942e-05 0 -5.91119e-05)
(9.04694e-05 0 -5.58804e-05)
(0.000103839 0 -5.2048e-05)
(0.000115937 0 -4.7599e-05)
(0.000126613 0 -4.25043e-05)
(0.000135735 0 -3.67252e-05)
(0.00014319 0 -3.02172e-05)
(0.000148884 0 -2.29325e-05)
(0.000152735 0 -1.48189e-05)
(0.000154678 0 -5.81029e-06)
(0.000154668 0 4.18618e-06)
(0.000152721 0 1.52725e-05)
(0.000148921 0 2.74627e-05)
(0.000143315 0 4.06221e-05)
(0.000135783 0 5.44151e-05)
(0.000125877 0 6.7851e-05)
(0.000112242 0 7.90147e-05)
(9.30211e-05 0 8.54159e-05)
(6.88175e-05 0 8.69483e-05)
(4.18997e-05 0 8.61515e-05)
(1.38711e-05 0 8.5273e-05)
(-1.44855e-05 0 8.53804e-05)
(-4.26193e-05 0 8.64835e-05)
(-6.97491e-05 0 8.75375e-05)
(-9.42717e-05 0 8.63164e-05)
(-0.000113897 0 8.02603e-05)
(-0.000127931 0 6.93865e-05)
(-0.000138209 0 5.61676e-05)
(-0.000146119 0 4.25421e-05)
(-0.000152134 0 2.95337e-05)
(-0.000156389 0 1.74867e-05)
(-0.000158845 0 6.53739e-06)
(-0.000159418 0 -3.32413e-06)
(-0.000158083 0 -1.22041e-05)
(-0.000154877 0 -2.02065e-05)
(-0.000149863 0 -2.74081e-05)
(-0.000143113 0 -3.38697e-05)
(-0.000134712 0 -3.96448e-05)
(-0.00012476 0 -4.47821e-05)
(-0.000113375 0 -4.93235e-05)
(-0.000100688 0 -5.33011e-05)
(-8.68472e-05 0 -5.67333e-05)
(-7.20148e-05 0 -5.96232e-05)
(-5.63629e-05 0 -6.19598e-05)
(-4.00718e-05 0 -6.37225e-05)
(-2.33271e-05 0 -6.48874e-05)
(-6.31862e-06 0 -6.54343e-05)
(1.05775e-05 0 -8.22983e-05)
(2.72321e-05 0 -8.13573e-05)
(4.35425e-05 0 -7.9601e-05)
(5.93032e-05 0 -7.7056e-05)
(7.43158e-05 0 -7.37532e-05)
(8.83922e-05 0 -6.97216e-05)
(0.000101358 0 -6.49819e-05)
(0.000113053 0 -5.95432e-05)
(0.000123338 0 -5.34016e-05)
(0.000132093 0 -4.65408e-05)
(0.000139214 0 -3.89342e-05)
(0.000144617 0 -3.05471e-05)
(0.000148232 0 -2.13367e-05)
(0.000150004 0 -1.12509e-05)
(0.000149898 0 -2.27003e-07)
(0.000147912 0 1.18005e-05)
(0.000144105 0 2.4858e-05)
(0.000138578 0 3.8868e-05)
(0.000131436 0 5.36471e-05)
(0.000122756 0 6.89359e-05)
(0.000112447 0 8.42321e-05)
(9.98639e-05 0 9.82455e-05)
(8.32843e-05 0 0.000108548)
(6.12256e-05 0 0.00011331)
(3.51331e-05 0 0.000114211)
(7.23356e-06 0 0.000113984)
(-2.09384e-05 0 0.000113877)
(-4.79814e-05 0 0.000113444)
(-7.20553e-05 0 0.00011054)
(-9.09236e-05 0 0.000102482)
(-0.000104867 0 8.95997e-05)
(-0.000115829 0 7.44266e-05)
(-0.000124948 0 5.88215e-05)
(-0.000132476 0 4.35464e-05)
(-0.000138382 0 2.89338e-05)
(-0.000142568 0 1.52049e-05)
(-0.000144924 0 2.49287e-06)
(-0.000145369 0 -9.18543e-06)
(-0.000143884 0 -1.98787e-05)
(-0.000140497 0 -2.96425e-05)
(-0.000135262 0 -3.85222e-05)
(-0.000128248 0 -4.65547e-05)
(-0.000119545 0 -5.377e-05)
(-0.00010926 0 -6.0192e-05)
(-9.75206e-05 0 -6.58363e-05)
(-8.44778e-05 0 -7.07084e-05)
(-7.03019e-05 0 -7.48022e-05)
(-5.51812e-05 0 -7.81006e-05)
(-3.9318e-05 0 -8.05795e-05)
(-2.29255e-05 0 -8.22127e-05)
(-6.22424e-06 0 -8.29783e-05)
(1.05609e-05 0 -8.28644e-05)
(2.72038e-05 0 -8.18727e-05)
(4.34802e-05 0 -8.00184e-05)
(5.91713e-05 0 -7.7325e-05)
(7.40665e-05 0 -7.38187e-05)
(8.79666e-05 0 -6.95223e-05)
(0.000100688 0 -6.44502e-05)
(0.000112064 0 -5.86054e-05)
(0.000121951 0 -5.19796e-05)
(0.000130227 0 -4.45549e-05)
(0.000136787 0 -3.63057e-05)
(0.00014155 0 -2.72002e-05)
(0.000144449 0 -1.71998e-05)
(0.000145435 0 -6.25625e-06)
(0.000144491 0 5.68692e-06)
(0.000141651 0 1.86687e-05)
(0.000137008 0 3.26442e-05)
(0.000130672 0 4.74527e-05)
(0.000122736 0 6.28548e-05)
(0.000113183 0 7.84516e-05)
(0.000101609 0 9.32629e-05)
(8.65755e-05 0 0.000105125)
(6.62325e-05 0 0.0001117)
(4.1161e-05 0 0.000113678)
(1.36785e-05 0 0.00011389)
(-1.4553e-05 0 0.000114053)
(-4.21481e-05 0 0.000114178)
(-6.7439e-05 0 0.000112567)
(-8.80841e-05 0 0.00010638)
(-0.000103426 0 9.48554e-05)
(-0.000115293 0 8.03093e-05)
(-0.000125152 0 6.49378e-05)
(-0.000133435 0 4.97487e-05)
(-0.000140167 0 3.51473e-05)
(-0.000145258 0 2.13703e-05)
(-0.000148601 0 8.57781e-06)
(-0.000150101 0 -3.18393e-06)
(-0.000149718 0 -1.39583e-05)
(-0.000147462 0 -2.38119e-05)
(-0.000143377 0 -3.28046e-05)
(-0.00013752 0 -4.09857e-05)
(-0.000129965 0 -4.83958e-05)
(-0.000120802 0 -5.50679e-05)
(-0.000110138 0 -6.10259e-05)
(-9.80974e-05 0 -6.6283e-05)
(-8.4827e-05 0 -7.084e-05)
(-7.04896e-05 0 -7.46844e-05)
(-5.52638e-05 0 -7.77929e-05)
(-3.93406e-05 0 -8.01355e-05)
(-2.29206e-05 0 -8.16818e-05)
(-6.2108e-06 0 -8.24072e-05)
(1.01505e-05 0 -9.87729e-05)
(2.61199e-05 0 -9.75848e-05)
(4.1727e-05 0 -9.53668e-05)
(5.67568e-05 0 -9.21526e-05)
(7.10043e-05 0 -8.79837e-05)
(8.42782e-05 0 -8.29024e-05)
(9.64037e-05 0 -7.6946e-05)
(0.000107225 0 -7.01425e-05)
(0.000116609 0 -6.25082e-05)
(0.000124443 0 -5.40469e-05)
(0.000130635 0 -4.47508e-05)
(0.000135111 0 -3.46025e-05)
(0.000137817 0 -2.3576e-05)
(0.000138715 0 -1.16391e-05)
(0.000137792 0 1.24175e-06)
(0.000135066 0 1.50893e-05)
(0.000130602 0 2.98848e-05)
(0.000124499 0 4.55336e-05)
(0.000116871 0 6.18567e-05)
(0.000107832 0 7.85919e-05)
(9.747e-05 0 9.53494e-05)
(8.57273e-05 0 0.0001115)
(7.18782e-05 0 0.000125651)
(5.42314e-05 0 0.000135498)
(3.19197e-05 0 0.000140138)
(6.73371e-06 0 0.000141369)
(-1.8938e-05 0 0.000140687)
(-4.28142e-05 0 0.000137523)
(-6.25598e-05 0 0.00012983)
(-7.7785e-05 0 0.000117087)
(-9.01497e-05 0 0.000101335)
(-0.000100897 0 8.44789e-05)
(-0.000110287 0 6.74084e-05)
(-0.000118265 0 5.05874e-05)
(-0.000124722 0 3.43313e-05)
(-0.000129541 0 1.88588e-05)
(-0.000132614 0 4.30853e-06)
(-0.000133859 0 -9.26387e-06)
(-0.000133241 0 -2.18585e-05)
(-0.000130766 0 -3.34945e-05)
(-0.000126467 0 -4.41928e-05)
(-0.000120399 0 -5.39705e-05)
(-0.000112639 0 -6.28378e-05)
(-0.000103282 0 -7.07977e-05)
(-9.24489e-05 0 -7.78435e-05)
(-8.02826e-05 0 -8.39585e-05)
(-6.69499e-05 0 -8.91156e-05)
(-5.26382e-05 0 -9.32802e-05)
(-3.75533e-05 0 -9.64136e-05)
(-2.19147e-05 0 -9.84789e-05)
(-5.95223e-06 0 -9.94472e-05)
(1.00983e-05 0 -9.93031e-05)
(2.59994e-05 0 -9.80489e-05)
(4.15164e-05 0 -9.57042e-05)
(5.64219e-05 0 -9.23003e-05)
(7.04993e-05 0 -8.78753e-05)
(8.35474e-05 0 -8.24672e-05)
(9.53837e-05 0 -7.6109e-05)
(0.000105847 0 -6.88252e-05)
(0.000114802 0 -6.06299e-05)
(0.000122132 0 -5.1527e-05)
(0.000127748 0 -4.15117e-05)
(0.00013158 0 -3.05717e-05)
(0.000133576 0 -1.86887e-05)
(0.000133711 0 -5.84146e-06)
(0.000131987 0 7.9864e-06)
(0.000128452 0 2.27845e-05)
(0.000123197 0 3.84772e-05)
(0.000116334 0 5.49042e-05)
(0.000107981 0 7.18259e-05)
(9.82383e-05 0 8.88932e-05)
(8.71229e-05 0 0.000105579)
(7.41833e-05 0 0.000120783)
(5.79148e-05 0 0.00013235)
(3.69286e-05 0 0.00013869)
(1.23545e-05 0 0.000141041)
(-1.34052e-05 0 0.000141262)
(-3.80854e-05 0 0.000139356)
(-5.92653e-05 0 0.000133463)
(-7.57584e-05 0 0.000122297)
(-8.89231e-05 0 0.000107423)
(-0.00010028 0 9.1024e-05)
(-0.000110304 0 7.42266e-05)
(-0.000118987 0 5.75667e-05)
(-0.00012623 0 4.13968e-05)
(-0.000131918 0 2.59554e-05)
(-0.000135939 0 1.14003e-05)
(-0.000138201 0 -2.19599e-06)
(-0.000138651 0 -1.48296e-05)
(-0.000137281 0 -2.65276e-05)
(-0.00013411 0 -3.73238e-05)
(-0.000129182 0 -4.72491e-05)
(-0.000122556 0 -5.63274e-05)
(-0.000114309 0 -6.45739e-05)
(-0.00010454 0 -7.19933e-05)
(-9.33651e-05 0 -7.85787e-05)
(-8.09251e-05 0 -8.43107e-05)
(-6.73804e-05 0 -8.91585e-05)
(-5.29103e-05 0 -9.30831e-05)
(-3.77101e-05 0 -9.60418e-05)
(-2.19877e-05 0 -9.79945e-05)
(-5.96003e-06 0 -9.89104e-05)
(9.52527e-06 0 -0.000114385)
(2.44993e-05 0 -0.00011294)
(3.91037e-05 0 -0.000110245)
(5.31206e-05 0 -0.00010634)
(6.63444e-05 0 -0.000101282)
(7.85853e-05 0 -9.5129e-05)
(8.9673e-05 0 -8.79376e-05)
(9.9459e-05 0 -7.97577e-05)
(0.000107818 0 -7.0628e-05)
(0.000114648 0 -6.05744e-05)
(0.00011987 0 -4.96099e-05)
(0.000123424 0 -3.77365e-05)
(0.000125271 0 -2.49471e-05)
(0.000125393 0 -1.12311e-05)
(0.000123794 0 3.41763e-06)
(0.000120508 0 1.89866e-05)
(0.000115604 0 3.54204e-05)
(0.00010918 0 5.25997e-05)
(0.000101351 0 7.03349e-05)
(9.2241e-05 0 8.83689e-05)
(8.19694e-05 0 0.000106361)
(7.06283e-05 0 0.00012384)
(5.81464e-05 0 0.000139985)
(4.37109e-05 0 0.000153221)
(2.61144e-05 0 0.000161646)
(5.66934e-06 0 0.000164837)
(-1.53615e-05 0 0.000163381)
(-3.44211e-05 0 0.000157014)
(-5.01233e-05 0 0.000145446)
(-6.32244e-05 0 0.000130053)
(-7.48886e-05 0 0.000112732)
(-8.54581e-05 0 9.4591e-05)
(-9.48684e-05 0 7.62153e-05)
(-0.000103008 0 5.79892e-05)
(-0.000109752 0 4.02072e-05)
(-0.000114979 0 2.30938e-05)
(-0.000118581 0 6.80697e-06)
(-0.000120476 0 -8.56331e-06)
(-0.000120618 0 -2.29781e-05)
(-0.000118993 0 -3.64241e-05)
(-0.000115617 0 -4.8897e-05)
(-0.000110528 0 -6.03915e-05)
(-0.000103787 0 -7.08963e-05)
(-9.54769e-05 0 -8.0391e-05)
(-8.57069e-05 0 -8.88448e-05)
(-7.46109e-05 0 -9.62162e-05)
(-6.2348e-05 0 -0.000102455)
(-4.9101e-05 0 -0.000107505)
(-3.50729e-05 0 -0.00011131)
(-2.04838e-05 0 -0.000113821)
(-5.56585e-06 0 -0.000114998)
(9.44167e-06 0 -0.000114823)
(2.42973e-05 0 -0.000113298)
(3.87631e-05 0 -0.000110448)
(5.26096e-05 0 -0.000106316)
(6.56207e-05 0 -0.000100953)
(7.75982e-05 0 -9.44156e-05)
(8.83653e-05 0 -8.67594e-05)
(9.77692e-05 0 -7.80324e-05)
(0.000105683 0 -6.82734e-05)
(0.000112003 0 -5.75103e-05)
(0.000116654 0 -4.57611e-05)
(0.000119579 0 -3.30351e-05)
(0.000120746 0 -1.93367e-05)
(0.000120148 0 -4.67156e-06)
(0.000117805 0 1.09423e-05)
(0.000113773 0 2.74551e-05)
(0.000108142 0 4.47602e-05)
(0.000101024 0 6.26818e-05)
(9.25427e-05 0 8.09788e-05)
(8.28222e-05 0 9.9335e-05)
(7.19665e-05 0 0.000117333)
(5.99968e-05 0 0.000134294)
(4.63537e-05 0 0.000148897)
(2.97848e-05 0 0.000159178)
(9.99458e-06 0 0.000164201)
(-1.11356e-05 0 0.000164472)
(-3.10102e-05 0 0.00015998)
(-4.77179e-05 0 0.000150185)
(-6.15197e-05 0 0.000135994)
(-7.3667e-05 0 0.000119388)
(-8.47373e-05 0 0.000101717)
(-9.47179e-05 0 8.36757e-05)
(-0.000103507 0 6.56899e-05)
(-0.000110984 0 4.80768e-05)
(-0.000117023 0 3.10753e-05)
(-0.000121515 0 1.48571e-05)
(-0.000124368 0 -4.76662e-07)
(-0.000125522 0 -1.48842e-05)
(-0.000124951 0 -2.83594e-05)
(-0.000122657 0 -4.09107e-05)
(-0.000118665 0 -5.25482e-05)
(-0.000113019 0 -6.32771e-05)
(-0.000105783 0 -7.30928e-05)
(-9.70418e-05 0 -8.19788e-05)
(-8.69042e-05 0 -8.99061e-05)
(-7.55013e-05 0 -9.68327e-05)
(-6.29875e-05 0 -0.000102707)
(-4.95384e-05 0 -0.00010747)
(-3.53483e-05 0 -0.000111065)
(-2.06263e-05 0 -0.000113438)
(-5.59285e-06 0 -0.000114552)
(8.73874e-06 0 -0.000128865)
(2.24652e-05 0 -0.000127163)
(3.58244e-05 0 -0.000123987)
(4.86014e-05 0 -0.000119392)
(6.05948e-05 0 -0.000113447)
(7.16211e-05 0 -0.00010623)
(8.15181e-05 0 -9.78181e-05)
(9.01472e-05 0 -8.82859e-05)
(9.73943e-05 0 -7.76956e-05)
(0.00010317 0 -6.60967e-05)
(0.000107409 0 -5.35247e-05)
(0.000110067 0 -4.00025e-05)
(0.000111123 0 -2.55442e-05)
(0.000110575 0 -1.0161e-05)
(0.000108446 0 6.12762e-06)
(0.000104783 0 2.32802e-05)
(9.96623e-05 0 4.12127e-05)
(9.31843e-05 0 5.97844e-05)
(8.5466e-05 0 7.87912e-05)
(7.66392e-05 0 9.7966e-05)
(6.68445e-05 0 0.000116973)
(5.62258e-05 0 0.00013539)
(4.49257e-05 0 0.000152592)
(3.28382e-05 0 0.000167432)
(1.93684e-05 0 0.00017806)
(4.31979e-06 0 0.00018271)
(-1.11213e-05 0 0.000180651)
(-2.53414e-05 0 0.000172166)
(-3.79149e-05 0 0.000158599)
(-4.94248e-05 0 0.000141921)
(-6.02276e-05 0 0.000123604)
(-7.02362e-05 0 0.000104454)
(-7.93001e-05 0 8.49525e-05)
(-8.72757e-05 0 6.54683e-05)
(-9.40252e-05 0 4.6301e-05)
(-9.94232e-05 0 2.76881e-05)
(-0.000103361 0 9.8064e-06)
(-0.000105752 0 -7.22654e-06)
(-0.000106537 0 -2.33405e-05)
(-0.000105688 0 -3.84937e-05)
(-0.0001032 0 -5.26561e-05)
(-9.90953e-05 0 -6.5799e-05)
(-9.34173e-05 0 -7.78872e-05)
(-8.62352e-05 0 -8.88757e-05)
(-7.76442e-05 0 -9.87077e-05)
(-6.77662e-05 0 -0.000107316)
(-5.67498e-05 0 -0.000114624)
(-4.47688e-05 0 -0.000120554)
(-3.20193e-05 0 -0.00012503)
(-1.87161e-05 0 -0.000127985)
(-5.08766e-06 0 -0.000129372)
(8.62937e-06 0 -0.000129166)
(2.21961e-05 0 -0.00012737)
(3.53775e-05 0 -0.000124015)
(4.79481e-05 0 -0.000119157)
(5.96975e-05 0 -0.000112863)
(7.0435e-05 0 -0.00010521)
(7.99931e-05 0 -9.62782e-05)
(8.82301e-05 0 -8.61405e-05)
(9.50309e-05 0 -7.4862e-05)
(0.000100307 0 -6.24963e-05)
(0.000103997 0 -4.90858e-05)
(0.000106061 0 -3.46633e-05)
(0.000106486 0 -1.92573e-05)
(0.000105281 0 -2.89946e-06)
(0.000102483 0 1.43626e-05)
(9.81573e-05 0 3.2448e-05)
(9.23978e-05 0 5.12247e-05)
(8.53178e-05 0 7.04999e-05)
(7.70464e-05 0 9.00203e-05)
(6.77236e-05 0 0.000109469)
(5.74936e-05 0 0.000128457)
(4.65086e-05 0 0.00014645)
(3.47818e-05 0 0.000162495)
(2.18205e-05 0 0.000174929)
(7.17829e-06 0 0.00018183)
(-8.33156e-06 0 0.000182136)
(-2.30268e-05 0 0.000175819)
(-3.6077e-05 0 0.0001639)
(-4.79174e-05 0 0.000148296)
(-5.90491e-05 0 0.000130695)
(-6.94685e-05 0 0.000112077)
(-7.90259e-05 0 9.29896e-05)
(-8.75783e-05 0 7.38285e-05)
(-9.49867e-05 0 5.49112e-05)
(-0.000101123 0 3.64879e-05)
(-0.000105874 0 1.87463e-05)
(-0.000109144 0 1.81118e-06)
(-0.000110866 0 -1.4246e-05)
(-0.000110998 0 -2.93911e-05)
(-0.000109524 0 -4.36081e-05)
(-0.000106452 0 -5.68857e-05)
(-0.000101809 0 -6.92081e-05)
(-9.5643e-05 0 -8.05492e-05)
(-8.80269e-05 0 -9.08701e-05)
(-7.9056e-05 0 -0.000100118)
(-6.8851e-05 0 -0.000108226)
(-5.75565e-05 0 -0.00011512)
(-4.53408e-05 0 -0.000120721)
(-3.23923e-05 0 -0.000124953)
(-1.89164e-05 0 -0.000127749)
(-5.1309e-06 0 -0.000129061)
(7.82126e-06 0 -0.000141982)
(2.00956e-05 0 -0.000140027)
(3.20142e-05 0 -0.000136382)
(4.33697e-05 0 -0.000131112)
(5.39695e-05 0 -0.000124303)
(6.36404e-05 0 -0.000116053)
(7.22315e-05 0 -0.000106465)
(7.96167e-05 0 -9.56349e-05)
(8.56956e-05 0 -8.36519e-05)
(9.03931e-05 0 -7.05899e-05)
(9.36589e-05 0 -5.6508e-05)
(9.54658e-05 0 -4.14515e-05)
(9.5809e-05 0 -2.54559e-05)
(9.47049e-05 0 -8.55485e-06)
(9.21924e-05 0 9.20918e-06)
(8.83334e-05 0 2.77695e-05)
(8.3214e-05 0 4.70182e-05)
(7.69413e-05 0 6.67945e-05)
(6.96406e-05 0 8.68777e-05)
(6.14549e-05 0 0.000106985)
(5.25464e-05 0 0.000126764)
(4.31001e-05 0 0.000145782)
(3.33391e-05 0 0.000163447)
(2.34639e-05 0 0.000178768)
(1.34257e-05 0 0.000190053)
(3.06915e-06 0 0.000195199)
(-7.37932e-06 0 0.000192918)
(-1.75334e-05 0 0.00018374)
(-2.74034e-05 0 0.000169582)
(-3.71436e-05 0 0.000152421)
(-4.66414e-05 0 0.00013354)
(-5.5661e-05 0 0.000113655)
(-6.40003e-05 0 9.32514e-05)
(-7.14862e-05 0 7.27124e-05)
(-7.7966e-05 0 5.23535e-05)
(-8.33055e-05 0 3.2429e-05)
(-8.73885e-05 0 1.31347e-05)
(-9.01195e-05 0 -5.38816e-06)
(-9.14277e-05 0 -2.30429e-05)
(-9.12672e-05 0 -3.97618e-05)
(-8.9617e-05 0 -5.54904e-05)
(-8.64797e-05 0 -7.01756e-05)
(-8.18826e-05 0 -8.37575e-05)
(-7.58787e-05 0 -9.61652e-05)
(-6.85478e-05 0 -0.000107315)
(-5.99974e-05 0 -0.000117112)
(-5.03625e-05 0 -0.000125454)
(-3.98045e-05 0 -0.000132237)
(-2.85084e-05 0 -0.000137364)
(-1.66791e-05 0 -0.000140754)
(-4.53604e-06 0 -0.000142345)
(7.69262e-06 0 -0.000142108)
(1.97762e-05 0 -0.000140048)
(3.1488e-05 0 -0.000136202)
(4.2612e-05 0 -0.000130637)
(5.2948e-05 0 -0.000123441)
(6.23168e-05 0 -0.000114712)
(7.05635e-05 0 -0.000104556)
(7.75602e-05 0 -9.30713e-05)
(8.32065e-05 0 -8.03517e-05)
(8.74297e-05 0 -6.64773e-05)
(9.01837e-05 0 -5.15159e-05)
(9.14475e-05 0 -3.5525e-05)
(9.12247e-05 0 -1.85573e-05)
(8.95428e-05 0 -6.69346e-07)
(8.64538e-05 0 1.80652e-05)
(8.20353e-05 0 3.75393e-05)
(7.63885e-05 0 5.75982e-05)
(6.96342e-05 0 7.80313e-05)
(6.19116e-05 0 9.85686e-05)
(5.33783e-05 0 0.000118878)
(4.42134e-05 0 0.000138555)
(3.46301e-05 0 0.000157076)
(2.48574e-05 0 0.000173612)
(1.49342e-05 0 0.000186688)
(4.68606e-06 0 0.000194226)
(-5.7818e-06 0 0.000194551)
(-1.60571e-05 0 0.00018763)
(-2.60328e-05 0 0.000175098)
(-3.58868e-05 0 0.000159037)
(-4.55894e-05 0 0.000140948)
(-5.49157e-05 0 0.000121684)
(-6.36534e-05 0 0.000101781)
(-7.16241e-05 0 8.16488e-05)
(-7.86709e-05 0 6.16201e-05)
(-8.46553e-05 0 4.19614e-05)
(-8.94566e-05 0 2.28775e-05)
(-9.29729e-05 0 4.51462e-06)
(-9.51242e-05 0 -1.30313e-05)
(-9.58548e-05 0 -2.97016e-05)
(-9.51318e-05 0 -4.54572e-05)
(-9.29441e-05 0 -6.02649e-05)
(-8.93025e-05 0 -7.40872e-05)